<event>
 7    1  0.3884463E-009  0.4778727E+02  0.7816164E-02  0.1312668E+00
        -11   -1    0    0    0    0  0.00000000000E+00  0.00000000000E+00  0.45593999997E+02  0.45594000000E+02  0.51100000000E-03 0. -1.
         11   -1    0    0    0    0 -0.00000000000E+00 -0.00000000000E+00 -0.45593999997E+02  0.45594000000E+02  0.51100000000E-03 0.  1.
    9900012    2    1    2    0    0 -0.13149077034E+02 -0.15230307374E+02  0.38454684016E+02  0.47787271753E+02  0.20000003232E+02 0.  0.
        -12    1    1    2    0    0  0.13149077034E+02  0.15230307374E+02 -0.38454684016E+02  0.43400728247E+02  0.00000000000E+00 0.  1.
         11    1    3    3    0    0  0.19241528152E+01 -0.21444317915E+01  0.44511517899E+01  0.53022357814E+01  0.51100000000E-03 0. -1.
        -11    1    3    3    0    0 -0.88950315191E+00 -0.70809010423E+01  0.27608670563E+01  0.76519776916E+01  0.51100000000E-03 0.  1.
        -12    1    3    3    0    0 -0.14183726697E+02 -0.60049745406E+01  0.31242665170E+02  0.34833058280E+02  0.00000000000E+00 0.  1.
</event>
<event>
 7    1  0.3884463E-009  0.4778727E+02  0.7816164E-02  0.1312668E+00
        -11   -1    0    0    0    0  0.00000000000E+00  0.00000000000E+00  0.45593999997E+02  0.45594000000E+02  0.51100000000E-03 0.  1.
         11   -1    0    0    0    0 -0.00000000000E+00 -0.00000000000E+00 -0.45593999997E+02  0.45594000000E+02  0.51100000000E-03 0. -1.
    9900012    2    1    2    0    0  0.24543106240E+02  0.23197361551E+02 -0.27260621064E+02  0.47787272960E+02  0.20000008733E+02 0.  0.
        -12    1    1    2    0    0 -0.24543106240E+02 -0.23197361551E+02  0.27260621064E+02  0.43400727040E+02  0.00000000000E+00 0.  1.
         11    1    3    3    0    0  0.12241259694E+02  0.43827813502E+01 -0.89622565711E+01  0.15791746400E+02  0.51100000000E-03 0. -1.
        -11    1    3    3    0    0  0.71036462276E+01  0.17301567155E+01 -0.97782302522E+01  0.12209382421E+02  0.51100000000E-03 0.  1.
         12    1    3    3    0    0  0.51982003184E+01  0.17084423485E+02 -0.85201342406E+01  0.19786144138E+02  0.00000000000E+00 0. -1.
</event>
<event>
 7    1  0.3884463E-009  0.4778729E+02  0.7816164E-02  0.1312668E+00
        -11   -1    0    0    0    0  0.00000000000E+00  0.00000000000E+00  0.45593999997E+02  0.45594000000E+02  0.51100000000E-03 0.  1.
         11   -1    0    0    0    0 -0.00000000000E+00 -0.00000000000E+00 -0.45593999997E+02  0.45594000000E+02  0.51100000000E-03 0. -1.
    9900012    2    1    2    0    0 -0.17147044541E+01 -0.20452368956E+02 -0.38241107636E+02  0.47787286636E+02  0.20000071090E+02 0.  0.
        -12    1    1    2    0    0  0.17147044541E+01  0.20452368956E+02  0.38241107636E+02  0.43400713364E+02  0.00000000000E+00 0.  1.
         11    1    3    3    0    0  0.29011210826E+01 -0.55923867236E+01 -0.10867141670E+02  0.12561292176E+02  0.51100000000E-03 0. -1.
        -11    1    3    3    0    0 -0.48658102822E+00  0.29403956714E+01 -0.82666716677E+01  0.87875223200E+01  0.51100000000E-03 0.  1.
         12    1    3    3    0    0 -0.41292445085E+01 -0.17800377904E+02 -0.19107294298E+02  0.26438472140E+02  0.00000000000E+00 0. -1.
</event>
<event>
 7    1  0.3884463E-009  0.4778727E+02  0.7816164E-02  0.1312668E+00
        -11   -1    0    0    0    0  0.00000000000E+00  0.00000000000E+00  0.45593999997E+02  0.45594000000E+02  0.51100000000E-03 0. -1.
         11   -1    0    0    0    0 -0.00000000000E+00 -0.00000000000E+00 -0.45593999997E+02  0.45594000000E+02  0.51100000000E-03 0.  1.
    9900012    2    1    2    0    0 -0.39592626824E+02  0.39641226259E+01  0.17330115656E+02  0.47787271024E+02  0.19999999905E+02 0.  0.
        -12    1    1    2    0    0  0.39592626824E+02 -0.39641226259E+01 -0.17330115656E+02  0.43400728976E+02  0.00000000000E+00 0.  1.
         11    1    3    3    0    0  0.57224407224E-01 -0.17410101022E+01 -0.77999412070E+00  0.19086073190E+01  0.51100000000E-03 0.  1.
        -11    1    3    3    0    0 -0.15448961297E+02  0.55302516620E+01  0.13995895202E+01  0.16468543946E+02  0.51100000000E-03 0. -1.
         12    1    3    3    0    0 -0.24200889934E+02  0.17488106617E+00  0.16710520257E+02  0.29410119759E+02  0.00000000000E+00 0. -1.
</event>
<event>
 7    1  0.3884463E-009  0.4778728E+02  0.7816164E-02  0.1312668E+00
        -11   -1    0    0    0    0  0.00000000000E+00  0.00000000000E+00  0.45593999997E+02  0.45594000000E+02  0.51100000000E-03 0.  1.
         11   -1    0    0    0    0 -0.00000000000E+00 -0.00000000000E+00 -0.45593999997E+02  0.45594000000E+02  0.51100000000E-03 0. -1.
    9900012    2    1    2    0    0  0.24250236299E+01  0.22179316616E+02 -0.37226602335E+02  0.47787277119E+02  0.20000027697E+02 0.  0.
        -12    1    1    2    0    0 -0.24250236299E+01 -0.22179316616E+02  0.37226602335E+02  0.43400722881E+02  0.00000000000E+00 0.  1.
         11    1    3    3    0    0  0.19191928547E+01  0.16907061784E+01 -0.12654918549E+02  0.12910799834E+02  0.51100000000E-03 0. -1.
        -11    1    3    3    0    0  0.43884032992E+01  0.13441743761E+01 -0.81644607462E+01  0.93660721654E+01  0.51100000000E-03 0.  1.
        -12    1    3    3    0    0 -0.38825725240E+01  0.19144436062E+02 -0.16407223039E+02  0.25510405120E+02  0.00000000000E+00 0.  1.
</event>
<event>
 7    1  0.3884463E-009  0.4778727E+02  0.7816164E-02  0.1312668E+00
        -11   -1    0    0    0    0  0.00000000000E+00  0.00000000000E+00  0.45593999997E+02  0.45594000000E+02  0.51100000000E-03 0.  1.
         11   -1    0    0    0    0 -0.00000000000E+00 -0.00000000000E+00 -0.45593999997E+02  0.45594000000E+02  0.51100000000E-03 0. -1.
    9900012    2    1    2    0    0 -0.26521105811E+02 -0.34125597628E+02 -0.39620393846E+01  0.47787271631E+02  0.20000002673E+02 0.  0.
        -12    1    1    2    0    0  0.26521105811E+02  0.34125597628E+02  0.39620393846E+01  0.43400728369E+02  0.00000000000E+00 0.  1.
         11    1    3    3    0    0 -0.93719301284E+01 -0.12138679797E+02  0.46624291170E+00  0.15342685692E+02  0.51100000000E-03 0.  1.
        -11    1    3    3    0    0 -0.20170258481E+02 -0.19071342901E+02 -0.26502805703E+01  0.27885111343E+02  0.51100000000E-03 0. -1.
        -12    1    3    3    0    0  0.30210827986E+01 -0.29155749294E+01 -0.17780017260E+01  0.45594745950E+01  0.00000000000E+00 0.  1.
</event>
<event>
 7    1  0.3884463E-009  0.4778727E+02  0.7816164E-02  0.1312668E+00
        -11   -1    0    0    0    0  0.00000000000E+00  0.00000000000E+00  0.45593999997E+02  0.45594000000E+02  0.51100000000E-03 0.  1.
         11   -1    0    0    0    0 -0.00000000000E+00 -0.00000000000E+00 -0.45593999997E+02  0.45594000000E+02  0.51100000000E-03 0. -1.
    9900012    2    1    2    0    0  0.31413782088E+02  0.10370135588E+02 -0.28093733307E+02  0.47787271108E+02  0.20000000292E+02 0.  0.
        -12    1    1    2    0    0 -0.31413782088E+02 -0.10370135588E+02  0.28093733307E+02  0.43400728892E+02  0.00000000000E+00 0.  1.
         11    1    3    3    0    0  0.37377245960E+01  0.26152380541E+01 -0.30840527722E-01  0.45619082230E+01  0.51100000000E-03 0. -1.
        -11    1    3    3    0    0  0.13288759506E+02  0.73163482141E+01 -0.48761849702E+01  0.15934153900E+02  0.51100000000E-03 0.  1.
         12    1    3    3    0    0  0.14387297986E+02  0.43854932023E+00 -0.23186707809E+02  0.27291208985E+02  0.00000000000E+00 0. -1.
</event>
<event>
 7    1  0.3884463E-009  0.4778727E+02  0.7816164E-02  0.1312668E+00
        -11   -1    0    0    0    0  0.00000000000E+00  0.00000000000E+00  0.45593999997E+02  0.45594000000E+02  0.51100000000E-03 0.  1.
         11   -1    0    0    0    0 -0.00000000000E+00 -0.00000000000E+00 -0.45593999997E+02  0.45594000000E+02  0.51100000000E-03 0. -1.
    9900012    2    1    2    0    0 -0.28583627304E+02  0.19829969788E+02 -0.25949409481E+02  0.47787270696E+02  0.19999998413E+02 0.  0.
        -12    1    1    2    0    0  0.28583627304E+02 -0.19829969788E+02  0.25949409481E+02  0.43400729304E+02  0.00000000000E+00 0.  1.
         11    1    3    3    0    0 -0.51208518408E+01  0.90300549382E+01 -0.54795548735E+01  0.11738421429E+02  0.51100000000E-03 0. -1.
        -11    1    3    3    0    0 -0.42550860244E+01  0.38640838246E+01 -0.13156483738E+02  0.14357226943E+02  0.51100000000E-03 0.  1.
        -12    1    3    3    0    0 -0.19207689439E+02  0.69358310251E+01 -0.73133708697E+01  0.21691622325E+02  0.00000000000E+00 0.  1.
</event>
<event>
 7    1  0.3884463E-009  0.4778727E+02  0.7816164E-02  0.1312668E+00
        -11   -1    0    0    0    0  0.00000000000E+00  0.00000000000E+00  0.45593999997E+02  0.45594000000E+02  0.51100000000E-03 0.  1.
         11   -1    0    0    0    0 -0.00000000000E+00 -0.00000000000E+00 -0.45593999997E+02  0.45594000000E+02  0.51100000000E-03 0. -1.
    9900012    2    1    2    0    0  0.11170957143E+02  0.16659839559E+02 -0.38487434640E+02  0.47787272324E+02  0.20000005834E+02 0.  0.
        -12    1    1    2    0    0 -0.11170957143E+02 -0.16659839559E+02  0.38487434640E+02  0.43400727676E+02  0.00000000000E+00 0.  1.
         11    1    3    3    0    0  0.10870737409E+02  0.84172089413E+01 -0.99941581879E+01  0.16997221430E+02  0.51100000000E-03 0. -1.
        -11    1    3    3    0    0  0.64671386831E+00 -0.15570397767E+01 -0.25650427800E+01  0.30695368410E+01  0.51100000000E-03 0.  1.
         12    1    3    3    0    0 -0.34649413397E+00  0.97996703948E+01 -0.25928233672E+02  0.27720514053E+02  0.00000000000E+00 0. -1.
</event>
<event>
 7    1  0.3884463E-009  0.4778727E+02  0.7816164E-02  0.1312668E+00
        -11   -1    0    0    0    0  0.00000000000E+00  0.00000000000E+00  0.45593999997E+02  0.45594000000E+02  0.51100000000E-03 0.  1.
         11   -1    0    0    0    0 -0.00000000000E+00 -0.00000000000E+00 -0.45593999997E+02  0.45594000000E+02  0.51100000000E-03 0. -1.
    9900012    2    1    2    0    0  0.24519861604E+02  0.16749234833E+02 -0.31652215328E+02  0.47787271714E+02  0.20000003054E+02 0.  0.
        -12    1    1    2    0    0 -0.24519861604E+02 -0.16749234833E+02  0.31652215328E+02  0.43400728286E+02  0.00000000000E+00 0.  1.
         11    1    3    3    0    0  0.94971968041E+00  0.17674415140E+01 -0.10707332732E+02  0.10893704213E+02  0.51100000000E-03 0. -1.
        -11    1    3    3    0    0 -0.14245725498E+01  0.82097270772E+00 -0.11638627941E+01  0.20144428513E+01  0.51100000000E-03 0.  1.
        -12    1    3    3    0    0  0.24994714473E+02  0.14160820612E+02 -0.19781019802E+02  0.34879124650E+02  0.00000000000E+00 0.  1.
</event>
<event>
 7    1  0.3884463E-009  0.4778727E+02  0.7816164E-02  0.1312668E+00
        -11   -1    0    0    0    0  0.00000000000E+00  0.00000000000E+00  0.45593999997E+02  0.45594000000E+02  0.51100000000E-03 0. -1.
         11   -1    0    0    0    0 -0.00000000000E+00 -0.00000000000E+00 -0.45593999997E+02  0.45594000000E+02  0.51100000000E-03 0.  1.
    9900012    2    1    2    0    0 -0.71995179438E+01 -0.41480949492E+02  0.10541390567E+02  0.47787272536E+02  0.20000006799E+02 0.  0.
        -12    1    1    2    0    0  0.71995179438E+01  0.41480949492E+02 -0.10541390567E+02  0.43400727464E+02  0.00000000000E+00 0.  1.
         11    1    3    3    0    0 -0.61314422493E+00  0.15566560730E+01  0.80799010717E+00  0.18579483966E+01  0.51100000000E-03 0. -1.
        -11    1    3    3    0    0 -0.15552488915E+00 -0.10816079129E+02 -0.20758113972E+01  0.11014569848E+02  0.51100000000E-03 0.  1.
         12    1    3    3    0    0 -0.64308488297E+01 -0.32221526436E+02  0.11809211857E+02  0.34914754291E+02  0.00000000000E+00 0. -1.
</event>
<event>
 7    1  0.3884463E-009  0.4778727E+02  0.7816164E-02  0.1312668E+00
        -11   -1    0    0    0    0  0.00000000000E+00  0.00000000000E+00  0.45593999997E+02  0.45594000000E+02  0.51100000000E-03 0.  1.
         11   -1    0    0    0    0 -0.00000000000E+00 -0.00000000000E+00 -0.45593999997E+02  0.45594000000E+02  0.51100000000E-03 0. -1.
    9900012    2    1    2    0    0  0.42664772548E+02 -0.77584740406E+01 -0.17737842946E+01  0.47787273661E+02  0.20000011931E+02 0.  0.
        -12    1    1    2    0    0 -0.42664772548E+02  0.77584740406E+01  0.17737842946E+01  0.43400726339E+02  0.00000000000E+00 0.  1.
         11    1    3    3    0    0  0.25324321599E+02 -0.30460321620E+01 -0.68825197550E+01  0.26419096405E+02  0.51100000000E-03 0. -1.
        -11    1    3    3    0    0  0.16052628437E+02 -0.47782591459E+01  0.68757042730E+00  0.16762797904E+02  0.51100000000E-03 0.  1.
        -12    1    3    3    0    0  0.12878225115E+01  0.65817267290E-01  0.44211650331E+01  0.46053793528E+01  0.00000000000E+00 0.  1.
</event>
<event>
 7    1  0.3884463E-009  0.4778727E+02  0.7816164E-02  0.1312668E+00
        -11   -1    0    0    0    0  0.00000000000E+00  0.00000000000E+00  0.45593999997E+02  0.45594000000E+02  0.51100000000E-03 0.  1.
         11   -1    0    0    0    0 -0.00000000000E+00 -0.00000000000E+00 -0.45593999997E+02  0.45594000000E+02  0.51100000000E-03 0. -1.
    9900012    2    1    2    0    0 -0.30203476922E+02 -0.13306334739E+02 -0.28183592100E+02  0.47787269291E+02  0.19999992007E+02 0.  0.
        -12    1    1    2    0    0  0.30203476922E+02  0.13306334739E+02  0.28183592100E+02  0.43400730709E+02  0.00000000000E+00 0.  1.
         11    1    3    3    0    0 -0.27953163859E+01 -0.42546705563E+01 -0.11102716893E+01  0.52104432370E+01  0.51100000000E-03 0.  1.
        -11    1    3    3    0    0  0.43859790196E+00  0.14893410449E+00 -0.70515983358E+01  0.70667948065E+01  0.51100000000E-03 0. -1.
         12    1    3    3    0    0 -0.27846758438E+02 -0.92005982875E+01 -0.20021722075E+02  0.35510031248E+02  0.00000000000E+00 0. -1.
</event>
<event>
 7    1  0.3884463E-009  0.4778727E+02  0.7816164E-02  0.1312668E+00
        -11   -1    0    0    0    0  0.00000000000E+00  0.00000000000E+00  0.45593999997E+02  0.45594000000E+02  0.51100000000E-03 0.  1.
         11   -1    0    0    0    0 -0.00000000000E+00 -0.00000000000E+00 -0.45593999997E+02  0.45594000000E+02  0.51100000000E-03 0. -1.
    9900012    2    1    2    0    0 -0.11543898892E+02 -0.32858599604E+02 -0.25897378413E+02  0.47787269842E+02  0.19999994518E+02 0.  0.
        -12    1    1    2    0    0  0.11543898892E+02  0.32858599604E+02  0.25897378413E+02  0.43400730158E+02  0.00000000000E+00 0.  1.
         11    1    3    3    0    0 -0.79635747516E+00 -0.12233761789E+00  0.19008633242E+00  0.82781930147E+00  0.51100000000E-03 0. -1.
        -11    1    3    3    0    0  0.42786778679E+00 -0.16291499946E+01  0.26633752334E+01  0.31513121780E+01  0.51100000000E-03 0.  1.
         12    1    3    3    0    0 -0.11175409204E+02 -0.31107111991E+02 -0.28750839979E+02  0.43808138363E+02  0.00000000000E+00 0. -1.
</event>
<event>
 7    1  0.3884463E-009  0.4778728E+02  0.7816164E-02  0.1312668E+00
        -11   -1    0    0    0    0  0.00000000000E+00  0.00000000000E+00  0.45593999997E+02  0.45594000000E+02  0.51100000000E-03 0.  1.
         11   -1    0    0    0    0 -0.00000000000E+00 -0.00000000000E+00 -0.45593999997E+02  0.45594000000E+02  0.51100000000E-03 0. -1.
    9900012    2    1    2    0    0  0.37164751361E+02  0.19653022938E+02  0.10777886337E+02  0.47787275487E+02  0.20000020256E+02 0.  0.
        -12    1    1    2    0    0 -0.37164751361E+02 -0.19653022938E+02 -0.10777886337E+02  0.43400724513E+02  0.00000000000E+00 0.  1.
         11    1    3    3    0    0  0.30618010761E+02  0.12921093403E+02  0.27312120797E+01  0.33344816050E+02  0.51100000000E-03 0. -1.
        -11    1    3    3    0    0  0.56104318792E+00  0.28903007496E+01 -0.83838710328E+00  0.30612907536E+01  0.51100000000E-03 0.  1.
         12    1    3    3    0    0  0.59856974119E+01  0.38416287860E+01  0.88850613601E+01  0.11381168684E+02  0.00000000000E+00 0. -1.
</event>
<event>
 7    1  0.3884463E-009  0.4778729E+02  0.7816164E-02  0.1312668E+00
        -11   -1    0    0    0    0  0.00000000000E+00  0.00000000000E+00  0.45593999997E+02  0.45594000000E+02  0.51100000000E-03 0.  1.
         11   -1    0    0    0    0 -0.00000000000E+00 -0.00000000000E+00 -0.45593999997E+02  0.45594000000E+02  0.51100000000E-03 0. -1.
    9900012    2    1    2    0    0 -0.14987609643E+02 -0.38101412745E+02  0.14397081137E+02  0.47787285245E+02  0.20000064745E+02 0.  0.
        -12    1    1    2    0    0  0.14987609643E+02  0.38101412745E+02 -0.14397081137E+02  0.43400714755E+02  0.00000000000E+00 0.  1.
         11    1    3    3    0    0 -0.46101774847E+01 -0.85807376548E+01  0.10679373928E+02  0.14454474148E+02  0.51100000000E-03 0. -1.
        -11    1    3    3    0    0 -0.37526823887E+01 -0.17211831930E+02  0.70304395418E+01  0.18967257680E+02  0.51100000000E-03 0.  1.
         12    1    3    3    0    0 -0.66247497699E+01 -0.12308843160E+02 -0.33127323326E+01  0.14365553417E+02  0.00000000000E+00 0. -1.
</event>
<event>
 7    1  0.3884463E-009  0.4778728E+02  0.7816164E-02  0.1312668E+00
        -11   -1    0    0    0    0  0.00000000000E+00  0.00000000000E+00  0.45593999997E+02  0.45594000000E+02  0.51100000000E-03 0.  1.
         11   -1    0    0    0    0 -0.00000000000E+00 -0.00000000000E+00 -0.45593999997E+02  0.45594000000E+02  0.51100000000E-03 0. -1.
    9900012    2    1    2    0    0 -0.18085761293E+02  0.27428451280E+02 -0.28358565299E+02  0.47787275041E+02  0.20000018222E+02 0.  0.
        -12    1    1    2    0    0  0.18085761293E+02 -0.27428451280E+02  0.28358565299E+02  0.43400724959E+02  0.00000000000E+00 0.  1.
         11    1    3    3    0    0 -0.62968050414E+01  0.50196176845E+01 -0.15140300373E+02  0.17148615427E+02  0.51100000000E-03 0. -1.
        -11    1    3    3    0    0  0.31820283276E+00  0.63805542128E+01 -0.72941579850E+01  0.96962604171E+01  0.51100000000E-03 0.  1.
        -12    1    3    3    0    0 -0.12107159085E+02  0.16028279382E+02 -0.59241069409E+01  0.20942399197E+02  0.00000000000E+00 0.  1.
</event>
<event>
 7    1  0.3884463E-009  0.4778727E+02  0.7816164E-02  0.1312668E+00
        -11   -1    0    0    0    0  0.00000000000E+00  0.00000000000E+00  0.45593999997E+02  0.45594000000E+02  0.51100000000E-03 0. -1.
         11   -1    0    0    0    0 -0.00000000000E+00 -0.00000000000E+00 -0.45593999997E+02  0.45594000000E+02  0.51100000000E-03 0.  1.
    9900012    2    1    2    0    0 -0.88654928934E+01  0.29524774199E+02  0.30550190482E+02  0.47787269658E+02  0.19999993680E+02 0.  0.
        -12    1    1    2    0    0  0.88654928934E+01 -0.29524774199E+02 -0.30550190482E+02  0.43400730342E+02  0.00000000000E+00 0.  1.
         11    1    3    3    0    0 -0.14393613326E+02  0.24999700346E+02  0.21660875020E+02  0.36074293186E+02  0.51100000000E-03 0. -1.
        -11    1    3    3    0    0  0.22739349103E+01  0.35753916883E+01  0.49484725555E+01  0.65147207611E+01  0.51100000000E-03 0.  1.
         12    1    3    3    0    0  0.32541855225E+01  0.94968216458E+00  0.39408429065E+01  0.51982557115E+01  0.00000000000E+00 0. -1.
</event>
<event>
 7    1  0.3884463E-009  0.4778727E+02  0.7816164E-02  0.1312668E+00
        -11   -1    0    0    0    0  0.00000000000E+00  0.00000000000E+00  0.45593999997E+02  0.45594000000E+02  0.51100000000E-03 0. -1.
         11   -1    0    0    0    0 -0.00000000000E+00 -0.00000000000E+00 -0.45593999997E+02  0.45594000000E+02  0.51100000000E-03 0.  1.
    9900012    2    1    2    0    0 -0.41391854335E+02  0.89961094413E+01  0.94555665970E+01  0.47787270397E+02  0.19999997050E+02 0.  0.
        -12    1    1    2    0    0  0.41391854335E+02 -0.89961094413E+01 -0.94555665970E+01  0.43400729603E+02  0.00000000000E+00 0.  1.
         11    1    3    3    0    0 -0.13153730188E+02  0.98959896425E+01  0.11269904939E+01  0.16499131393E+02  0.51100000000E-03 0.  1.
        -11    1    3    3    0    0 -0.14555485619E+02  0.26365878542E+01 -0.17757088663E+00  0.14793420457E+02  0.51100000000E-03 0. -1.
         12    1    3    3    0    0 -0.13682638527E+02 -0.35364680554E+01  0.85061469897E+01  0.16494718548E+02  0.00000000000E+00 0. -1.
</event>
<event>
 7    1  0.3884463E-009  0.4778727E+02  0.7816164E-02  0.1312668E+00
        -11   -1    0    0    0    0  0.00000000000E+00  0.00000000000E+00  0.45593999997E+02  0.45594000000E+02  0.51100000000E-03 0. -1.
         11   -1    0    0    0    0 -0.00000000000E+00 -0.00000000000E+00 -0.45593999997E+02  0.45594000000E+02  0.51100000000E-03 0.  1.
    9900012    2    1    2    0    0  0.36645766232E+02  0.20317752448E+02  0.11309293605E+02  0.47787269947E+02  0.19999994996E+02 0.  0.
        -12    1    1    2    0    0 -0.36645766232E+02 -0.20317752448E+02 -0.11309293605E+02  0.43400730053E+02  0.00000000000E+00 0.  1.
         11    1    3    3    0    0  0.42496575883E+01  0.20370461092E+01  0.67722297909E+01  0.82505904680E+01  0.51100000000E-03 0.  1.
        -11    1    3    3    0    0  0.23684309636E+02  0.10468814396E+02  0.83855225862E+01  0.27218735957E+02  0.51100000000E-03 0. -1.
         12    1    3    3    0    0  0.87117990078E+01  0.78118919430E+01 -0.38484587722E+01  0.12317943522E+02  0.00000000000E+00 0. -1.
</event>
<event>
 7    1  0.3884463E-009  0.4778727E+02  0.7816164E-02  0.1312668E+00
        -11   -1    0    0    0    0  0.00000000000E+00  0.00000000000E+00  0.45593999997E+02  0.45594000000E+02  0.51100000000E-03 0.  1.
         11   -1    0    0    0    0 -0.00000000000E+00 -0.00000000000E+00 -0.45593999997E+02  0.45594000000E+02  0.51100000000E-03 0. -1.
    9900012    2    1    2    0    0 -0.39799816376E+02 -0.11421742892E+02 -0.13005448260E+02  0.47787270989E+02  0.19999999747E+02 0.  0.
        -12    1    1    2    0    0  0.39799816376E+02  0.11421742892E+02  0.13005448260E+02  0.43400729011E+02  0.00000000000E+00 0.  1.
         11    1    3    3    0    0 -0.38168026201E+01 -0.31160124808E+01 -0.71412548980E+00  0.49787037969E+01  0.51100000000E-03 0.  1.
        -11    1    3    3    0    0 -0.62622150424E+01 -0.85228046946E+01 -0.68289182772E+01  0.12589188306E+02  0.51100000000E-03 0. -1.
         12    1    3    3    0    0 -0.29720798714E+02  0.21707428367E+00 -0.54624044928E+01  0.30219378886E+02  0.00000000000E+00 0. -1.
</event>
<event>
 7    1  0.3884463E-009  0.4778727E+02  0.7816164E-02  0.1312668E+00
        -11   -1    0    0    0    0  0.00000000000E+00  0.00000000000E+00  0.45593999997E+02  0.45594000000E+02  0.51100000000E-03 0.  1.
         11   -1    0    0    0    0 -0.00000000000E+00 -0.00000000000E+00 -0.45593999997E+02  0.45594000000E+02  0.51100000000E-03 0. -1.
    9900012    2    1    2    0    0 -0.29897741773E+02  0.30129591758E+02  0.90529581620E+01  0.47787270581E+02  0.19999997886E+02 0.  0.
        -12    1    1    2    0    0  0.29897741773E+02 -0.30129591758E+02 -0.90529581620E+01  0.43400729419E+02  0.00000000000E+00 0.  1.
         11    1    3    3    0    0 -0.84170021761E+01  0.63479349140E+00 -0.29212216979E+01  0.89321008099E+01  0.51100000000E-03 0. -1.
        -11    1    3    3    0    0 -0.97226183664E+01  0.15015695812E+02  0.87966396596E+01  0.19934424952E+02  0.51100000000E-03 0.  1.
         12    1    3    3    0    0 -0.11758121231E+02  0.14479102455E+02  0.31775402003E+01  0.18920744819E+02  0.00000000000E+00 0. -1.
</event>
<event>
 7    1  0.3884463E-009  0.4778728E+02  0.7816164E-02  0.1312668E+00
        -11   -1    0    0    0    0  0.00000000000E+00  0.00000000000E+00  0.45593999997E+02  0.45594000000E+02  0.51100000000E-03 0.  1.
         11   -1    0    0    0    0 -0.00000000000E+00 -0.00000000000E+00 -0.45593999997E+02  0.45594000000E+02  0.51100000000E-03 0. -1.
    9900012    2    1    2    0    0  0.23158218340E+02 -0.29941277476E+02 -0.21232986346E+02  0.47787275550E+02  0.20000020545E+02 0.  0.
        -12    1    1    2    0    0 -0.23158218340E+02  0.29941277476E+02  0.21232986346E+02  0.43400724450E+02  0.00000000000E+00 0.  1.
         11    1    3    3    0    0  0.14123976274E+02 -0.11013196746E+02 -0.66029164484E+01  0.19088627878E+02  0.51100000000E-03 0. -1.
        -11    1    3    3    0    0  0.96453983909E+01 -0.52191338571E+01 -0.65325546923E+01  0.12765082820E+02  0.51100000000E-03 0.  1.
         12    1    3    3    0    0 -0.61115632516E+00 -0.13708946872E+02 -0.80975152056E+01  0.15933564853E+02  0.00000000000E+00 0. -1.
</event>
<event>
 7    1  0.3884463E-009  0.4778726E+02  0.7816164E-02  0.1312668E+00
        -11   -1    0    0    0    0  0.00000000000E+00  0.00000000000E+00  0.45593999997E+02  0.45594000000E+02  0.51100000000E-03 0. -1.
         11   -1    0    0    0    0 -0.00000000000E+00 -0.00000000000E+00 -0.45593999997E+02  0.45594000000E+02  0.51100000000E-03 0.  1.
    9900012    2    1    2    0    0  0.81720075217E+01  0.42528700441E+02  0.28551874634E+01  0.47787260795E+02  0.19999953268E+02 0.  0.
        -12    1    1    2    0    0 -0.81720075217E+01 -0.42528700441E+02 -0.28551874634E+01  0.43400739205E+02  0.00000000000E+00 0.  1.
         11    1    3    3    0    0  0.18377327650E+01  0.59198162247E+00  0.34945196288E+01  0.39924142638E+01  0.51100000000E-03 0. -1.
        -11    1    3    3    0    0  0.55215662279E+01  0.10655874927E+02 -0.31347186068E+01  0.12404105170E+02  0.51100000000E-03 0.  1.
         12    1    3    3    0    0  0.81270852879E+00  0.31280843891E+02  0.24953864414E+01  0.31390741361E+02  0.00000000000E+00 0. -1.
</event>
<event>
 7    1  0.3884463E-009  0.4778727E+02  0.7816164E-02  0.1312668E+00
        -11   -1    0    0    0    0  0.00000000000E+00  0.00000000000E+00  0.45593999997E+02  0.45594000000E+02  0.51100000000E-03 0.  1.
         11   -1    0    0    0    0 -0.00000000000E+00 -0.00000000000E+00 -0.45593999997E+02  0.45594000000E+02  0.51100000000E-03 0. -1.
    9900012    2    1    2    0    0  0.33582947432E+02 -0.19139536088E+02 -0.19735424130E+02  0.47787272293E+02  0.20000005694E+02 0.  0.
        -12    1    1    2    0    0 -0.33582947432E+02  0.19139536088E+02  0.19735424130E+02  0.43400727707E+02  0.00000000000E+00 0.  1.
         11    1    3    3    0    0  0.13320555443E+02 -0.40959700812E+01 -0.76312053587E+01  0.15888658336E+02  0.51100000000E-03 0. -1.
        -11    1    3    3    0    0  0.69465433458E+01  0.13724956646E+01 -0.74037045455E+01  0.10244659587E+02  0.51100000000E-03 0.  1.
        -12    1    3    3    0    0  0.13315848643E+02 -0.16416061671E+02 -0.47005142258E+01  0.21653954370E+02  0.00000000000E+00 0.  1.
</event>
<event>
 7    1  0.3884463E-009  0.4778727E+02  0.7816164E-02  0.1312668E+00
        -11   -1    0    0    0    0  0.00000000000E+00  0.00000000000E+00  0.45593999997E+02  0.45594000000E+02  0.51100000000E-03 0. -1.
         11   -1    0    0    0    0 -0.00000000000E+00 -0.00000000000E+00 -0.45593999997E+02  0.45594000000E+02  0.51100000000E-03 0.  1.
    9900012    2    1    2    0    0  0.39168002221E+02  0.15850801079E+02  0.99117678689E+01  0.47787269187E+02  0.19999991531E+02 0.  0.
        -12    1    1    2    0    0 -0.39168002221E+02 -0.15850801079E+02 -0.99117678689E+01  0.43400730813E+02  0.00000000000E+00 0.  1.
         11    1    3    3    0    0  0.26915946029E+02  0.26328487748E+01  0.48581666838E+01  0.27477296575E+02  0.51100000000E-03 0. -1.
        -11    1    3    3    0    0  0.56418478715E+01  0.25672040445E+01 -0.11808009899E+01  0.63099346470E+01  0.51100000000E-03 0.  1.
         12    1    3    3    0    0  0.66102083208E+01  0.10650748259E+02  0.62344021749E+01  0.14000037965E+02  0.00000000000E+00 0. -1.
</event>
<event>
 7    1  0.3884463E-009  0.4778727E+02  0.7816164E-02  0.1312668E+00
        -11   -1    0    0    0    0  0.00000000000E+00  0.00000000000E+00  0.45593999997E+02  0.45594000000E+02  0.51100000000E-03 0.  1.
         11   -1    0    0    0    0 -0.00000000000E+00 -0.00000000000E+00 -0.45593999997E+02  0.45594000000E+02  0.51100000000E-03 0. -1.
    9900012    2    1    2    0    0 -0.40648111200E+02  0.12799909538E+02 -0.82168630570E+01  0.47787268822E+02  0.19999989866E+02 0.  0.
        -12    1    1    2    0    0  0.40648111200E+02 -0.12799909538E+02  0.82168630570E+01  0.43400731178E+02  0.00000000000E+00 0.  1.
         11    1    3    3    0    0 -0.98576181676E+01  0.12479993447E+01 -0.53162053996E+01  0.11269080637E+02  0.51100000000E-03 0. -1.
        -11    1    3    3    0    0 -0.25558519360E+02  0.11448514009E+02 -0.80878292915E+01  0.29149946274E+02  0.51100000000E-03 0.  1.
        -12    1    3    3    0    0 -0.52319736728E+01  0.10339618381E+00  0.51871716341E+01  0.73682419101E+01  0.00000000000E+00 0.  1.
</event>
<event>
 7    1  0.3884463E-009  0.4778727E+02  0.7816164E-02  0.1312668E+00
        -11   -1    0    0    0    0  0.00000000000E+00  0.00000000000E+00  0.45593999997E+02  0.45594000000E+02  0.51100000000E-03 0.  1.
         11   -1    0    0    0    0 -0.00000000000E+00 -0.00000000000E+00 -0.45593999997E+02  0.45594000000E+02  0.51100000000E-03 0. -1.
    9900012    2    1    2    0    0  0.16944069195E+02  0.39920101928E+02 -0.17050364559E+01  0.47787272263E+02  0.20000005554E+02 0.  0.
        -12    1    1    2    0    0 -0.16944069195E+02 -0.39920101928E+02  0.17050364559E+01  0.43400727737E+02  0.00000000000E+00 0.  1.
         11    1    3    3    0    0 -0.97904467286E+00  0.77695304425E+00 -0.13112737077E+01  0.18115251867E+01  0.51100000000E-03 0. -1.
        -11    1    3    3    0    0  0.16881930119E+02  0.38319175618E+02 -0.40667356413E+01  0.42070145276E+02  0.51100000000E-03 0.  1.
        -12    1    3    3    0    0  0.10411837492E+01  0.82397326611E+00  0.36729728931E+01  0.39056017995E+01  0.00000000000E+00 0.  1.
</event>
<event>
 7    1  0.3884463E-009  0.4778727E+02  0.7816164E-02  0.1312668E+00
        -11   -1    0    0    0    0  0.00000000000E+00  0.00000000000E+00  0.45593999997E+02  0.45594000000E+02  0.51100000000E-03 0.  1.
         11   -1    0    0    0    0 -0.00000000000E+00 -0.00000000000E+00 -0.45593999997E+02  0.45594000000E+02  0.51100000000E-03 0. -1.
    9900012    2    1    2    0    0 -0.96925321315E+01 -0.41873261301E+02  0.60256512731E+01  0.47787266546E+02  0.19999979489E+02 0.  0.
        -12    1    1    2    0    0  0.96925321315E+01  0.41873261301E+02 -0.60256512731E+01  0.43400733454E+02  0.00000000000E+00 0.  1.
         11    1    3    3    0    0 -0.17719243908E+01 -0.18465566154E+02 -0.47617530950E+01  0.19151792142E+02  0.51100000000E-03 0.  1.
        -11    1    3    3    0    0 -0.68244654614E+01 -0.10316302232E+02  0.13141405834E+01  0.12438906154E+02  0.51100000000E-03 0. -1.
        -12    1    3    3    0    0 -0.10961422793E+01 -0.13091392915E+02  0.94732637847E+01  0.16196568250E+02  0.00000000000E+00 0.  1.
</event>
<event>
 7    1  0.3884463E-009  0.4778727E+02  0.7816164E-02  0.1312668E+00
        -11   -1    0    0    0    0  0.00000000000E+00  0.00000000000E+00  0.45593999997E+02  0.45594000000E+02  0.51100000000E-03 0.  1.
         11   -1    0    0    0    0 -0.00000000000E+00 -0.00000000000E+00 -0.45593999997E+02  0.45594000000E+02  0.51100000000E-03 0. -1.
    9900012    2    1    2    0    0  0.11608135945E+02  0.41491126441E+02 -0.52307491020E+01  0.47787272706E+02  0.20000007577E+02 0.  0.
        -12    1    1    2    0    0 -0.11608135945E+02 -0.41491126441E+02  0.52307491020E+01  0.43400727294E+02  0.00000000000E+00 0.  1.
         11    1    3    3    0    0  0.68741803625E+01  0.65586877138E+01 -0.17311721716E+01  0.96575202579E+01  0.51100000000E-03 0. -1.
        -11    1    3    3    0    0  0.17003039530E+01  0.25956669675E+00  0.22714811615E+01  0.28492166171E+01  0.51100000000E-03 0.  1.
        -12    1    3    3    0    0  0.30336516300E+01  0.34672872030E+02 -0.57710580919E+01  0.35280535831E+02  0.00000000000E+00 0.  1.
</event>
<event>
 7    1  0.3884463E-009  0.4778727E+02  0.7816164E-02  0.1312668E+00
        -11   -1    0    0    0    0  0.00000000000E+00  0.00000000000E+00  0.45593999997E+02  0.45594000000E+02  0.51100000000E-03 0.  1.
         11   -1    0    0    0    0 -0.00000000000E+00 -0.00000000000E+00 -0.45593999997E+02  0.45594000000E+02  0.51100000000E-03 0. -1.
    9900012    2    1    2    0    0  0.22238587488E+02 -0.31317784054E+02 -0.20205565835E+02  0.47787271179E+02  0.20000000613E+02 0.  0.
        -12    1    1    2    0    0 -0.22238587488E+02  0.31317784054E+02  0.20205565835E+02  0.43400728821E+02  0.00000000000E+00 0.  1.
         11    1    3    3    0    0  0.28784255568E+01  0.15350071824E+01 -0.21993777714E+01  0.39343161514E+01  0.51100000000E-03 0. -1.
        -11    1    3    3    0    0  0.48919266717E+01 -0.13298079631E+02 -0.12539271548E+02  0.18920972481E+02  0.51100000000E-03 0.  1.
         12    1    3    3    0    0  0.14468235259E+02 -0.19554711606E+02 -0.54669165160E+01  0.24931982546E+02  0.00000000000E+00 0. -1.
</event>
<event>
 7    1  0.3884463E-009  0.4778726E+02  0.7816164E-02  0.1312668E+00
        -11   -1    0    0    0    0  0.00000000000E+00  0.00000000000E+00  0.45593999997E+02  0.45594000000E+02  0.51100000000E-03 0.  1.
         11   -1    0    0    0    0 -0.00000000000E+00 -0.00000000000E+00 -0.45593999997E+02  0.45594000000E+02  0.51100000000E-03 0. -1.
    9900012    2    1    2    0    0  0.43830040291E+01  0.40229828231E+02  0.15683561042E+02  0.47787263937E+02  0.19999967596E+02 0.  0.
        -12    1    1    2    0    0 -0.43830040291E+01 -0.40229828231E+02 -0.15683561042E+02  0.43400736063E+02  0.00000000000E+00 0.  1.
         11    1    3    3    0    0  0.26531268590E+01  0.41556771212E+00 -0.49309716052E+00  0.27303706202E+01  0.51100000000E-03 0.  1.
        -11    1    3    3    0    0  0.69257377094E+01  0.14430523594E+02  0.79512279670E+01  0.17872545438E+02  0.51100000000E-03 0. -1.
         12    1    3    3    0    0 -0.51958605392E+01  0.25383736925E+02  0.82254302359E+01  0.27184347879E+02  0.00000000000E+00 0. -1.
</event>
<event>
 7    1  0.3884463E-009  0.4778726E+02  0.7816164E-02  0.1312668E+00
        -11   -1    0    0    0    0  0.00000000000E+00  0.00000000000E+00  0.45593999997E+02  0.45594000000E+02  0.51100000000E-03 0. -1.
         11   -1    0    0    0    0 -0.00000000000E+00 -0.00000000000E+00 -0.45593999997E+02  0.45594000000E+02  0.51100000000E-03 0.  1.
    9900012    2    1    2    0    0 -0.22677791695E+02  0.17269506246E+02  0.32727755069E+02  0.47787262287E+02  0.19999960073E+02 0.  0.
        -12    1    1    2    0    0  0.22677791695E+02 -0.17269506246E+02 -0.32727755069E+02  0.43400737713E+02  0.00000000000E+00 0.  1.
         11    1    3    3    0    0 -0.12960765323E+02  0.81316072646E+01  0.15552623811E+02  0.21817162559E+02  0.51100000000E-03 0. -1.
        -11    1    3    3    0    0 -0.52743350252E+01  0.11986197383E+02  0.15790615571E+02  0.20514167739E+02  0.51100000000E-03 0.  1.
        -12    1    3    3    0    0 -0.44426913461E+01 -0.28482984014E+01  0.13845156872E+01  0.54559319889E+01  0.00000000000E+00 0.  1.
</event>
<event>
 7    1  0.3884463E-009  0.4778726E+02  0.7816164E-02  0.1312668E+00
        -11   -1    0    0    0    0  0.00000000000E+00  0.00000000000E+00  0.45593999997E+02  0.45594000000E+02  0.51100000000E-03 0.  1.
         11   -1    0    0    0    0 -0.00000000000E+00 -0.00000000000E+00 -0.45593999997E+02  0.45594000000E+02  0.51100000000E-03 0. -1.
    9900012    2    1    2    0    0 -0.18002803706E+02 -0.30135167694E+02 -0.25522436519E+02  0.47787262229E+02  0.19999959807E+02 0.  0.
        -12    1    1    2    0    0  0.18002803706E+02  0.30135167694E+02  0.25522436519E+02  0.43400737771E+02  0.00000000000E+00 0.  1.
         11    1    3    3    0    0 -0.87166607570E+01 -0.29434493968E+02 -0.21774647989E+02  0.37636483699E+02  0.51100000000E-03 0. -1.
        -11    1    3    3    0    0 -0.15574783051E+01  0.20757517515E-01 -0.12480284808E+01  0.19959320869E+01  0.51100000000E-03 0.  1.
         12    1    3    3    0    0 -0.77286646436E+01 -0.72143124332E+00 -0.24997600495E+01  0.81548464435E+01  0.00000000000E+00 0. -1.
</event>
<event>
 7    1  0.3884463E-009  0.4778727E+02  0.7816164E-02  0.1312668E+00
        -11   -1    0    0    0    0  0.00000000000E+00  0.00000000000E+00  0.45593999997E+02  0.45594000000E+02  0.51100000000E-03 0.  1.
         11   -1    0    0    0    0 -0.00000000000E+00 -0.00000000000E+00 -0.45593999997E+02  0.45594000000E+02  0.51100000000E-03 0. -1.
    9900012    2    1    2    0    0  0.28004588865E+02 -0.26601030243E+02 -0.19792714364E+02  0.47787270175E+02  0.19999996034E+02 0.  0.
        -12    1    1    2    0    0 -0.28004588865E+02  0.26601030243E+02  0.19792714364E+02  0.43400729825E+02  0.00000000000E+00 0.  1.
         11    1    3    3    0    0  0.49320434142E+01 -0.88158056317E+01 -0.12223547363E+02  0.15857445934E+02  0.51100000000E-03 0.  1.
        -11    1    3    3    0    0  0.15152377956E+02 -0.14846343355E+02 -0.95326122291E+01  0.23256809000E+02  0.51100000000E-03 0. -1.
         12    1    3    3    0    0  0.79201674949E+01 -0.29388812571E+01  0.19634452274E+01  0.86730152399E+01  0.00000000000E+00 0. -1.
</event>
<event>
 7    1  0.3884463E-009  0.4778727E+02  0.7816164E-02  0.1312668E+00
        -11   -1    0    0    0    0  0.00000000000E+00  0.00000000000E+00  0.45593999997E+02  0.45594000000E+02  0.51100000000E-03 0.  1.
         11   -1    0    0    0    0 -0.00000000000E+00 -0.00000000000E+00 -0.45593999997E+02  0.45594000000E+02  0.51100000000E-03 0. -1.
    9900012    2    1    2    0    0  0.23594372602E+02 -0.14862622534E+02 -0.33257051452E+02  0.47787269149E+02  0.19999991360E+02 0.  0.
        -12    1    1    2    0    0 -0.23594372602E+02  0.14862622534E+02  0.33257051452E+02  0.43400730851E+02  0.00000000000E+00 0.  1.
         11    1    3    3    0    0  0.99718650475E+01  0.14399017514E+01 -0.12548589167E+02  0.16092808951E+02  0.51100000000E-03 0. -1.
        -11    1    3    3    0    0  0.11938921857E+02 -0.10975762093E+02 -0.85936497467E+01  0.18353637919E+02  0.51100000000E-03 0.  1.
         12    1    3    3    0    0  0.16835856975E+01 -0.53267621923E+01 -0.12114812538E+02  0.13340822280E+02  0.00000000000E+00 0. -1.
</event>
<event>
 7    1  0.3884463E-009  0.4778726E+02  0.7816164E-02  0.1312668E+00
        -11   -1    0    0    0    0  0.00000000000E+00  0.00000000000E+00  0.45593999997E+02  0.45594000000E+02  0.51100000000E-03 0.  1.
         11   -1    0    0    0    0 -0.00000000000E+00 -0.00000000000E+00 -0.45593999997E+02  0.45594000000E+02  0.51100000000E-03 0. -1.
    9900012    2    1    2    0    0 -0.31276718519E+02  0.14929302110E+02 -0.26124830663E+02  0.47787263140E+02  0.19999963960E+02 0.  0.
        -12    1    1    2    0    0  0.31276718519E+02 -0.14929302110E+02  0.26124830663E+02  0.43400736860E+02  0.00000000000E+00 0.  1.
         11    1    3    3    0    0 -0.14392693326E+02  0.14272689740E+02 -0.16300217369E+02  0.26010697418E+02  0.51100000000E-03 0. -1.
        -11    1    3    3    0    0  0.25668531889E+00  0.18552734603E+01 -0.24359305593E+01  0.30727324836E+01  0.51100000000E-03 0.  1.
        -12    1    3    3    0    0 -0.17140710512E+02 -0.11986610906E+01 -0.73886827347E+01  0.18703833239E+02  0.00000000000E+00 0.  1.
</event>
<event>
 7    1  0.3884463E-009  0.4778727E+02  0.7816164E-02  0.1312668E+00
        -11   -1    0    0    0    0  0.00000000000E+00  0.00000000000E+00  0.45593999997E+02  0.45594000000E+02  0.51100000000E-03 0.  1.
         11   -1    0    0    0    0 -0.00000000000E+00 -0.00000000000E+00 -0.45593999997E+02  0.45594000000E+02  0.51100000000E-03 0. -1.
    9900012    2    1    2    0    0  0.15951087547E+02 -0.19541291952E+02 -0.35317470299E+02  0.47787274275E+02  0.20000014730E+02 0.  0.
        -12    1    1    2    0    0 -0.15951087547E+02  0.19541291952E+02  0.35317470299E+02  0.43400725725E+02  0.00000000000E+00 0.  1.
         11    1    3    3    0    0  0.13762789059E+02 -0.14703644387E+02 -0.24725620154E+02  0.31889932788E+02  0.51100000000E-03 0. -1.
        -11    1    3    3    0    0  0.45657145567E+01 -0.38784405728E+01 -0.11668760891E+02  0.13116708111E+02  0.51100000000E-03 0.  1.
        -12    1    3    3    0    0 -0.23774160684E+01 -0.95920699280E+00  0.10769107457E+01  0.27806333760E+01  0.00000000000E+00 0.  1.
</event>
<event>
 7    1  0.3884463E-009  0.4778727E+02  0.7816164E-02  0.1312668E+00
        -11   -1    0    0    0    0  0.00000000000E+00  0.00000000000E+00  0.45593999997E+02  0.45594000000E+02  0.51100000000E-03 0. -1.
         11   -1    0    0    0    0 -0.00000000000E+00 -0.00000000000E+00 -0.45593999997E+02  0.45594000000E+02  0.51100000000E-03 0.  1.
    9900012    2    1    2    0    0  0.16570872451E+02 -0.31175871490E+02  0.25240727042E+02  0.47787273294E+02  0.20000010259E+02 0.  0.
        -12    1    1    2    0    0 -0.16570872451E+02  0.31175871490E+02 -0.25240727042E+02  0.43400726706E+02  0.00000000000E+00 0.  1.
         11    1    3    3    0    0 -0.10114173259E+01  0.31533814215E+00  0.62594747278E+00  0.12305338885E+01  0.51100000000E-03 0. -1.
        -11    1    3    3    0    0 -0.18044045626E+01 -0.42920962330E+01  0.79884964482E+01  0.92462988089E+01  0.51100000000E-03 0.  1.
         12    1    3    3    0    0  0.19386694339E+02 -0.27199113399E+02  0.16626283121E+02  0.37310440597E+02  0.00000000000E+00 0. -1.
</event>
<event>
 7    1  0.3884463E-009  0.4778727E+02  0.7816164E-02  0.1312668E+00
        -11   -1    0    0    0    0  0.00000000000E+00  0.00000000000E+00  0.45593999997E+02  0.45594000000E+02  0.51100000000E-03 0. -1.
         11   -1    0    0    0    0 -0.00000000000E+00 -0.00000000000E+00 -0.45593999997E+02  0.45594000000E+02  0.51100000000E-03 0.  1.
    9900012    2    1    2    0    0  0.27713761846E+02 -0.29527815975E+02 -0.15610209903E+02  0.47787272298E+02  0.20000005713E+02 0.  0.
        -12    1    1    2    0    0 -0.27713761846E+02  0.29527815975E+02  0.15610209903E+02  0.43400727702E+02  0.00000000000E+00 0.  1.
         11    1    3    3    0    0  0.38959091541E+01 -0.23415102428E+01  0.10194824357E+01  0.46583390873E+01  0.51100000000E-03 0. -1.
        -11    1    3    3    0    0  0.85581870156E+01 -0.83872877570E+01 -0.14517584022E+02  0.18824170819E+02  0.51100000000E-03 0.  1.
         12    1    3    3    0    0  0.15259665676E+02 -0.18799017975E+02 -0.21121083170E+01  0.24304762391E+02  0.00000000000E+00 0. -1.
</event>
<event>
 7    1  0.3884463E-009  0.4778727E+02  0.7816164E-02  0.1312668E+00
        -11   -1    0    0    0    0  0.00000000000E+00  0.00000000000E+00  0.45593999997E+02  0.45594000000E+02  0.51100000000E-03 0.  1.
         11   -1    0    0    0    0 -0.00000000000E+00 -0.00000000000E+00 -0.45593999997E+02  0.45594000000E+02  0.51100000000E-03 0. -1.
    9900012    2    1    2    0    0 -0.81746370108E+01 -0.42124510169E+02 -0.65057237458E+01  0.47787268569E+02  0.19999988715E+02 0.  0.
        -12    1    1    2    0    0  0.81746370108E+01  0.42124510169E+02  0.65057237458E+01  0.43400731431E+02  0.00000000000E+00 0.  1.
         11    1    3    3    0    0 -0.66009824158E+01 -0.14151098239E+02 -0.40208125485E+01  0.16124313444E+02  0.51100000000E-03 0. -1.
        -11    1    3    3    0    0 -0.36591349874E+01 -0.46211139452E+01  0.42531901453E+01  0.72686717923E+01  0.51100000000E-03 0.  1.
        -12    1    3    3    0    0  0.20854803924E+01 -0.23352297985E+02 -0.67381013425E+01  0.24394283333E+02  0.00000000000E+00 0.  1.
</event>
<event>
 7    1  0.3884463E-009  0.4778727E+02  0.7816164E-02  0.1312668E+00
        -11   -1    0    0    0    0  0.00000000000E+00  0.00000000000E+00  0.45593999997E+02  0.45594000000E+02  0.51100000000E-03 0. -1.
         11   -1    0    0    0    0 -0.00000000000E+00 -0.00000000000E+00 -0.45593999997E+02  0.45594000000E+02  0.51100000000E-03 0.  1.
    9900012    2    1    2    0    0  0.39916589564E+02  0.20448783268E+01  0.16914718048E+02  0.47787270324E+02  0.19999996716E+02 0.  0.
        -12    1    1    2    0    0 -0.39916589564E+02 -0.20448783268E+01 -0.16914718048E+02  0.43400729676E+02  0.00000000000E+00 0.  1.
         11    1    3    3    0    0  0.15670536391E+01 -0.87777020335E+00  0.25045556517E+01  0.30820345409E+01  0.51100000000E-03 0. -1.
        -11    1    3    3    0    0  0.38337557765E+02  0.62747348099E+01  0.14144706829E+02  0.41342633731E+02  0.51100000000E-03 0.  1.
        -12    1    3    3    0    0  0.11978159830E-01 -0.33520862797E+01  0.26545556719E+00  0.33626020522E+01  0.00000000000E+00 0.  1.
</event>
<event>
 7    1  0.3884463E-009  0.4778727E+02  0.7816164E-02  0.1312668E+00
        -11   -1    0    0    0    0  0.00000000000E+00  0.00000000000E+00  0.45593999997E+02  0.45594000000E+02  0.51100000000E-03 0. -1.
         11   -1    0    0    0    0 -0.00000000000E+00 -0.00000000000E+00 -0.45593999997E+02  0.45594000000E+02  0.51100000000E-03 0.  1.
    9900012    2    1    2    0    0  0.33199467480E+02 -0.26338477031E+02 -0.93650058971E+01  0.47787270182E+02  0.19999996069E+02 0.  0.
        -12    1    1    2    0    0 -0.33199467480E+02  0.26338477031E+02  0.93650058971E+01  0.43400729818E+02  0.00000000000E+00 0.  1.
         11    1    3    3    0    0  0.90082968545E+01 -0.10482999938E+02 -0.50764250404E+01  0.14724564217E+02  0.51100000000E-03 0. -1.
        -11    1    3    3    0    0  0.68153283137E+00 -0.36303541460E+01  0.38572890082E+01  0.53406588526E+01  0.51100000000E-03 0.  1.
        -12    1    3    3    0    0  0.23509637794E+02 -0.12225122947E+02 -0.81458698649E+01  0.27722047113E+02  0.00000000000E+00 0.  1.
</event>
<event>
 7    1  0.3884463E-009  0.4778727E+02  0.7816164E-02  0.1312668E+00
        -11   -1    0    0    0    0  0.00000000000E+00  0.00000000000E+00  0.45593999997E+02  0.45594000000E+02  0.51100000000E-03 0.  1.
         11   -1    0    0    0    0 -0.00000000000E+00 -0.00000000000E+00 -0.45593999997E+02  0.45594000000E+02  0.51100000000E-03 0. -1.
    9900012    2    1    2    0    0  0.25940911134E+01  0.13602186555E+02 -0.41132402526E+02  0.47787270451E+02  0.19999997294E+02 0.  0.
        -12    1    1    2    0    0 -0.25940911134E+01 -0.13602186555E+02  0.41132402526E+02  0.43400729549E+02  0.00000000000E+00 0.  1.
         11    1    3    3    0    0 -0.66089669277E+01  0.22926825567E+01 -0.12345770524E+02  0.14189886795E+02  0.51100000000E-03 0. -1.
        -11    1    3    3    0    0  0.13596578740E+01 -0.16201669123E+01 -0.47441244738E+01  0.51942591042E+01  0.51100000000E-03 0.  1.
         12    1    3    3    0    0  0.78434001671E+01  0.12929670911E+02 -0.24042507529E+02  0.28403124552E+02  0.00000000000E+00 0. -1.
</event>
<event>
 7    1  0.3884463E-009  0.4778727E+02  0.7816164E-02  0.1312668E+00
        -11   -1    0    0    0    0  0.00000000000E+00  0.00000000000E+00  0.45593999997E+02  0.45594000000E+02  0.51100000000E-03 0.  1.
         11   -1    0    0    0    0 -0.00000000000E+00 -0.00000000000E+00 -0.45593999997E+02  0.45594000000E+02  0.51100000000E-03 0. -1.
    9900012    2    1    2    0    0  0.64941678348E+01  0.40809093422E+02 -0.13269016777E+02  0.47787272725E+02  0.20000007663E+02 0.  0.
        -12    1    1    2    0    0 -0.64941678348E+01 -0.40809093422E+02  0.13269016777E+02  0.43400727275E+02  0.00000000000E+00 0.  1.
         11    1    3    3    0    0  0.78372146832E+01  0.23132194940E+02 -0.32233155445E+01  0.24635546271E+02  0.51100000000E-03 0. -1.
        -11    1    3    3    0    0  0.28852440061E+01  0.94118356495E+01 -0.53147330926E+00  0.98584860606E+01  0.51100000000E-03 0.  1.
         12    1    3    3    0    0 -0.42282908546E+01  0.82650628325E+01 -0.95142279236E+01  0.13293240393E+02  0.00000000000E+00 0. -1.
</event>
<event>
 7    1  0.3884463E-009  0.4778727E+02  0.7816164E-02  0.1312668E+00
        -11   -1    0    0    0    0  0.00000000000E+00  0.00000000000E+00  0.45593999997E+02  0.45594000000E+02  0.51100000000E-03 0. -1.
         11   -1    0    0    0    0 -0.00000000000E+00 -0.00000000000E+00 -0.45593999997E+02  0.45594000000E+02  0.51100000000E-03 0.  1.
    9900012    2    1    2    0    0 -0.21984483013E+02 -0.16071578758E+02  0.33793641790E+02  0.47787270023E+02  0.19999995342E+02 0.  0.
        -12    1    1    2    0    0  0.21984483013E+02  0.16071578758E+02 -0.33793641790E+02  0.43400729977E+02  0.00000000000E+00 0.  1.
         11    1    3    3    0    0 -0.78817938381E+01 -0.74392678691E+01  0.14643697885E+02  0.18218212550E+02  0.51100000000E-03 0. -1.
        -11    1    3    3    0    0 -0.12143933667E+02 -0.12808109653E+02  0.16903430164E+02  0.24438673232E+02  0.51100000000E-03 0.  1.
        -12    1    3    3    0    0 -0.19587555080E+01  0.41757987643E+01  0.22465137416E+01  0.51303842401E+01  0.00000000000E+00 0.  1.
</event>
<event>
 7    1  0.3884463E-009  0.4778727E+02  0.7816164E-02  0.1312668E+00
        -11   -1    0    0    0    0  0.00000000000E+00  0.00000000000E+00  0.45593999997E+02  0.45594000000E+02  0.51100000000E-03 0.  1.
         11   -1    0    0    0    0 -0.00000000000E+00 -0.00000000000E+00 -0.45593999997E+02  0.45594000000E+02  0.51100000000E-03 0. -1.
    9900012    2    1    2    0    0 -0.36940984735E+01  0.23272941466E+02 -0.36446496906E+02  0.47787270689E+02  0.19999998380E+02 0.  0.
        -12    1    1    2    0    0  0.36940984735E+01 -0.23272941466E+02  0.36446496906E+02  0.43400729311E+02  0.00000000000E+00 0.  1.
         11    1    3    3    0    0 -0.81905117895E+00 -0.62490360869E+00  0.68470139413E+00  0.12369986314E+01  0.51100000000E-03 0. -1.
        -11    1    3    3    0    0 -0.10587837852E+01  0.58396417533E+01 -0.86683795968E+00  0.59978202057E+01  0.51100000000E-03 0.  1.
         12    1    3    3    0    0 -0.18162635094E+01  0.18058203321E+02 -0.36264360340E+02  0.40552451852E+02  0.00000000000E+00 0. -1.
</event>
<event>
 7    1  0.3884463E-009  0.4778727E+02  0.7816164E-02  0.1312668E+00
        -11   -1    0    0    0    0  0.00000000000E+00  0.00000000000E+00  0.45593999997E+02  0.45594000000E+02  0.51100000000E-03 0.  1.
         11   -1    0    0    0    0 -0.00000000000E+00 -0.00000000000E+00 -0.45593999997E+02  0.45594000000E+02  0.51100000000E-03 0. -1.
    9900012    2    1    2    0    0  0.30173593689E+02  0.29829306822E+02 -0.91318231652E+01  0.47787268487E+02  0.19999988339E+02 0.  0.
        -12    1    1    2    0    0 -0.30173593689E+02 -0.29829306822E+02  0.91318231652E+01  0.43400731513E+02  0.00000000000E+00 0.  1.
         11    1    3    3    0    0  0.16169917228E+02  0.12432269517E+02 -0.66822879522E+01  0.21463469455E+02  0.51100000000E-03 0. -1.
        -11    1    3    3    0    0  0.12997383905E+02  0.94435717087E+01  0.33723154897E+01  0.16416014955E+02  0.51100000000E-03 0.  1.
        -12    1    3    3    0    0  0.10062925552E+01  0.79534655966E+01 -0.58218507028E+01  0.99077840766E+01  0.00000000000E+00 0.  1.
</event>
<event>
 7    1  0.3884463E-009  0.4778727E+02  0.7816164E-02  0.1312668E+00
        -11   -1    0    0    0    0  0.00000000000E+00  0.00000000000E+00  0.45593999997E+02  0.45594000000E+02  0.51100000000E-03 0.  1.
         11   -1    0    0    0    0 -0.00000000000E+00 -0.00000000000E+00 -0.45593999997E+02  0.45594000000E+02  0.51100000000E-03 0. -1.
    9900012    2    1    2    0    0  0.28332330258E+02  0.11187554522E+02 -0.30915059845E+02  0.47787271443E+02  0.20000001816E+02 0.  0.
        -12    1    1    2    0    0 -0.28332330258E+02 -0.11187554522E+02  0.30915059845E+02  0.43400728557E+02  0.00000000000E+00 0.  1.
         11    1    3    3    0    0  0.74786595588E+01  0.99645447762E+01 -0.70830988769E+01  0.14331531368E+02  0.51100000000E-03 0. -1.
        -11    1    3    3    0    0 -0.11132065673E+01  0.10170085937E+01 -0.16976973480E+01  0.22706192740E+01  0.51100000000E-03 0.  1.
        -12    1    3    3    0    0  0.21966877267E+02  0.20600115231E+00 -0.22134263621E+02  0.31185120801E+02  0.00000000000E+00 0.  1.
</event>
<event>
 7    1  0.3884463E-009  0.4778728E+02  0.7816164E-02  0.1312668E+00
        -11   -1    0    0    0    0  0.00000000000E+00  0.00000000000E+00  0.45593999997E+02  0.45594000000E+02  0.51100000000E-03 0. -1.
         11   -1    0    0    0    0 -0.00000000000E+00 -0.00000000000E+00 -0.45593999997E+02  0.45594000000E+02  0.51100000000E-03 0.  1.
    9900012    2    1    2    0    0 -0.40472738727E+02 -0.14780965264E+01  0.15601119660E+02  0.47787282447E+02  0.20000051991E+02 0.  0.
        -12    1    1    2    0    0  0.40472738727E+02  0.14780965264E+01 -0.15601119660E+02  0.43400717553E+02  0.00000000000E+00 0.  1.
         11    1    3    3    0    0 -0.19464039732E+02  0.14357602450E+01  0.48547913716E+01  0.20111669490E+02  0.51100000000E-03 0. -1.
        -11    1    3    3    0    0 -0.10205283130E+02  0.51523809831E+01  0.20031546878E+01  0.11606354402E+02  0.51100000000E-03 0.  1.
         12    1    3    3    0    0 -0.10803415866E+02 -0.80662377545E+01  0.87431736011E+01  0.16069258555E+02  0.00000000000E+00 0. -1.
</event>
<event>
 7    1  0.3884463E-009  0.4778727E+02  0.7816164E-02  0.1312668E+00
        -11   -1    0    0    0    0  0.00000000000E+00  0.00000000000E+00  0.45593999997E+02  0.45594000000E+02  0.51100000000E-03 0. -1.
         11   -1    0    0    0    0 -0.00000000000E+00 -0.00000000000E+00 -0.45593999997E+02  0.45594000000E+02  0.51100000000E-03 0.  1.
    9900012    2    1    2    0    0  0.27582291103E+02 -0.12817423714E+02  0.30960528878E+02  0.47787268651E+02  0.19999989089E+02 0.  0.
        -12    1    1    2    0    0 -0.27582291103E+02  0.12817423714E+02 -0.30960528878E+02  0.43400731349E+02  0.00000000000E+00 0.  1.
         11    1    3    3    0    0  0.28344641844E-01 -0.19195662698E+01  0.98986462896E+00  0.21599468345E+01  0.51100000000E-03 0. -1.
        -11    1    3    3    0    0  0.50379831626E+01 -0.85979442676E+01  0.29764243569E+01  0.10400241449E+02  0.51100000000E-03 0.  1.
         12    1    3    3    0    0  0.22515963299E+02 -0.22999131768E+01  0.26994239892E+02  0.35227080368E+02  0.00000000000E+00 0. -1.
</event>
<event>
 7    1  0.3884463E-009  0.4778727E+02  0.7816164E-02  0.1312668E+00
        -11   -1    0    0    0    0  0.00000000000E+00  0.00000000000E+00  0.45593999997E+02  0.45594000000E+02  0.51100000000E-03 0.  1.
         11   -1    0    0    0    0 -0.00000000000E+00 -0.00000000000E+00 -0.45593999997E+02  0.45594000000E+02  0.51100000000E-03 0. -1.
    9900012    2    1    2    0    0  0.54085469778E+01 -0.86146323924E+01 -0.42191926740E+02  0.47787274733E+02  0.20000016817E+02 0.  0.
        -12    1    1    2    0    0 -0.54085469778E+01  0.86146323924E+01  0.42191926740E+02  0.43400725267E+02  0.00000000000E+00 0.  1.
         11    1    3    3    0    0  0.10611942135E+02 -0.98015603288E+01 -0.29756478289E+02  0.33077664688E+02  0.51100000000E-03 0. -1.
        -11    1    3    3    0    0  0.10158900838E+01 -0.83657573451E+00 -0.21615431370E+01  0.25306443085E+01  0.51100000000E-03 0.  1.
        -12    1    3    3    0    0 -0.62192852410E+01  0.20235036709E+01 -0.10273905314E+02  0.12178965737E+02  0.00000000000E+00 0.  1.
</event>
<event>
 7    1  0.3884463E-009  0.4778726E+02  0.7816164E-02  0.1312668E+00
        -11   -1    0    0    0    0  0.00000000000E+00  0.00000000000E+00  0.45593999997E+02  0.45594000000E+02  0.51100000000E-03 0.  1.
         11   -1    0    0    0    0 -0.00000000000E+00 -0.00000000000E+00 -0.45593999997E+02  0.45594000000E+02  0.51100000000E-03 0. -1.
    9900012    2    1    2    0    0 -0.17097391804E+02 -0.22561756329E+02 -0.32897877154E+02  0.47787262951E+02  0.19999963098E+02 0.  0.
        -12    1    1    2    0    0  0.17097391804E+02  0.22561756329E+02  0.32897877154E+02  0.43400737049E+02  0.00000000000E+00 0.  1.
         11    1    3    3    0    0 -0.81856321241E+01 -0.94474390271E+01 -0.75643123383E+01  0.14610869203E+02  0.51100000000E-03 0. -1.
        -11    1    3    3    0    0  0.28939105297E+01 -0.62394732980E+01 -0.43519649970E+01  0.81391243255E+01  0.51100000000E-03 0.  1.
         12    1    3    3    0    0 -0.11805670210E+02 -0.68748440039E+01 -0.20981599819E+02  0.25037269423E+02  0.00000000000E+00 0. -1.
</event>
<event>
 7    1  0.3884463E-009  0.4778728E+02  0.7816164E-02  0.1312668E+00
        -11   -1    0    0    0    0  0.00000000000E+00  0.00000000000E+00  0.45593999997E+02  0.45594000000E+02  0.51100000000E-03 0. -1.
         11   -1    0    0    0    0 -0.00000000000E+00 -0.00000000000E+00 -0.45593999997E+02  0.45594000000E+02  0.51100000000E-03 0.  1.
    9900012    2    1    2    0    0 -0.28455612379E+02 -0.18155246935E+02  0.27281640589E+02  0.47787276730E+02  0.20000025923E+02 0.  0.
        -12    1    1    2    0    0  0.28455612379E+02  0.18155246935E+02 -0.27281640589E+02  0.43400723270E+02  0.00000000000E+00 0.  1.
         11    1    3    3    0    0 -0.25795068410E+02 -0.10200839253E+02  0.12935496808E+02  0.30606694589E+02  0.51100000000E-03 0. -1.
        -11    1    3    3    0    0 -0.65806044552E+00  0.45184048631E+00  0.97518422093E+00  0.12602332724E+01  0.51100000000E-03 0.  1.
         12    1    3    3    0    0 -0.20024835232E+01 -0.84062481683E+01  0.13370959560E+02  0.15920348868E+02  0.00000000000E+00 0. -1.
</event>
<event>
 7    1  0.3884463E-009  0.4778726E+02  0.7816164E-02  0.1312668E+00
        -11   -1    0    0    0    0  0.00000000000E+00  0.00000000000E+00  0.45593999997E+02  0.45594000000E+02  0.51100000000E-03 0.  1.
         11   -1    0    0    0    0 -0.00000000000E+00 -0.00000000000E+00 -0.45593999997E+02  0.45594000000E+02  0.51100000000E-03 0. -1.
    9900012    2    1    2    0    0  0.23455300738E+02 -0.32153145758E+02 -0.17310344328E+02  0.47787263421E+02  0.19999965243E+02 0.  0.
        -12    1    1    2    0    0 -0.23455300738E+02  0.32153145758E+02  0.17310344328E+02  0.43400736579E+02  0.00000000000E+00 0.  1.
         11    1    3    3    0    0  0.20496764084E+02 -0.27023392473E+02 -0.20013072800E+02  0.39381520562E+02  0.51100000000E-03 0. -1.
        -11    1    3    3    0    0  0.30365710346E+01 -0.57174021483E+01  0.93457777445E+00  0.65408628522E+01  0.51100000000E-03 0.  1.
         12    1    3    3    0    0 -0.78034380736E-01  0.58764886384E+00  0.17681506970E+01  0.18648800066E+01  0.00000000000E+00 0. -1.
</event>
<event>
 7    1  0.3884463E-009  0.4778727E+02  0.7816164E-02  0.1312668E+00
        -11   -1    0    0    0    0  0.00000000000E+00  0.00000000000E+00  0.45593999997E+02  0.45594000000E+02  0.51100000000E-03 0. -1.
         11   -1    0    0    0    0 -0.00000000000E+00 -0.00000000000E+00 -0.45593999997E+02  0.45594000000E+02  0.51100000000E-03 0.  1.
    9900012    2    1    2    0    0 -0.38547014449E+02  0.70921019570E+01  0.18640093905E+02  0.47787270353E+02  0.19999996847E+02 0.  0.
        -12    1    1    2    0    0  0.38547014449E+02 -0.70921019570E+01 -0.18640093905E+02  0.43400729647E+02  0.00000000000E+00 0.  1.
         11    1    3    3    0    0 -0.54678132468E+01 -0.21377581581E+01  0.48492104091E+01  0.76145803231E+01  0.51100000000E-03 0. -1.
        -11    1    3    3    0    0 -0.75785451492E+00  0.24345434493E+01 -0.22997523686E+01  0.34336870111E+01  0.51100000000E-03 0.  1.
         12    1    3    3    0    0 -0.32321346688E+02  0.67953166657E+01  0.16090635864E+02  0.36739003019E+02  0.00000000000E+00 0. -1.
</event>
<event>
 7    1  0.3884463E-009  0.4778730E+02  0.7816164E-02  0.1312668E+00
        -11   -1    0    0    0    0  0.00000000000E+00  0.00000000000E+00  0.45593999997E+02  0.45594000000E+02  0.51100000000E-03 0. -1.
         11   -1    0    0    0    0 -0.00000000000E+00 -0.00000000000E+00 -0.45593999997E+02  0.45594000000E+02  0.51100000000E-03 0.  1.
    9900012    2    1    2    0    0  0.36846681982E+02 -0.21533045171E+02  0.78911895419E+01  0.47787298625E+02  0.20000125752E+02 0.  0.
        -12    1    1    2    0    0 -0.36846681982E+02  0.21533045171E+02 -0.78911895419E+01  0.43400701375E+02  0.00000000000E+00 0.  1.
         11    1    3    3    0    0  0.19063835251E+02 -0.11511890788E+02  0.29918609537E+01  0.22470084027E+02  0.51100000000E-03 0. -1.
        -11    1    3    3    0    0  0.15985481200E+02 -0.71010887960E+01 -0.20070203767E+01  0.17606510226E+02  0.51100000000E-03 0.  1.
         12    1    3    3    0    0  0.17973655313E+01 -0.29200655870E+01  0.69063489648E+01  0.77107043718E+01  0.00000000000E+00 0. -1.
</event>
<event>
 7    1  0.3884463E-009  0.4778727E+02  0.7816164E-02  0.1312668E+00
        -11   -1    0    0    0    0  0.00000000000E+00  0.00000000000E+00  0.45593999997E+02  0.45594000000E+02  0.51100000000E-03 0. -1.
         11   -1    0    0    0    0 -0.00000000000E+00 -0.00000000000E+00 -0.45593999997E+02  0.45594000000E+02  0.51100000000E-03 0.  1.
    9900012    2    1    2    0    0 -0.12817695885E+02 -0.39635255383E+02  0.12180991777E+02  0.47787270078E+02  0.19999995593E+02 0.  0.
        -12    1    1    2    0    0  0.12817695885E+02  0.39635255383E+02 -0.12180991777E+02  0.43400729922E+02  0.00000000000E+00 0.  1.
         11    1    3    3    0    0 -0.52131876875E+01 -0.13453618715E+02  0.32951410544E+01  0.14799835716E+02  0.51100000000E-03 0. -1.
        -11    1    3    3    0    0 -0.98569316678E+00 -0.20115475901E+02  0.12048550578E+02  0.23468522174E+02  0.51100000000E-03 0.  1.
        -12    1    3    3    0    0 -0.66188150308E+01 -0.60661607677E+01 -0.31626998550E+01  0.95189121881E+01  0.00000000000E+00 0.  1.
</event>
<event>
 7    1  0.3884463E-009  0.4778727E+02  0.7816164E-02  0.1312668E+00
        -11   -1    0    0    0    0  0.00000000000E+00  0.00000000000E+00  0.45593999997E+02  0.45594000000E+02  0.51100000000E-03 0.  1.
         11   -1    0    0    0    0 -0.00000000000E+00 -0.00000000000E+00 -0.45593999997E+02  0.45594000000E+02  0.51100000000E-03 0. -1.
    9900012    2    1    2    0    0  0.25388492955E+02  0.16769163807E+02 -0.30949032877E+02  0.47787273447E+02  0.20000010953E+02 0.  0.
        -12    1    1    2    0    0 -0.25388492955E+02 -0.16769163807E+02  0.30949032877E+02  0.43400726553E+02  0.00000000000E+00 0.  1.
         11    1    3    3    0    0  0.43122792537E+01  0.85753917570E+01 -0.16623158617E+02  0.19195377017E+02  0.51100000000E-03 0. -1.
        -11    1    3    3    0    0 -0.64426938140E+00 -0.94583492214E+00 -0.36219990839E+00  0.12003648489E+01  0.51100000000E-03 0.  1.
        -12    1    3    3    0    0  0.21720483083E+02  0.91396069717E+01 -0.13963674352E+02  0.27391531581E+02  0.00000000000E+00 0.  1.
</event>
<event>
 7    1  0.3884463E-009  0.4778726E+02  0.7816164E-02  0.1312668E+00
        -11   -1    0    0    0    0  0.00000000000E+00  0.00000000000E+00  0.45593999997E+02  0.45594000000E+02  0.51100000000E-03 0.  1.
         11   -1    0    0    0    0 -0.00000000000E+00 -0.00000000000E+00 -0.45593999997E+02  0.45594000000E+02  0.51100000000E-03 0. -1.
    9900012    2    1    2    0    0 -0.15265601118E+01 -0.54987123155E+01 -0.43023919733E+02  0.47787263922E+02  0.19999967527E+02 0.  0.
        -12    1    1    2    0    0  0.15265601118E+01  0.54987123155E+01  0.43023919733E+02  0.43400736078E+02  0.00000000000E+00 0.  1.
         11    1    3    3    0    0  0.73920439784E+01 -0.55476083070E+01 -0.19561005321E+02  0.21634491016E+02  0.51100000000E-03 0.  1.
        -11    1    3    3    0    0 -0.31453470108E+01 -0.32716836576E+01 -0.64854336382E+01  0.79156788408E+01  0.51100000000E-03 0. -1.
        -12    1    3    3    0    0 -0.57732570794E+01  0.33205796492E+01 -0.16977480774E+02  0.18237094065E+02  0.00000000000E+00 0.  1.
</event>
<event>
 7    1  0.3884463E-009  0.4778727E+02  0.7816164E-02  0.1312668E+00
        -11   -1    0    0    0    0  0.00000000000E+00  0.00000000000E+00  0.45593999997E+02  0.45594000000E+02  0.51100000000E-03 0. -1.
         11   -1    0    0    0    0 -0.00000000000E+00 -0.00000000000E+00 -0.45593999997E+02  0.45594000000E+02  0.51100000000E-03 0.  1.
    9900012    2    1    2    0    0 -0.13932726134E+01 -0.15266838174E+02  0.40603025384E+02  0.47787271588E+02  0.20000002477E+02 0.  0.
        -12    1    1    2    0    0  0.13932726134E+01  0.15266838174E+02 -0.40603025384E+02  0.43400728412E+02  0.00000000000E+00 0.  1.
         11    1    3    3    0    0 -0.71045129912E+01 -0.49850155636E+01  0.11261228038E+02  0.14217585667E+02  0.51100000000E-03 0. -1.
        -11    1    3    3    0    0 -0.98744983269E+00  0.30820923842E+00 -0.53997374234E+00  0.11668856029E+01  0.51100000000E-03 0.  1.
         12    1    3    3    0    0  0.66986902104E+01 -0.10590031849E+02  0.29881771088E+02  0.32402800318E+02  0.00000000000E+00 0. -1.
</event>
<event>
 7    1  0.3884463E-009  0.4778727E+02  0.7816164E-02  0.1312668E+00
        -11   -1    0    0    0    0  0.00000000000E+00  0.00000000000E+00  0.45593999997E+02  0.45594000000E+02  0.51100000000E-03 0.  1.
         11   -1    0    0    0    0 -0.00000000000E+00 -0.00000000000E+00 -0.45593999997E+02  0.45594000000E+02  0.51100000000E-03 0. -1.
    9900012    2    1    2    0    0 -0.28614926889E+02  0.17745082532E+02 -0.27384691430E+02  0.47787270517E+02  0.19999997595E+02 0.  0.
        -12    1    1    2    0    0  0.28614926889E+02 -0.17745082532E+02  0.27384691430E+02  0.43400729483E+02  0.00000000000E+00 0.  1.
         11    1    3    3    0    0 -0.14484810132E+02  0.13848101646E+02 -0.24006239235E+02  0.31271059563E+02  0.51100000000E-03 0. -1.
        -11    1    3    3    0    0 -0.68037841385E+01  0.50003453203E+01 -0.34125956552E+01  0.91071807544E+01  0.51100000000E-03 0.  1.
         12    1    3    3    0    0 -0.73263326188E+01 -0.11033644341E+01  0.34143460123E-01  0.74090301991E+01  0.00000000000E+00 0. -1.
</event>
<event>
 7    1  0.3884463E-009  0.4778727E+02  0.7816164E-02  0.1312668E+00
        -11   -1    0    0    0    0  0.00000000000E+00  0.00000000000E+00  0.45593999997E+02  0.45594000000E+02  0.51100000000E-03 0.  1.
         11   -1    0    0    0    0 -0.00000000000E+00 -0.00000000000E+00 -0.45593999997E+02  0.45594000000E+02  0.51100000000E-03 0. -1.
    9900012    2    1    2    0    0 -0.18489687729E+02 -0.95537026032E+01 -0.38085183338E+02  0.47787274480E+02  0.20000015665E+02 0.  0.
        -12    1    1    2    0    0  0.18489687729E+02  0.95537026032E+01  0.38085183338E+02  0.43400725520E+02  0.00000000000E+00 0.  1.
         11    1    3    3    0    0 -0.83710228986E+01  0.14811644739E+01 -0.62390878167E+01  0.10544860815E+02  0.51100000000E-03 0. -1.
        -11    1    3    3    0    0 -0.61619489067E+01  0.13335084054E+01 -0.11176840606E+02  0.12832366313E+02  0.51100000000E-03 0.  1.
         12    1    3    3    0    0 -0.39567159237E+01 -0.12368375482E+02 -0.20669254915E+02  0.24410047352E+02  0.00000000000E+00 0. -1.
</event>
<event>
 7    1  0.3884463E-009  0.4778727E+02  0.7816164E-02  0.1312668E+00
        -11   -1    0    0    0    0  0.00000000000E+00  0.00000000000E+00  0.45593999997E+02  0.45594000000E+02  0.51100000000E-03 0.  1.
         11   -1    0    0    0    0 -0.00000000000E+00 -0.00000000000E+00 -0.45593999997E+02  0.45594000000E+02  0.51100000000E-03 0. -1.
    9900012    2    1    2    0    0 -0.37490764286E+02  0.21842302860E+02 -0.98975584316E+00  0.47787271692E+02  0.20000002954E+02 0.  0.
        -12    1    1    2    0    0  0.37490764286E+02 -0.21842302860E+02  0.98975584316E+00  0.43400728308E+02  0.00000000000E+00 0.  1.
         11    1    3    3    0    0 -0.14873370795E+02  0.12002499893E+02 -0.86666176424E+01  0.20985409791E+02  0.51100000000E-03 0. -1.
        -11    1    3    3    0    0 -0.28488529879E+01 -0.53213654791E+00 -0.65893952425E+00  0.29720925642E+01  0.51100000000E-03 0.  1.
        -12    1    3    3    0    0 -0.19768540503E+02  0.10371939516E+02  0.83358013235E+01  0.23829769337E+02  0.00000000000E+00 0.  1.
</event>
<event>
 7    1  0.3884463E-009  0.4778728E+02  0.7816164E-02  0.1312668E+00
        -11   -1    0    0    0    0  0.00000000000E+00  0.00000000000E+00  0.45593999997E+02  0.45594000000E+02  0.51100000000E-03 0.  1.
         11   -1    0    0    0    0 -0.00000000000E+00 -0.00000000000E+00 -0.45593999997E+02  0.45594000000E+02  0.51100000000E-03 0. -1.
    9900012    2    1    2    0    0  0.12866196201E+02  0.31528684669E+02 -0.26907726922E+02  0.47787277313E+02  0.20000028581E+02 0.  0.
        -12    1    1    2    0    0 -0.12866196201E+02 -0.31528684669E+02  0.26907726922E+02  0.43400722687E+02  0.00000000000E+00 0.  1.
         11    1    3    3    0    0  0.14641569519E+01  0.17590741224E+01 -0.59255332465E+01  0.63521682805E+01  0.51100000000E-03 0. -1.
        -11    1    3    3    0    0  0.15418027869E+02  0.23501440575E+02 -0.18212579736E+02  0.33492258111E+02  0.51100000000E-03 0.  1.
        -12    1    3    3    0    0 -0.40159886196E+01  0.62681699719E+01 -0.27696139398E+01  0.79428509217E+01  0.00000000000E+00 0.  1.
</event>
<event>
 7    1  0.3884463E-009  0.4778727E+02  0.7816164E-02  0.1312668E+00
        -11   -1    0    0    0    0  0.00000000000E+00  0.00000000000E+00  0.45593999997E+02  0.45594000000E+02  0.51100000000E-03 0. -1.
         11   -1    0    0    0    0 -0.00000000000E+00 -0.00000000000E+00 -0.45593999997E+02  0.45594000000E+02  0.51100000000E-03 0.  1.
    9900012    2    1    2    0    0 -0.29000726176E+02 -0.31681073250E+02  0.62362570595E+01  0.47787269325E+02  0.19999992161E+02 0.  0.
        -12    1    1    2    0    0  0.29000726176E+02  0.31681073250E+02 -0.62362570595E+01  0.43400730675E+02  0.00000000000E+00 0.  1.
         11    1    3    3    0    0 -0.13716181302E+02 -0.17307844308E+02  0.14982714121E+01  0.22134586547E+02  0.51100000000E-03 0. -1.
        -11    1    3    3    0    0 -0.83883217104E+01 -0.14576325632E+02 -0.75388101730E+00  0.16834534353E+02  0.51100000000E-03 0.  1.
        -12    1    3    3    0    0 -0.68962231635E+01  0.20309668976E+00  0.54918666647E+01  0.88181484252E+01  0.00000000000E+00 0.  1.
</event>
<event>
 7    1  0.3884463E-009  0.4778727E+02  0.7816164E-02  0.1312668E+00
        -11   -1    0    0    0    0  0.00000000000E+00  0.00000000000E+00  0.45593999997E+02  0.45594000000E+02  0.51100000000E-03 0.  1.
         11   -1    0    0    0    0 -0.00000000000E+00 -0.00000000000E+00 -0.45593999997E+02  0.45594000000E+02  0.51100000000E-03 0. -1.
    9900012    2    1    2    0    0 -0.13195711235E+02  0.13898921065E+01 -0.41322687795E+02  0.47787272798E+02  0.20000007994E+02 0.  0.
        -12    1    1    2    0    0  0.13195711235E+02 -0.13898921065E+01  0.41322687795E+02  0.43400727202E+02  0.00000000000E+00 0.  1.
         11    1    3    3    0    0  0.19227688791E+01 -0.40404123404E+01 -0.67660961152E+01  0.81118449778E+01  0.51100000000E-03 0. -1.
        -11    1    3    3    0    0  0.14544300626E+01  0.15624686861E+01 -0.19330596060E+01  0.28798254988E+01  0.51100000000E-03 0.  1.
        -12    1    3    3    0    0 -0.16572910177E+02  0.38678357608E+01 -0.32623532074E+02  0.36795602321E+02  0.00000000000E+00 0.  1.
</event>
<event>
 7    1  0.3884463E-009  0.4778727E+02  0.7816164E-02  0.1312668E+00
        -11   -1    0    0    0    0  0.00000000000E+00  0.00000000000E+00  0.45593999997E+02  0.45594000000E+02  0.51100000000E-03 0. -1.
         11   -1    0    0    0    0 -0.00000000000E+00 -0.00000000000E+00 -0.45593999997E+02  0.45594000000E+02  0.51100000000E-03 0.  1.
    9900012    2    1    2    0    0 -0.15196245146E+02  0.31403674940E+02  0.25816789031E+02  0.47787271180E+02  0.20000000618E+02 0.  0.
        -12    1    1    2    0    0  0.15196245146E+02 -0.31403674940E+02 -0.25816789031E+02  0.43400728820E+02  0.00000000000E+00 0.  1.
         11    1    3    3    0    0 -0.29141857809E+01  0.70865125012E+01  0.12719317419E+02  0.14848978890E+02  0.51100000000E-03 0. -1.
        -11    1    3    3    0    0  0.27819964351E+01  0.35632564506E+01  0.12573600117E+01  0.46922548053E+01  0.51100000000E-03 0.  1.
         12    1    3    3    0    0 -0.15064055800E+02  0.20753905988E+02  0.11840111599E+02  0.28246037485E+02  0.00000000000E+00 0. -1.
</event>
<event>
 7    1  0.3884463E-009  0.4778727E+02  0.7816164E-02  0.1312668E+00
        -11   -1    0    0    0    0  0.00000000000E+00  0.00000000000E+00  0.45593999997E+02  0.45594000000E+02  0.51100000000E-03 0.  1.
         11   -1    0    0    0    0 -0.00000000000E+00 -0.00000000000E+00 -0.45593999997E+02  0.45594000000E+02  0.51100000000E-03 0. -1.
    9900012    2    1    2    0    0 -0.29457656873E+02 -0.36622784900E+01 -0.31661607048E+02  0.47787271975E+02  0.20000004245E+02 0.  0.
        -12    1    1    2    0    0  0.29457656873E+02  0.36622784900E+01  0.31661607048E+02  0.43400728025E+02  0.00000000000E+00 0.  1.
         11    1    3    3    0    0 -0.15102926693E+01 -0.30311094660E+01 -0.52363905470E+01  0.62360560263E+01  0.51100000000E-03 0. -1.
        -11    1    3    3    0    0 -0.21902681961E+01  0.34703123945E+00 -0.11612648567E+02  0.11822491804E+02  0.51100000000E-03 0.  1.
        -12    1    3    3    0    0 -0.25757096008E+02 -0.97820026339E+00 -0.14812567935E+02  0.29728724146E+02  0.00000000000E+00 0.  1.
</event>
<event>
 7    1  0.3884463E-009  0.4778727E+02  0.7816164E-02  0.1312668E+00
        -11   -1    0    0    0    0  0.00000000000E+00  0.00000000000E+00  0.45593999997E+02  0.45594000000E+02  0.51100000000E-03 0.  1.
         11   -1    0    0    0    0 -0.00000000000E+00 -0.00000000000E+00 -0.45593999997E+02  0.45594000000E+02  0.51100000000E-03 0. -1.
    9900012    2    1    2    0    0 -0.40866049464E+02  0.10965110095E+02 -0.96620732539E+01  0.47787270770E+02  0.19999998747E+02 0.  0.
        -12    1    1    2    0    0  0.40866049464E+02 -0.10965110095E+02  0.96620732539E+01  0.43400729230E+02  0.00000000000E+00 0.  1.
         11    1    3    3    0    0 -0.66926434392E+01 -0.18958145008E+01 -0.12894038305E+01  0.70744718053E+01  0.51100000000E-03 0. -1.
        -11    1    3    3    0    0  0.99637883180E+00  0.10092878468E+01 -0.28603607550E+01  0.31926629394E+01  0.51100000000E-03 0.  1.
         12    1    3    3    0    0 -0.35169784856E+02  0.11851636749E+02 -0.55123086683E+01  0.37520136025E+02  0.00000000000E+00 0. -1.
</event>
<event>
 7    1  0.3884463E-009  0.4778727E+02  0.7816164E-02  0.1312668E+00
        -11   -1    0    0    0    0  0.00000000000E+00  0.00000000000E+00  0.45593999997E+02  0.45594000000E+02  0.51100000000E-03 0.  1.
         11   -1    0    0    0    0 -0.00000000000E+00 -0.00000000000E+00 -0.45593999997E+02  0.45594000000E+02  0.51100000000E-03 0. -1.
    9900012    2    1    2    0    0 -0.36208745209E+02  0.10631411528E+02  0.21436491450E+02  0.47787270669E+02  0.19999998290E+02 0.  0.
        -12    1    1    2    0    0  0.36208745209E+02 -0.10631411528E+02 -0.21436491450E+02  0.43400729331E+02  0.00000000000E+00 0.  1.
         11    1    3    3    0    0 -0.28618811510E+02  0.82897278973E+01  0.12079086410E+02  0.32150587703E+02  0.51100000000E-03 0. -1.
        -11    1    3    3    0    0 -0.47629771650E+01 -0.16271014944E+01 -0.59746450601E-01  0.50335852677E+01  0.51100000000E-03 0.  1.
        -12    1    3    3    0    0 -0.28269565341E+01  0.39687851255E+01  0.94171514903E+01  0.10603097699E+02  0.00000000000E+00 0.  1.
</event>
<event>
 7    1  0.3884463E-009  0.4778727E+02  0.7816164E-02  0.1312668E+00
        -11   -1    0    0    0    0  0.00000000000E+00  0.00000000000E+00  0.45593999997E+02  0.45594000000E+02  0.51100000000E-03 0. -1.
         11   -1    0    0    0    0 -0.00000000000E+00 -0.00000000000E+00 -0.45593999997E+02  0.45594000000E+02  0.51100000000E-03 0.  1.
    9900012    2    1    2    0    0 -0.43319792860E+01  0.10993585660E+02  0.41761204353E+02  0.47787272365E+02  0.20000006021E+02 0.  0.
        -12    1    1    2    0    0  0.43319792860E+01 -0.10993585660E+02 -0.41761204353E+02  0.43400727635E+02  0.00000000000E+00 0.  1.
         11    1    3    3    0    0  0.11673388306E+01  0.68983009591E+01  0.12219788705E+02  0.14080925834E+02  0.51100000000E-03 0.  1.
        -11    1    3    3    0    0 -0.58990131218E+01  0.74516448866E+01  0.97032333138E+01  0.13582271693E+02  0.51100000000E-03 0. -1.
        -12    1    3    3    0    0  0.39969500516E+00 -0.33563601855E+01  0.19838182334E+02  0.20124074839E+02  0.00000000000E+00 0.  1.
</event>
<event>
 7    1  0.3884463E-009  0.4778727E+02  0.7816164E-02  0.1312668E+00
        -11   -1    0    0    0    0  0.00000000000E+00  0.00000000000E+00  0.45593999997E+02  0.45594000000E+02  0.51100000000E-03 0.  1.
         11   -1    0    0    0    0 -0.00000000000E+00 -0.00000000000E+00 -0.45593999997E+02  0.45594000000E+02  0.51100000000E-03 0. -1.
    9900012    2    1    2    0    0 -0.13292002469E+02  0.84000321153E+01 -0.40452263407E+02  0.47787268624E+02  0.19999988966E+02 0.  0.
        -12    1    1    2    0    0  0.13292002469E+02 -0.84000321153E+01  0.40452263407E+02  0.43400731376E+02  0.00000000000E+00 0.  1.
         11    1    3    3    0    0 -0.90684996167E+01  0.10590000083E+02 -0.24098113846E+02  0.27840705420E+02  0.51100000000E-03 0. -1.
        -11    1    3    3    0    0 -0.46051340792E+01 -0.58389789341E+01 -0.86072340988E+01  0.11374770941E+02  0.51100000000E-03 0.  1.
        -12    1    3    3    0    0  0.38163122703E+00  0.36490109663E+01 -0.77469154620E+01  0.85717922630E+01  0.00000000000E+00 0.  1.
</event>
<event>
 7    1  0.3884463E-009  0.4778727E+02  0.7816164E-02  0.1312668E+00
        -11   -1    0    0    0    0  0.00000000000E+00  0.00000000000E+00  0.45593999997E+02  0.45594000000E+02  0.51100000000E-03 0. -1.
         11   -1    0    0    0    0 -0.00000000000E+00 -0.00000000000E+00 -0.45593999997E+02  0.45594000000E+02  0.51100000000E-03 0.  1.
    9900012    2    1    2    0    0 -0.29181976944E+02 -0.19841992000E+02  0.25265215825E+02  0.47787267799E+02  0.19999985202E+02 0.  0.
        -12    1    1    2    0    0  0.29181976944E+02  0.19841992000E+02 -0.25265215825E+02  0.43400732201E+02  0.00000000000E+00 0.  1.
         11    1    3    3    0    0  0.13924279412E+01  0.11436551472E+01  0.22715758611E+01  0.28994585393E+01  0.51100000000E-03 0. -1.
        -11    1    3    3    0    0 -0.64966480069E+00 -0.34343362105E+01  0.47328944210E+00  0.35271422876E+01  0.51100000000E-03 0.  1.
         12    1    3    3    0    0 -0.29924740085E+02 -0.17551310937E+02  0.22520350522E+02  0.41360666972E+02  0.00000000000E+00 0. -1.
</event>
<event>
 7    1  0.3884463E-009  0.4778727E+02  0.7816164E-02  0.1312668E+00
        -11   -1    0    0    0    0  0.00000000000E+00  0.00000000000E+00  0.45593999997E+02  0.45594000000E+02  0.51100000000E-03 0. -1.
         11   -1    0    0    0    0 -0.00000000000E+00 -0.00000000000E+00 -0.45593999997E+02  0.45594000000E+02  0.51100000000E-03 0.  1.
    9900012    2    1    2    0    0 -0.68230606929E+01 -0.37828855100E+02  0.20150614038E+02  0.47787266348E+02  0.19999978589E+02 0.  0.
        -12    1    1    2    0    0  0.68230606929E+01  0.37828855100E+02 -0.20150614038E+02  0.43400733652E+02  0.00000000000E+00 0.  1.
         11    1    3    3    0    0 -0.76096483870E+01 -0.65242795622E+01  0.69499201519E+01  0.12197309652E+02  0.51100000000E-03 0. -1.
        -11    1    3    3    0    0 -0.10689426543E+01 -0.47866323358E+01 -0.16070682375E+01  0.51611196554E+01  0.51100000000E-03 0.  1.
         12    1    3    3    0    0  0.18555303483E+01 -0.26517943202E+02  0.14807762124E+02  0.30428837041E+02  0.00000000000E+00 0. -1.
</event>
<event>
 7    1  0.3884463E-009  0.4778727E+02  0.7816164E-02  0.1312668E+00
        -11   -1    0    0    0    0  0.00000000000E+00  0.00000000000E+00  0.45593999997E+02  0.45594000000E+02  0.51100000000E-03 0. -1.
         11   -1    0    0    0    0 -0.00000000000E+00 -0.00000000000E+00 -0.45593999997E+02  0.45594000000E+02  0.51100000000E-03 0.  1.
    9900012    2    1    2    0    0  0.59109712770E+01 -0.25564310306E+01  0.42920254350E+02  0.47787272420E+02  0.20000006270E+02 0.  0.
        -12    1    1    2    0    0 -0.59109712770E+01  0.25564310306E+01 -0.42920254350E+02  0.43400727580E+02  0.00000000000E+00 0.  1.
         11    1    3    3    0    0  0.49235878884E+01  0.21915231149E+01  0.27245014404E+02  0.27772923889E+02  0.51100000000E-03 0. -1.
        -11    1    3    3    0    0  0.10123756162E+01 -0.79656134309E+01  0.14525839832E+02  0.16597467421E+02  0.51100000000E-03 0.  1.
        -12    1    3    3    0    0 -0.24992227570E-01  0.32176592854E+01  0.11494001142E+01  0.34168811087E+01  0.00000000000E+00 0.  1.
</event>
<event>
 7    1  0.3884463E-009  0.4778727E+02  0.7816164E-02  0.1312668E+00
        -11   -1    0    0    0    0  0.00000000000E+00  0.00000000000E+00  0.45593999997E+02  0.45594000000E+02  0.51100000000E-03 0.  1.
         11   -1    0    0    0    0 -0.00000000000E+00 -0.00000000000E+00 -0.45593999997E+02  0.45594000000E+02  0.51100000000E-03 0. -1.
    9900012    2    1    2    0    0 -0.41553745897E+02  0.10068791753E+02 -0.74517605051E+01  0.47787273047E+02  0.20000009129E+02 0.  0.
        -12    1    1    2    0    0  0.41553745897E+02 -0.10068791753E+02  0.74517605051E+01  0.43400726953E+02  0.00000000000E+00 0.  1.
         11    1    3    3    0    0 -0.22631788418E+01  0.93340539632E+00  0.24531291802E+01  0.34656986510E+01  0.51100000000E-03 0.  1.
        -11    1    3    3    0    0 -0.16013462617E+02  0.67469387534E+01  0.29473831365E+01  0.17624960572E+02  0.51100000000E-03 0. -1.
        -12    1    3    3    0    0 -0.23277104438E+02  0.23884476036E+01 -0.12852272822E+02  0.26696613824E+02  0.00000000000E+00 0.  1.
</event>
<event>
 7    1  0.3884463E-009  0.4778727E+02  0.7816164E-02  0.1312668E+00
        -11   -1    0    0    0    0  0.00000000000E+00  0.00000000000E+00  0.45593999997E+02  0.45594000000E+02  0.51100000000E-03 0.  1.
         11   -1    0    0    0    0 -0.00000000000E+00 -0.00000000000E+00 -0.45593999997E+02  0.45594000000E+02  0.51100000000E-03 0. -1.
    9900012    2    1    2    0    0  0.33403017297E+02  0.21912421491E+02 -0.16961936116E+02  0.47787273543E+02  0.20000011394E+02 0.  0.
        -12    1    1    2    0    0 -0.33403017297E+02 -0.21912421491E+02  0.16961936116E+02  0.43400726457E+02  0.00000000000E+00 0.  1.
         11    1    3    3    0    0  0.26544537859E+02  0.18973691195E+02 -0.11407477413E+02  0.34565068912E+02  0.51100000000E-03 0. -1.
        -11    1    3    3    0    0  0.72770182954E+01  0.84272344062E+00 -0.59179489689E-01  0.73258911091E+01  0.51100000000E-03 0.  1.
         12    1    3    3    0    0 -0.41853885797E+00  0.20960068561E+01 -0.54952792137E+01  0.58963135223E+01  0.00000000000E+00 0. -1.
</event>
<event>
 7    1  0.3884463E-009  0.4778727E+02  0.7816164E-02  0.1312668E+00
        -11   -1    0    0    0    0  0.00000000000E+00  0.00000000000E+00  0.45593999997E+02  0.45594000000E+02  0.51100000000E-03 0.  1.
         11   -1    0    0    0    0 -0.00000000000E+00 -0.00000000000E+00 -0.45593999997E+02  0.45594000000E+02  0.51100000000E-03 0. -1.
    9900012    2    1    2    0    0  0.24763512987E+02  0.33725657056E+02 -0.11531342984E+02  0.47787269703E+02  0.19999993884E+02 0.  0.
        -12    1    1    2    0    0 -0.24763512987E+02 -0.33725657056E+02  0.11531342984E+02  0.43400730297E+02  0.00000000000E+00 0.  1.
         11    1    3    3    0    0  0.12181447765E+02  0.24491667640E+02 -0.10671062496E+02  0.29361556983E+02  0.51100000000E-03 0.  1.
        -11    1    3    3    0    0  0.11959497374E+02  0.93577271269E+01 -0.36059110448E+01  0.15607665717E+02  0.51100000000E-03 0. -1.
        -12    1    3    3    0    0  0.62256784882E+00 -0.12373771111E+00  0.27456305577E+01  0.28180470022E+01  0.00000000000E+00 0.  1.
</event>
<event>
 7    1  0.8512300E-009  0.4778727E+02  0.7816164E-02  0.1312668E+00
        -11   -1    0    0    0    0  0.00000000000E+00  0.00000000000E+00  0.45593999997E+02  0.45594000000E+02  0.51100000000E-03 0. -1.
         11   -1    0    0    0    0 -0.00000000000E+00 -0.00000000000E+00 -0.45593999997E+02  0.45594000000E+02  0.51100000000E-03 0.  1.
    9900012    2    1    2    0    0 -0.38171952170E+01 -0.97426742594E+01  0.42120452649E+02  0.47787271753E+02  0.20000003230E+02 0.  0.
        -12    1    1    2    0    0  0.38171952170E+01  0.97426742594E+01 -0.42120452649E+02  0.43400728247E+02  0.00000000000E+00 0.  1.
         11    1    3    3    0    0 -0.43685013436E+01 -0.51246117669E+01  0.24324423194E+02  0.25239314843E+02  0.51100000000E-03 0. -1.
        -11    1    3    3    0    0  0.40804652363E+01 -0.59672489943E+01  0.17284379107E+02  0.18735207991E+02  0.51100000000E-03 0.  1.
        -12    1    3    3    0    0 -0.35291591097E+01  0.13491865017E+01  0.51165034768E+00  0.38127489186E+01  0.00000000000E+00 0.  1.
</event>
<event>
 7    1  0.3884463E-009  0.4778730E+02  0.7816164E-02  0.1312668E+00
        -11   -1    0    0    0    0  0.00000000000E+00  0.00000000000E+00  0.45593999997E+02  0.45594000000E+02  0.51100000000E-03 0.  1.
         11   -1    0    0    0    0 -0.00000000000E+00 -0.00000000000E+00 -0.45593999997E+02  0.45594000000E+02  0.51100000000E-03 0. -1.
    9900012    2    1    2    0    0  0.23121632718E+02 -0.27117601987E+02 -0.24771894764E+02  0.47787297157E+02  0.20000119059E+02 0.  0.
        -12    1    1    2    0    0 -0.23121632718E+02  0.27117601987E+02  0.24771894764E+02  0.43400702843E+02  0.00000000000E+00 0.  1.
         11    1    3    3    0    0  0.29036012251E+01 -0.12466076904E+02 -0.10328861900E+02  0.16447472811E+02  0.51100000000E-03 0. -1.
        -11    1    3    3    0    0  0.13378499024E+01  0.11478664533E+01 -0.44207054484E+01  0.47592096695E+01  0.51100000000E-03 0.  1.
         12    1    3    3    0    0  0.18880181590E+02 -0.15799391535E+02 -0.10022327415E+02  0.26580614677E+02  0.00000000000E+00 0. -1.
</event>
<event>
 7    1  0.3884463E-009  0.4778726E+02  0.7816164E-02  0.1312668E+00
        -11   -1    0    0    0    0  0.00000000000E+00  0.00000000000E+00  0.45593999997E+02  0.45594000000E+02  0.51100000000E-03 0.  1.
         11   -1    0    0    0    0 -0.00000000000E+00 -0.00000000000E+00 -0.45593999997E+02  0.45594000000E+02  0.51100000000E-03 0. -1.
    9900012    2    1    2    0    0 -0.43295597235E+02  0.29140955364E+01  0.78956532744E+00  0.47787261457E+02  0.19999956285E+02 0.  0.
        -12    1    1    2    0    0  0.43295597235E+02 -0.29140955364E+01 -0.78956532744E+00  0.43400738543E+02  0.00000000000E+00 0.  1.
         11    1    3    3    0    0 -0.43105029940E+01  0.18152420787E+01 -0.58761655086E+00  0.47138978921E+01  0.51100000000E-03 0. -1.
        -11    1    3    3    0    0 -0.17777655379E+02  0.95843881292E+01  0.11665167256E+01  0.20230330895E+02  0.51100000000E-03 0.  1.
         12    1    3    3    0    0 -0.21207438862E+02 -0.84855346715E+01  0.21066515269E+00  0.22843032669E+02  0.00000000000E+00 0. -1.
</event>
<event>
 7    1  0.3884463E-009  0.4778727E+02  0.7816164E-02  0.1312668E+00
        -11   -1    0    0    0    0  0.00000000000E+00  0.00000000000E+00  0.45593999997E+02  0.45594000000E+02  0.51100000000E-03 0.  1.
         11   -1    0    0    0    0 -0.00000000000E+00 -0.00000000000E+00 -0.45593999997E+02  0.45594000000E+02  0.51100000000E-03 0. -1.
    9900012    2    1    2    0    0  0.12135890144E+02  0.31536565153E+02 -0.27235801076E+02  0.47787266925E+02  0.19999981218E+02 0.  0.
        -12    1    1    2    0    0 -0.12135890144E+02 -0.31536565153E+02  0.27235801076E+02  0.43400733075E+02  0.00000000000E+00 0.  1.
         11    1    3    3    0    0  0.97627076904E+01  0.29460372647E+02 -0.25694115273E+02  0.40291581973E+02  0.51100000000E-03 0. -1.
        -11    1    3    3    0    0 -0.17933355722E+01  0.14592271870E+01 -0.22482219307E+01  0.32248873730E+01  0.51100000000E-03 0.  1.
        -12    1    3    3    0    0  0.41665180256E+01  0.61696531877E+00  0.70653612823E+00  0.42707975792E+01  0.00000000000E+00 0.  1.
</event>
<event>
 7    1  0.4466367E-009  0.4778727E+02  0.7816164E-02  0.1312668E+00
        -11   -1    0    0    0    0  0.00000000000E+00  0.00000000000E+00  0.45593999997E+02  0.45594000000E+02  0.51100000000E-03 0. -1.
         11   -1    0    0    0    0 -0.00000000000E+00 -0.00000000000E+00 -0.45593999997E+02  0.45594000000E+02  0.51100000000E-03 0.  1.
    9900012    2    1    2    0    0  0.10964947884E+02  0.12434274719E+02  0.40109621530E+02  0.47787274094E+02  0.20000013904E+02 0.  0.
        -12    1    1    2    0    0 -0.10964947884E+02 -0.12434274719E+02 -0.40109621530E+02  0.43400725906E+02  0.00000000000E+00 0.  1.
         11    1    3    3    0    0 -0.31724070674E+01  0.15263925337E+01  0.14898399486E+02  0.15308701718E+02  0.51100000000E-03 0. -1.
        -11    1    3    3    0    0  0.13981347972E+01  0.12626966498E+01 -0.72234135245E+00  0.20176622689E+01  0.51100000000E-03 0.  1.
         12    1    3    3    0    0  0.12739220154E+02  0.96451855352E+01  0.25933563396E+02  0.30460910108E+02  0.00000000000E+00 0. -1.
</event>
<event>
 7    1  0.3884463E-009  0.4778727E+02  0.7816164E-02  0.1312668E+00
        -11   -1    0    0    0    0  0.00000000000E+00  0.00000000000E+00  0.45593999997E+02  0.45594000000E+02  0.51100000000E-03 0. -1.
         11   -1    0    0    0    0 -0.00000000000E+00 -0.00000000000E+00 -0.45593999997E+02  0.45594000000E+02  0.51100000000E-03 0.  1.
    9900012    2    1    2    0    0 -0.13804321576E+01  0.38704868239E+02 -0.19587003446E+02  0.47787272790E+02  0.20000007960E+02 0.  0.
        -12    1    1    2    0    0  0.13804321576E+01 -0.38704868239E+02  0.19587003446E+02  0.43400727210E+02  0.00000000000E+00 0.  1.
         11    1    3    3    0    0 -0.56509632325E-01  0.50047833789E+01 -0.80197285647E+01  0.94534171875E+01  0.51100000000E-03 0.  1.
        -11    1    3    3    0    0 -0.11408430041E+01  0.26168480244E+02 -0.14856577433E+02  0.30113265753E+02  0.51100000000E-03 0. -1.
        -12    1    3    3    0    0 -0.18307952112E+00  0.75316046157E+01  0.32893025514E+01  0.82205898495E+01  0.00000000000E+00 0.  1.
</event>
<event>
 7    1  0.3884463E-009  0.4778727E+02  0.7816164E-02  0.1312668E+00
        -11   -1    0    0    0    0  0.00000000000E+00  0.00000000000E+00  0.45593999997E+02  0.45594000000E+02  0.51100000000E-03 0.  1.
         11   -1    0    0    0    0 -0.00000000000E+00 -0.00000000000E+00 -0.45593999997E+02  0.45594000000E+02  0.51100000000E-03 0. -1.
    9900012    2    1    2    0    0  0.19233472689E+02  0.54520479667E+01 -0.38522356373E+02  0.47787271444E+02  0.20000001821E+02 0.  0.
        -12    1    1    2    0    0 -0.19233472689E+02 -0.54520479667E+01  0.38522356373E+02  0.43400728556E+02  0.00000000000E+00 0.  1.
         11    1    3    3    0    0 -0.60467184747E+00  0.70321760729E+00 -0.58766232252E-02  0.92745773065E+00  0.51100000000E-03 0. -1.
        -11    1    3    3    0    0  0.75850714944E+00  0.65852487011E+01 -0.52082916226E+01  0.84301325872E+01  0.51100000000E-03 0.  1.
         12    1    3    3    0    0  0.19079637387E+02 -0.18364183417E+01 -0.33308188127E+02  0.38429681126E+02  0.00000000000E+00 0. -1.
</event>
<event>
 7    1  0.3884463E-009  0.4778727E+02  0.7816164E-02  0.1312668E+00
        -11   -1    0    0    0    0  0.00000000000E+00  0.00000000000E+00  0.45593999997E+02  0.45594000000E+02  0.51100000000E-03 0.  1.
         11   -1    0    0    0    0 -0.00000000000E+00 -0.00000000000E+00 -0.45593999997E+02  0.45594000000E+02  0.51100000000E-03 0. -1.
    9900012    2    1    2    0    0  0.26429749381E+02  0.30172190930E+01 -0.34292680919E+02  0.47787271573E+02  0.20000002409E+02 0.  0.
        -12    1    1    2    0    0 -0.26429749381E+02 -0.30172190930E+01  0.34292680919E+02  0.43400728427E+02  0.00000000000E+00 0.  1.
         11    1    3    3    0    0  0.10987080311E+01  0.17802679328E+01 -0.40266889999E+01  0.45377018207E+01  0.51100000000E-03 0. -1.
        -11    1    3    3    0    0  0.49788168066E+01  0.52886337693E+00  0.17515665900E+01  0.53043660362E+01  0.51100000000E-03 0.  1.
         12    1    3    3    0    0  0.20352224543E+02  0.70808778328E+00 -0.32017558509E+02  0.37945203716E+02  0.00000000000E+00 0. -1.
</event>
<event>
 7    1  0.3884463E-009  0.4778727E+02  0.7816164E-02  0.1312668E+00
        -11   -1    0    0    0    0  0.00000000000E+00  0.00000000000E+00  0.45593999997E+02  0.45594000000E+02  0.51100000000E-03 0.  1.
         11   -1    0    0    0    0 -0.00000000000E+00 -0.00000000000E+00 -0.45593999997E+02  0.45594000000E+02  0.51100000000E-03 0. -1.
    9900012    2    1    2    0    0  0.55301048549E+01 -0.95340790652E+01 -0.41977881944E+02  0.47787270792E+02  0.19999998848E+02 0.  0.
        -12    1    1    2    0    0 -0.55301048549E+01  0.95340790652E+01  0.41977881944E+02  0.43400729208E+02  0.00000000000E+00 0.  1.
         11    1    3    3    0    0 -0.43331928736E+01 -0.22783057438E+01 -0.11204806278E+02  0.12227629432E+02  0.51100000000E-03 0. -1.
        -11    1    3    3    0    0  0.11916931607E+02 -0.19415598492E+01 -0.22088732640E+02  0.25173299813E+02  0.51100000000E-03 0.  1.
        -12    1    3    3    0    0 -0.20536338785E+01 -0.53142134722E+01 -0.86843430252E+01  0.10386341546E+02  0.00000000000E+00 0.  1.
</event>
<event>
 7    1  0.3884463E-009  0.4778722E+02  0.7816164E-02  0.1312668E+00
        -11   -1    0    0    0    0  0.00000000000E+00  0.00000000000E+00  0.45593999997E+02  0.45594000000E+02  0.51100000000E-03 0.  1.
         11   -1    0    0    0    0 -0.00000000000E+00 -0.00000000000E+00 -0.45593999997E+02  0.45594000000E+02  0.51100000000E-03 0. -1.
    9900012    2    1    2    0    0  0.31888555212E+02  0.20528516060E+02 -0.21102793413E+02  0.47787218729E+02  0.19999761472E+02 0.  0.
        -12    1    1    2    0    0 -0.31888555212E+02 -0.20528516060E+02  0.21102793413E+02  0.43400781271E+02  0.00000000000E+00 0.  1.
         11    1    3    3    0    0  0.30249103791E+02  0.15625450614E+02 -0.23440678768E+02  0.41335558644E+02  0.51100000000E-03 0. -1.
        -11    1    3    3    0    0  0.12520445387E+01  0.17035387354E+00  0.54066933395E+00  0.13743942516E+01  0.51100000000E-03 0.  1.
         12    1    3    3    0    0  0.38740688176E+00  0.47327115721E+01  0.17972160211E+01  0.50772658335E+01  0.00000000000E+00 0. -1.
</event>
<event>
 7    1  0.3884463E-009  0.4778726E+02  0.7816164E-02  0.1312668E+00
        -11   -1    0    0    0    0  0.00000000000E+00  0.00000000000E+00  0.45593999997E+02  0.45594000000E+02  0.51100000000E-03 0.  1.
         11   -1    0    0    0    0 -0.00000000000E+00 -0.00000000000E+00 -0.45593999997E+02  0.45594000000E+02  0.51100000000E-03 0. -1.
    9900012    2    1    2    0    0 -0.32246790397E+02  0.15446168665E+02  0.24600507725E+02  0.47787255794E+02  0.19999930465E+02 0.  0.
        -12    1    1    2    0    0  0.32246790397E+02 -0.15446168665E+02 -0.24600507725E+02  0.43400744206E+02  0.00000000000E+00 0.  1.
         11    1    3    3    0    0 -0.10479806551E+02  0.34961720123E+01  0.10940218602E+02  0.15547924215E+02  0.51100000000E-03 0. -1.
        -11    1    3    3    0    0 -0.15996437261E+02  0.15540629496E+01  0.31664024430E+01  0.16380696608E+02  0.51100000000E-03 0.  1.
        -12    1    3    3    0    0 -0.57705465855E+01  0.10395933703E+02  0.10493886680E+02  0.15858634970E+02  0.00000000000E+00 0.  1.
</event>
<event>
 7    1  0.3884463E-009  0.4778729E+02  0.7816164E-02  0.1312668E+00
        -11   -1    0    0    0    0  0.00000000000E+00  0.00000000000E+00  0.45593999997E+02  0.45594000000E+02  0.51100000000E-03 0.  1.
         11   -1    0    0    0    0 -0.00000000000E+00 -0.00000000000E+00 -0.45593999997E+02  0.45594000000E+02  0.51100000000E-03 0. -1.
    9900012    2    1    2    0    0  0.24877501674E+02 -0.26273404627E+02 -0.23967465476E+02  0.47787293996E+02  0.20000104646E+02 0.  0.
        -12    1    1    2    0    0 -0.24877501674E+02  0.26273404627E+02  0.23967465476E+02  0.43400706004E+02  0.00000000000E+00 0.  1.
         11    1    3    3    0    0  0.95303205875E+01 -0.74424232910E+01 -0.10720284844E+02  0.16159863315E+02  0.51100000000E-03 0. -1.
        -11    1    3    3    0    0  0.12465565189E+02 -0.35512936764E+01 -0.41352696935E+01  0.13605236417E+02  0.51100000000E-03 0.  1.
        -12    1    3    3    0    0  0.28816158982E+01 -0.15279687660E+02 -0.91119109382E+01  0.18022194265E+02  0.00000000000E+00 0.  1.
</event>
<event>
 7    1  0.3884463E-009  0.4778728E+02  0.7816164E-02  0.1312668E+00
        -11   -1    0    0    0    0  0.00000000000E+00  0.00000000000E+00  0.45593999997E+02  0.45594000000E+02  0.51100000000E-03 0.  1.
         11   -1    0    0    0    0 -0.00000000000E+00 -0.00000000000E+00 -0.45593999997E+02  0.45594000000E+02  0.51100000000E-03 0. -1.
    9900012    2    1    2    0    0  0.26506877240E+02  0.97202857121E+01 -0.32962461902E+02  0.47787281227E+02  0.20000046428E+02 0.  0.
        -12    1    1    2    0    0 -0.26506877240E+02 -0.97202857121E+01  0.32962461902E+02  0.43400718773E+02  0.00000000000E+00 0.  1.
         11    1    3    3    0    0  0.40019369872E+01 -0.17071783010E+01  0.19478026970E-01  0.43509007177E+01  0.51100000000E-03 0. -1.
        -11    1    3    3    0    0  0.10141245471E+02  0.36881605291E+00 -0.60753775552E+01  0.11827556708E+02  0.51100000000E-03 0.  1.
        -12    1    3    3    0    0  0.12363694782E+02  0.11058647960E+02 -0.26906562373E+02  0.31608823802E+02  0.00000000000E+00 0.  1.
</event>
<event>
 7    1  0.3884463E-009  0.4778728E+02  0.7816164E-02  0.1312668E+00
        -11   -1    0    0    0    0  0.00000000000E+00  0.00000000000E+00  0.45593999997E+02  0.45594000000E+02  0.51100000000E-03 0.  1.
         11   -1    0    0    0    0 -0.00000000000E+00 -0.00000000000E+00 -0.45593999997E+02  0.45594000000E+02  0.51100000000E-03 0. -1.
    9900012    2    1    2    0    0  0.10881467750E+02 -0.15601274165E+02 -0.39010469960E+02  0.47787275784E+02  0.20000021611E+02 0.  0.
        -12    1    1    2    0    0 -0.10881467750E+02  0.15601274165E+02  0.39010469960E+02  0.43400724216E+02  0.00000000000E+00 0.  1.
         11    1    3    3    0    0  0.62870136268E+01 -0.63243528727E+01 -0.17761088134E+02  0.19874109579E+02  0.51100000000E-03 0. -1.
        -11    1    3    3    0    0  0.93306422029E+01 -0.78226284121E+01 -0.10504340443E+02  0.16080906927E+02  0.51100000000E-03 0.  1.
        -12    1    3    3    0    0 -0.47361880800E+01 -0.14542928804E+01 -0.10745041383E+02  0.11832259278E+02  0.00000000000E+00 0.  1.
</event>
<event>
 7    1  0.3884463E-009  0.4778727E+02  0.7816164E-02  0.1312668E+00
        -11   -1    0    0    0    0  0.00000000000E+00  0.00000000000E+00  0.45593999997E+02  0.45594000000E+02  0.51100000000E-03 0. -1.
         11   -1    0    0    0    0 -0.00000000000E+00 -0.00000000000E+00 -0.45593999997E+02  0.45594000000E+02  0.51100000000E-03 0.  1.
    9900012    2    1    2    0    0  0.13118946797E+02 -0.24879333607E+02  0.33053521943E+02  0.47787270529E+02  0.19999997650E+02 0.  0.
        -12    1    1    2    0    0 -0.13118946797E+02  0.24879333607E+02 -0.33053521943E+02  0.43400729471E+02  0.00000000000E+00 0.  1.
         11    1    3    3    0    0  0.37908952920E+01 -0.31356463658E+01  0.16997251103E+02  0.17694906346E+02  0.51100000000E-03 0. -1.
        -11    1    3    3    0    0  0.75199004956E+01 -0.68705536686E+01  0.87265438805E+01  0.13412903471E+02  0.51100000000E-03 0.  1.
        -12    1    3    3    0    0  0.18081510093E+01 -0.14873133573E+02  0.73297269587E+01  0.16679460712E+02  0.00000000000E+00 0.  1.
</event>
<event>
 7    1  0.3884463E-009  0.4778727E+02  0.7816164E-02  0.1312668E+00
        -11   -1    0    0    0    0  0.00000000000E+00  0.00000000000E+00  0.45593999997E+02  0.45594000000E+02  0.51100000000E-03 0.  1.
         11   -1    0    0    0    0 -0.00000000000E+00 -0.00000000000E+00 -0.45593999997E+02  0.45594000000E+02  0.51100000000E-03 0. -1.
    9900012    2    1    2    0    0  0.37452329853E+02 -0.20808426931E+02 -0.69250354615E+01  0.47787265456E+02  0.19999974521E+02 0.  0.
        -12    1    1    2    0    0 -0.37452329853E+02  0.20808426931E+02  0.69250354615E+01  0.43400734544E+02  0.00000000000E+00 0.  1.
         11    1    3    3    0    0  0.79280888741E+01 -0.96337471397E+01 -0.43541290007E+01  0.13214466193E+02  0.51100000000E-03 0. -1.
        -11    1    3    3    0    0  0.29363288552E+01  0.16441716017E+01 -0.37421518191E+01  0.50327952372E+01  0.51100000000E-03 0.  1.
         12    1    3    3    0    0  0.26587912124E+02 -0.12818851393E+02  0.11712453584E+01  0.29540004026E+02  0.00000000000E+00 0. -1.
</event>
<event>
 7    1  0.3884463E-009  0.4778725E+02  0.7816164E-02  0.1312668E+00
        -11   -1    0    0    0    0  0.00000000000E+00  0.00000000000E+00  0.45593999997E+02  0.45594000000E+02  0.51100000000E-03 0.  1.
         11   -1    0    0    0    0 -0.00000000000E+00 -0.00000000000E+00 -0.45593999997E+02  0.45594000000E+02  0.51100000000E-03 0. -1.
    9900012    2    1    2    0    0  0.32289409629E+02  0.24772582891E+02 -0.15077747273E+02  0.47787247701E+02  0.19999893569E+02 0.  0.
        -12    1    1    2    0    0 -0.32289409629E+02 -0.24772582891E+02  0.15077747273E+02  0.43400752299E+02  0.00000000000E+00 0.  1.
         11    1    3    3    0    0  0.14028635936E+02  0.70627232377E+01 -0.47846423116E+01  0.16418815063E+02  0.51100000000E-03 0. -1.
        -11    1    3    3    0    0  0.43072158428E+01  0.54727534390E+01  0.39200796626E+01  0.79918810891E+01  0.51100000000E-03 0.  1.
         12    1    3    3    0    0  0.13953557850E+02  0.12237106214E+02 -0.14213184624E+02  0.23376551549E+02  0.00000000000E+00 0. -1.
</event>
<event>
 7    1  0.3884463E-009  0.4778725E+02  0.7816164E-02  0.1312668E+00
        -11   -1    0    0    0    0  0.00000000000E+00  0.00000000000E+00  0.45593999997E+02  0.45594000000E+02  0.51100000000E-03 0.  1.
         11   -1    0    0    0    0 -0.00000000000E+00 -0.00000000000E+00 -0.45593999997E+02  0.45594000000E+02  0.51100000000E-03 0. -1.
    9900012    2    1    2    0    0 -0.14917786613E+02  0.37916125077E+02 -0.14948324409E+02  0.47787247692E+02  0.19999893525E+02 0.  0.
        -12    1    1    2    0    0  0.14917786613E+02 -0.37916125077E+02  0.14948324409E+02  0.43400752308E+02  0.00000000000E+00 0.  1.
         11    1    3    3    0    0  0.78946478021E+00  0.25750063673E+00  0.57484966814E+00  0.10099572363E+01  0.51100000000E-03 0.  1.
        -11    1    3    3    0    0 -0.38953221301E+01  0.21746292232E+02 -0.15451902973E+02  0.26959897368E+02  0.51100000000E-03 0. -1.
         12    1    3    3    0    0 -0.11811929263E+02  0.15912332208E+02 -0.71271104871E-01  0.19817393088E+02  0.00000000000E+00 0. -1.
</event>
<event>
 7    1  0.5185751E-009  0.4778727E+02  0.7816164E-02  0.1312668E+00
        -11   -1    0    0    0    0  0.00000000000E+00  0.00000000000E+00  0.45593999997E+02  0.45594000000E+02  0.51100000000E-03 0.  1.
         11   -1    0    0    0    0 -0.00000000000E+00 -0.00000000000E+00 -0.45593999997E+02  0.45594000000E+02  0.51100000000E-03 0. -1.
    9900012    2    1    2    0    0 -0.30225926026E+02  0.30944980996E+02  0.35248556247E+01  0.47787273507E+02  0.20000011227E+02 0.  0.
        -12    1    1    2    0    0  0.30225926026E+02 -0.30944980996E+02 -0.35248556247E+01  0.43400726493E+02  0.00000000000E+00 0.  1.
         11    1    3    3    0    0 -0.15230222581E+02  0.21045828037E+02  0.49872402516E+01  0.26452960575E+02  0.51100000000E-03 0.  1.
        -11    1    3    3    0    0  0.14427853310E+01  0.23595376625E+01  0.12711513724E+01  0.30438254820E+01  0.51100000000E-03 0. -1.
         12    1    3    3    0    0 -0.16438488777E+02  0.75396152961E+01 -0.27335359993E+01  0.18290487449E+02  0.00000000000E+00 0. -1.
</event>
<event>
 7    1  0.3884463E-009  0.4778727E+02  0.7816164E-02  0.1312668E+00
        -11   -1    0    0    0    0  0.00000000000E+00  0.00000000000E+00  0.45593999997E+02  0.45594000000E+02  0.51100000000E-03 0. -1.
         11   -1    0    0    0    0 -0.00000000000E+00 -0.00000000000E+00 -0.45593999997E+02  0.45594000000E+02  0.51100000000E-03 0.  1.
    9900012    2    1    2    0    0 -0.45690112221E+01 -0.10276563444E+02  0.41918248477E+02  0.47787272182E+02  0.20000005187E+02 0.  0.
        -12    1    1    2    0    0  0.45690112221E+01  0.10276563444E+02 -0.41918248477E+02  0.43400727818E+02  0.00000000000E+00 0.  1.
         11    1    3    3    0    0  0.83415573027E-01 -0.15043678610E+02  0.30044836895E+02  0.33600765595E+02  0.51100000000E-03 0. -1.
        -11    1    3    3    0    0  0.36715623257E+00  0.95576118341E+00  0.38492228504E+01  0.39830641411E+01  0.51100000000E-03 0.  1.
        -12    1    3    3    0    0 -0.50195830277E+01  0.38113539825E+01  0.80241887316E+01  0.10203442446E+02  0.00000000000E+00 0.  1.
</event>
<event>
 7    1  0.3884463E-009  0.4778727E+02  0.7816164E-02  0.1312668E+00
        -11   -1    0    0    0    0  0.00000000000E+00  0.00000000000E+00  0.45593999997E+02  0.45594000000E+02  0.51100000000E-03 0.  1.
         11   -1    0    0    0    0 -0.00000000000E+00 -0.00000000000E+00 -0.45593999997E+02  0.45594000000E+02  0.51100000000E-03 0. -1.
    9900012    2    1    2    0    0 -0.77752352485E+01  0.29170849623E+02 -0.31180612807E+02  0.47787269984E+02  0.19999995166E+02 0.  0.
        -12    1    1    2    0    0  0.77752352485E+01 -0.29170849623E+02  0.31180612807E+02  0.43400730016E+02  0.00000000000E+00 0.  1.
         11    1    3    3    0    0 -0.28235492945E+01  0.97085520448E+01 -0.35738029741E+01  0.10723827739E+02  0.51100000000E-03 0. -1.
        -11    1    3    3    0    0 -0.11794973690E+01  0.15918135487E+02 -0.10293542173E+02  0.18993031937E+02  0.51100000000E-03 0.  1.
        -12    1    3    3    0    0 -0.37721885851E+01  0.35441620909E+01 -0.17313267659E+02  0.18070410308E+02  0.00000000000E+00 0.  1.
</event>
<event>
 7    1  0.3884463E-009  0.4778727E+02  0.7816164E-02  0.1312668E+00
        -11   -1    0    0    0    0  0.00000000000E+00  0.00000000000E+00  0.45593999997E+02  0.45594000000E+02  0.51100000000E-03 0.  1.
         11   -1    0    0    0    0 -0.00000000000E+00 -0.00000000000E+00 -0.45593999997E+02  0.45594000000E+02  0.51100000000E-03 0. -1.
    9900012    2    1    2    0    0  0.25392281374E+02  0.28075828473E+02 -0.21227413301E+02  0.47787272203E+02  0.20000005284E+02 0.  0.
        -12    1    1    2    0    0 -0.25392281374E+02 -0.28075828473E+02  0.21227413301E+02  0.43400727797E+02  0.00000000000E+00 0.  1.
         11    1    3    3    0    0  0.17558169511E+02  0.21465387711E+02 -0.16360849876E+02  0.32198285593E+02  0.51100000000E-03 0. -1.
        -11    1    3    3    0    0  0.38262633921E+01  0.68301251813E+01 -0.74569008303E+01  0.10811857925E+02  0.51100000000E-03 0.  1.
        -12    1    3    3    0    0  0.40078484707E+01 -0.21968441939E+00  0.25903374052E+01  0.47771286859E+01  0.00000000000E+00 0.  1.
</event>
<event>
 7    1  0.3884463E-009  0.4778727E+02  0.7816164E-02  0.1312668E+00
        -11   -1    0    0    0    0  0.00000000000E+00  0.00000000000E+00  0.45593999997E+02  0.45594000000E+02  0.51100000000E-03 0. -1.
         11   -1    0    0    0    0 -0.00000000000E+00 -0.00000000000E+00 -0.45593999997E+02  0.45594000000E+02  0.51100000000E-03 0.  1.
    9900012    2    1    2    0    0  0.94484982159E+01  0.26822005660E+02  0.32786113521E+02  0.47787270214E+02  0.19999996215E+02 0.  0.
        -12    1    1    2    0    0 -0.94484982159E+01 -0.26822005660E+02 -0.32786113521E+02  0.43400729786E+02  0.00000000000E+00 0.  1.
         11    1    3    3    0    0  0.41613369501E+01  0.18726520206E+02  0.26743207168E+02  0.32911979797E+02  0.51100000000E-03 0. -1.
        -11    1    3    3    0    0  0.11232842691E+01  0.70676948445E+01  0.74800469633E+01  0.10352061669E+02  0.51100000000E-03 0.  1.
        -12    1    3    3    0    0  0.41638769967E+01  0.10277906089E+01 -0.14371406104E+01  0.45232287487E+01  0.00000000000E+00 0.  1.
</event>
<event>
 7    1  0.3884463E-009  0.4778727E+02  0.7816164E-02  0.1312668E+00
        -11   -1    0    0    0    0  0.00000000000E+00  0.00000000000E+00  0.45593999997E+02  0.45594000000E+02  0.51100000000E-03 0.  1.
         11   -1    0    0    0    0 -0.00000000000E+00 -0.00000000000E+00 -0.45593999997E+02  0.45594000000E+02  0.51100000000E-03 0. -1.
    9900012    2    1    2    0    0  0.37276633977E+02 -0.79563384870E+00 -0.22213574275E+02  0.47787270099E+02  0.19999995688E+02 0.  0.
        -12    1    1    2    0    0 -0.37276633977E+02  0.79563384870E+00  0.22213574275E+02  0.43400729901E+02  0.00000000000E+00 0.  1.
         11    1    3    3    0    0  0.48555940987E+01 -0.28567488231E+01  0.11095177337E+01  0.57418496804E+01  0.51100000000E-03 0. -1.
        -11    1    3    3    0    0  0.19682386647E+02 -0.30667437896E+01 -0.79911522251E+01  0.21462986180E+02  0.51100000000E-03 0.  1.
         12    1    3    3    0    0  0.12738653231E+02  0.51278587640E+01 -0.15331939784E+02  0.20582434238E+02  0.00000000000E+00 0. -1.
</event>
<event>
 7    1  0.3884463E-009  0.4778727E+02  0.7816164E-02  0.1312668E+00
        -11   -1    0    0    0    0  0.00000000000E+00  0.00000000000E+00  0.45593999997E+02  0.45594000000E+02  0.51100000000E-03 0.  1.
         11   -1    0    0    0    0 -0.00000000000E+00 -0.00000000000E+00 -0.45593999997E+02  0.45594000000E+02  0.51100000000E-03 0. -1.
    9900012    2    1    2    0    0 -0.40810586582E+02  0.12889456289E+02 -0.72097873013E+01  0.47787273122E+02  0.20000009473E+02 0.  0.
        -12    1    1    2    0    0  0.40810586582E+02 -0.12889456289E+02  0.72097873013E+01  0.43400726878E+02  0.00000000000E+00 0.  1.
         11    1    3    3    0    0  0.39584424407E+00  0.23743373139E+01 -0.36880329568E+00  0.24351974207E+01  0.51100000000E-03 0. -1.
        -11    1    3    3    0    0 -0.53280846228E+01  0.24580165114E+01  0.38975817299E+01  0.70442511682E+01  0.51100000000E-03 0.  1.
         12    1    3    3    0    0 -0.35878346203E+02  0.80571024637E+01 -0.10738565736E+02  0.38307824533E+02  0.00000000000E+00 0. -1.
</event>
<event>
 7    1  0.3884463E-009  0.4778728E+02  0.7816164E-02  0.1312668E+00
        -11   -1    0    0    0    0  0.00000000000E+00  0.00000000000E+00  0.45593999997E+02  0.45594000000E+02  0.51100000000E-03 0.  1.
         11   -1    0    0    0    0 -0.00000000000E+00 -0.00000000000E+00 -0.45593999997E+02  0.45594000000E+02  0.51100000000E-03 0. -1.
    9900012    2    1    2    0    0 -0.34117645438E+02 -0.24642103452E+02 -0.10600742442E+02  0.47787277274E+02  0.20000028404E+02 0.  0.
        -12    1    1    2    0    0  0.34117645438E+02  0.24642103452E+02  0.10600742442E+02  0.43400722726E+02  0.00000000000E+00 0.  1.
         11    1    3    3    0    0 -0.44734153724E+01 -0.55816020722E+01 -0.70646204184E+01  0.10053585863E+02  0.51100000000E-03 0. -1.
        -11    1    3    3    0    0 -0.81841827173E+01 -0.11305043168E+01 -0.51277835732E+01  0.97238393341E+01  0.51100000000E-03 0.  1.
         12    1    3    3    0    0 -0.21460047349E+02 -0.17929997063E+02  0.15916615498E+01  0.28009852077E+02  0.00000000000E+00 0. -1.
</event>
<event>
 7    1  0.3884463E-009  0.4778724E+02  0.7816164E-02  0.1312668E+00
        -11   -1    0    0    0    0  0.00000000000E+00  0.00000000000E+00  0.45593999997E+02  0.45594000000E+02  0.51100000000E-03 0. -1.
         11   -1    0    0    0    0 -0.00000000000E+00 -0.00000000000E+00 -0.45593999997E+02  0.45594000000E+02  0.51100000000E-03 0.  1.
    9900012    2    1    2    0    0  0.27138823013E+02  0.33528245402E+02  0.47923939392E+01  0.47787239708E+02  0.19999857126E+02 0.  0.
        -12    1    1    2    0    0 -0.27138823013E+02 -0.33528245402E+02 -0.47923939392E+01  0.43400760292E+02  0.00000000000E+00 0.  1.
         11    1    3    3    0    0  0.61214616681E+01  0.17675873205E+02 -0.10707756175E+01  0.18736471045E+02  0.51100000000E-03 0. -1.
        -11    1    3    3    0    0  0.73908483957E+00 -0.30396190787E+00 -0.18375745998E+01  0.20038263180E+01  0.51100000000E-03 0.  1.
         12    1    3    3    0    0  0.20278276505E+02  0.16156334104E+02  0.77007441566E+01  0.27046942346E+02  0.00000000000E+00 0. -1.
</event>
<event>
 7    1  0.3884463E-009  0.4778727E+02  0.7816164E-02  0.1312668E+00
        -11   -1    0    0    0    0  0.00000000000E+00  0.00000000000E+00  0.45593999997E+02  0.45594000000E+02  0.51100000000E-03 0.  1.
         11   -1    0    0    0    0 -0.00000000000E+00 -0.00000000000E+00 -0.45593999997E+02  0.45594000000E+02  0.51100000000E-03 0. -1.
    9900012    2    1    2    0    0 -0.40268517957E+02  0.65093001129E+01  0.14822235664E+02  0.47787271935E+02  0.20000004063E+02 0.  0.
        -12    1    1    2    0    0  0.40268517957E+02 -0.65093001129E+01 -0.14822235664E+02  0.43400728065E+02  0.00000000000E+00 0.  1.
         11    1    3    3    0    0 -0.32864028233E+02  0.87873036760E+01  0.10062344367E+02  0.35475510313E+02  0.51100000000E-03 0. -1.
        -11    1    3    3    0    0  0.94357846539E+00  0.13549847859E+01 -0.58824322948E+00  0.17528132954E+01  0.51100000000E-03 0.  1.
        -12    1    3    3    0    0 -0.83480681904E+01 -0.36329883490E+01  0.53481345269E+01  0.10558948327E+02  0.00000000000E+00 0.  1.
</event>
<event>
 7    1  0.3884463E-009  0.4778728E+02  0.7816164E-02  0.1312668E+00
        -11   -1    0    0    0    0  0.00000000000E+00  0.00000000000E+00  0.45593999997E+02  0.45594000000E+02  0.51100000000E-03 0.  1.
         11   -1    0    0    0    0 -0.00000000000E+00 -0.00000000000E+00 -0.45593999997E+02  0.45594000000E+02  0.51100000000E-03 0. -1.
    9900012    2    1    2    0    0 -0.36786700379E+02  0.17835680414E+01 -0.22960405114E+02  0.47787278316E+02  0.20000033154E+02 0.  0.
        -12    1    1    2    0    0  0.36786700379E+02 -0.17835680414E+01  0.22960405114E+02  0.43400721684E+02  0.00000000000E+00 0.  1.
         11    1    3    3    0    0 -0.29428037217E+01 -0.76693726533E+00 -0.77866150648E+01  0.83594055376E+01  0.51100000000E-03 0. -1.
        -11    1    3    3    0    0 -0.25267492955E+02 -0.79667724290E+00 -0.16409493872E+02  0.30138884921E+02  0.51100000000E-03 0.  1.
        -12    1    3    3    0    0 -0.85764037016E+01  0.33471825496E+01  0.12357038233E+01  0.92889878573E+01  0.00000000000E+00 0.  1.
</event>
<event>
 7    1  0.3884463E-009  0.4778726E+02  0.7816164E-02  0.1312668E+00
        -11   -1    0    0    0    0  0.00000000000E+00  0.00000000000E+00  0.45593999997E+02  0.45594000000E+02  0.51100000000E-03 0.  1.
         11   -1    0    0    0    0 -0.00000000000E+00 -0.00000000000E+00 -0.45593999997E+02  0.45594000000E+02  0.51100000000E-03 0. -1.
    9900012    2    1    2    0    0  0.88978485386E+01  0.40695894802E+02  0.12177709233E+02  0.47787260784E+02  0.19999953220E+02 0.  0.
        -12    1    1    2    0    0 -0.88978485386E+01 -0.40695894802E+02 -0.12177709233E+02  0.43400739216E+02  0.00000000000E+00 0.  1.
         11    1    3    3    0    0 -0.11584575657E+01 -0.92050882700E+00 -0.44382970644E-01  0.14803143386E+01  0.51100000000E-03 0. -1.
        -11    1    3    3    0    0  0.87902092474E+01  0.13030892152E+02  0.16586726534E+01  0.15805794005E+02  0.51100000000E-03 0.  1.
         12    1    3    3    0    0  0.12660968568E+01  0.28585511476E+02  0.10563419550E+02  0.30501152441E+02  0.00000000000E+00 0. -1.
</event>
<event>
 7    1  0.3884463E-009  0.4778726E+02  0.7816164E-02  0.1312668E+00
        -11   -1    0    0    0    0  0.00000000000E+00  0.00000000000E+00  0.45593999997E+02  0.45594000000E+02  0.51100000000E-03 0. -1.
         11   -1    0    0    0    0 -0.00000000000E+00 -0.00000000000E+00 -0.45593999997E+02  0.45594000000E+02  0.51100000000E-03 0.  1.
    9900012    2    1    2    0    0  0.29498827128E+02  0.31599297964E+02 -0.38636403307E+01  0.47787260947E+02  0.19999953962E+02 0.  0.
        -12    1    1    2    0    0 -0.29498827128E+02 -0.31599297964E+02  0.38636403307E+01  0.43400739053E+02  0.00000000000E+00 0.  1.
         11    1    3    3    0    0  0.58981841275E+01  0.77600980868E+00 -0.34074717278E+01  0.68557735568E+01  0.51100000000E-03 0.  1.
        -11    1    3    3    0    0  0.98874097154E+01  0.16004075586E+02 -0.64219193486E+01  0.19877936377E+02  0.51100000000E-03 0. -1.
         12    1    3    3    0    0  0.13713233285E+02  0.14819212569E+02  0.59657507456E+01  0.21053551013E+02  0.00000000000E+00 0. -1.
</event>
<event>
 7    1  0.3884463E-009  0.4778727E+02  0.7816164E-02  0.1312668E+00
        -11   -1    0    0    0    0  0.00000000000E+00  0.00000000000E+00  0.45593999997E+02  0.45594000000E+02  0.51100000000E-03 0. -1.
         11   -1    0    0    0    0 -0.00000000000E+00 -0.00000000000E+00 -0.45593999997E+02  0.45594000000E+02  0.51100000000E-03 0.  1.
    9900012    2    1    2    0    0  0.46226580141E+01  0.25970139423E+02  0.34464562910E+02  0.47787271834E+02  0.20000003600E+02 0.  0.
        -12    1    1    2    0    0 -0.46226580141E+01 -0.25970139423E+02 -0.34464562910E+02  0.43400728166E+02  0.00000000000E+00 0.  1.
         11    1    3    3    0    0  0.25493437863E+01  0.93491486918E+01  0.17441767672E+02  0.19952969573E+02  0.51100000000E-03 0. -1.
        -11    1    3    3    0    0 -0.18597098526E+01  0.14995321483E+02  0.64353058338E+01  0.16423499887E+02  0.51100000000E-03 0.  1.
        -12    1    3    3    0    0  0.39330240804E+01  0.16256692479E+01  0.10587489404E+02  0.11410802373E+02  0.00000000000E+00 0.  1.
</event>
<event>
 7    1  0.3884463E-009  0.4778727E+02  0.7816164E-02  0.1312668E+00
        -11   -1    0    0    0    0  0.00000000000E+00  0.00000000000E+00  0.45593999997E+02  0.45594000000E+02  0.51100000000E-03 0.  1.
         11   -1    0    0    0    0 -0.00000000000E+00 -0.00000000000E+00 -0.45593999997E+02  0.45594000000E+02  0.51100000000E-03 0. -1.
    9900012    2    1    2    0    0 -0.66879306165E+01 -0.35889456335E+02 -0.23470020220E+02  0.47787270270E+02  0.19999996470E+02 0.  0.
        -12    1    1    2    0    0  0.66879306165E+01  0.35889456335E+02  0.23470020220E+02  0.43400729730E+02  0.00000000000E+00 0.  1.
         11    1    3    3    0    0 -0.73319319298E+01 -0.21412166494E+02 -0.18651155759E+02  0.29327524805E+02  0.51100000000E-03 0. -1.
        -11    1    3    3    0    0  0.19798496274E+01 -0.14544899501E+02 -0.67127989678E+01  0.16141114468E+02  0.51100000000E-03 0.  1.
        -12    1    3    3    0    0 -0.13358483141E+01  0.67609659401E-01  0.18939345068E+01  0.23186309970E+01  0.00000000000E+00 0.  1.
</event>
<event>
 7    1  0.3884463E-009  0.4778727E+02  0.7816164E-02  0.1312668E+00
        -11   -1    0    0    0    0  0.00000000000E+00  0.00000000000E+00  0.45593999997E+02  0.45594000000E+02  0.51100000000E-03 0. -1.
         11   -1    0    0    0    0 -0.00000000000E+00 -0.00000000000E+00 -0.45593999997E+02  0.45594000000E+02  0.51100000000E-03 0.  1.
    9900012    2    1    2    0    0 -0.12554390857E+02 -0.34102258337E+02  0.23728603702E+02  0.47787269740E+02  0.19999994053E+02 0.  0.
        -12    1    1    2    0    0  0.12554390857E+02  0.34102258337E+02 -0.23728603702E+02  0.43400730260E+02  0.00000000000E+00 0.  1.
         11    1    3    3    0    0 -0.13155512126E+02 -0.94528229288E+01  0.98175614831E+01  0.18942224641E+02  0.51100000000E-03 0. -1.
        -11    1    3    3    0    0  0.14668852833E+01 -0.10150471624E+02  0.85840616615E+01  0.13374226763E+02  0.51100000000E-03 0.  1.
        -12    1    3    3    0    0 -0.86576401400E+00 -0.14498963783E+02  0.53269805576E+01  0.15470818336E+02  0.00000000000E+00 0.  1.
</event>
<event>
 7    1  0.3884463E-009  0.4778727E+02  0.7816164E-02  0.1312668E+00
        -11   -1    0    0    0    0  0.00000000000E+00  0.00000000000E+00  0.45593999997E+02  0.45594000000E+02  0.51100000000E-03 0.  1.
         11   -1    0    0    0    0 -0.00000000000E+00 -0.00000000000E+00 -0.45593999997E+02  0.45594000000E+02  0.51100000000E-03 0. -1.
    9900012    2    1    2    0    0  0.22267850556E+02 -0.17848333966E+02 -0.32698670001E+02  0.47787271739E+02  0.20000003167E+02 0.  0.
        -12    1    1    2    0    0 -0.22267850556E+02  0.17848333966E+02  0.32698670001E+02  0.43400728261E+02  0.00000000000E+00 0.  1.
         11    1    3    3    0    0 -0.29483164237E+00  0.15030152503E+01 -0.24551637812E+01  0.28937536166E+01  0.51100000000E-03 0. -1.
        -11    1    3    3    0    0  0.38068279881E+01 -0.12693440258E+02 -0.12914511348E+02  0.18504052760E+02  0.51100000000E-03 0.  1.
        -12    1    3    3    0    0  0.18755854210E+02 -0.66579089574E+01 -0.17328994872E+02  0.26389465362E+02  0.00000000000E+00 0.  1.
</event>
<event>
 7    1  0.3884463E-009  0.4778727E+02  0.7816164E-02  0.1312668E+00
        -11   -1    0    0    0    0  0.00000000000E+00  0.00000000000E+00  0.45593999997E+02  0.45594000000E+02  0.51100000000E-03 0.  1.
         11   -1    0    0    0    0 -0.00000000000E+00 -0.00000000000E+00 -0.45593999997E+02  0.45594000000E+02  0.51100000000E-03 0. -1.
    9900012    2    1    2    0    0 -0.19689425907E+01 -0.43289528994E+02  0.24007364512E+01  0.47787267392E+02  0.19999983346E+02 0.  0.
        -12    1    1    2    0    0  0.19689425907E+01  0.43289528994E+02 -0.24007364512E+01  0.43400732608E+02  0.00000000000E+00 0.  1.
         11    1    3    3    0    0  0.32497362736E+01 -0.86607301671E+01 -0.12142415316E+01  0.93297060851E+01  0.51100000000E-03 0.  1.
        -11    1    3    3    0    0  0.12776148315E+01 -0.80455228822E+01 -0.52505288744E+01  0.96917899187E+01  0.51100000000E-03 0. -1.
        -12    1    3    3    0    0 -0.64962936958E+01 -0.26583275944E+02  0.88655068572E+01  0.28765771388E+02  0.00000000000E+00 0.  1.
</event>
<event>
 7    1  0.3884463E-009  0.4778727E+02  0.7816164E-02  0.1312668E+00
        -11   -1    0    0    0    0  0.00000000000E+00  0.00000000000E+00  0.45593999997E+02  0.45594000000E+02  0.51100000000E-03 0.  1.
         11   -1    0    0    0    0 -0.00000000000E+00 -0.00000000000E+00 -0.45593999997E+02  0.45594000000E+02  0.51100000000E-03 0. -1.
    9900012    2    1    2    0    0  0.30477749030E+02 -0.26628665796E+02 -0.15673047619E+02  0.47787269019E+02  0.19999990763E+02 0.  0.
        -12    1    1    2    0    0 -0.30477749030E+02  0.26628665796E+02  0.15673047619E+02  0.43400730981E+02  0.00000000000E+00 0.  1.
         11    1    3    3    0    0  0.98871474053E+01 -0.51417776551E+01 -0.71642547455E+01  0.13248400190E+02  0.51100000000E-03 0. -1.
        -11    1    3    3    0    0  0.15813125038E+02 -0.74314960211E+01 -0.90637919080E+01  0.19683352880E+02  0.51100000000E-03 0.  1.
         12    1    3    3    0    0  0.47774765875E+01 -0.14055392120E+02  0.55499903429E+00  0.14855515949E+02  0.00000000000E+00 0. -1.
</event>
<event>
 7    1  0.3884463E-009  0.4778727E+02  0.7816164E-02  0.1312668E+00
        -11   -1    0    0    0    0  0.00000000000E+00  0.00000000000E+00  0.45593999997E+02  0.45594000000E+02  0.51100000000E-03 0. -1.
         11   -1    0    0    0    0 -0.00000000000E+00 -0.00000000000E+00 -0.45593999997E+02  0.45594000000E+02  0.51100000000E-03 0.  1.
    9900012    2    1    2    0    0 -0.42086524068E+02 -0.48893122572E+01 -0.94043870050E+01  0.47787269851E+02  0.19999994561E+02 0.  0.
        -12    1    1    2    0    0  0.42086524068E+02  0.48893122572E+01  0.94043870050E+01  0.43400730149E+02  0.00000000000E+00 0.  1.
         11    1    3    3    0    0 -0.10594150181E+02 -0.16676604624E+01  0.41742475942E+01  0.11508321020E+02  0.51100000000E-03 0. -1.
        -11    1    3    3    0    0 -0.50259163481E+01 -0.50148116453E+01 -0.24286055560E+01  0.75037521404E+01  0.51100000000E-03 0.  1.
        -12    1    3    3    0    0 -0.26466457539E+02  0.17931598504E+01 -0.11150029043E+02  0.28775196691E+02  0.00000000000E+00 0.  1.
</event>
<event>
 7    1  0.3884463E-009  0.4778727E+02  0.7816164E-02  0.1312668E+00
        -11   -1    0    0    0    0  0.00000000000E+00  0.00000000000E+00  0.45593999997E+02  0.45594000000E+02  0.51100000000E-03 0.  1.
         11   -1    0    0    0    0 -0.00000000000E+00 -0.00000000000E+00 -0.45593999997E+02  0.45594000000E+02  0.51100000000E-03 0. -1.
    9900012    2    1    2    0    0  0.42642892442E+02  0.79122225406E+01 -0.16136043297E+01  0.47787271201E+02  0.20000000714E+02 0.  0.
        -12    1    1    2    0    0 -0.42642892442E+02 -0.79122225406E+01  0.16136043297E+01  0.43400728799E+02  0.00000000000E+00 0.  1.
         11    1    3    3    0    0  0.25068595670E+02  0.38793667994E+01 -0.91626569771E+01  0.26971063360E+02  0.51100000000E-03 0. -1.
        -11    1    3    3    0    0  0.94342902583E+01  0.50348604821E+01  0.19094031549E+01  0.10862848311E+02  0.51100000000E-03 0.  1.
        -12    1    3    3    0    0  0.81400065138E+01 -0.10020047409E+01  0.56396494926E+01  0.99533595305E+01  0.00000000000E+00 0.  1.
</event>
<event>
 7    1  0.3884463E-009  0.4778727E+02  0.7816164E-02  0.1312668E+00
        -11   -1    0    0    0    0  0.00000000000E+00  0.00000000000E+00  0.45593999997E+02  0.45594000000E+02  0.51100000000E-03 0.  1.
         11   -1    0    0    0    0 -0.00000000000E+00 -0.00000000000E+00 -0.45593999997E+02  0.45594000000E+02  0.51100000000E-03 0. -1.
    9900012    2    1    2    0    0  0.10638938619E+02  0.37922401436E+02 -0.18229858889E+02  0.47787270735E+02  0.19999998591E+02 0.  0.
        -12    1    1    2    0    0 -0.10638938619E+02 -0.37922401436E+02  0.18229858889E+02  0.43400729265E+02  0.00000000000E+00 0.  1.
         11    1    3    3    0    0  0.85136266402E+01  0.24297176187E+02 -0.96891826120E+01  0.27508450869E+02  0.51100000000E-03 0.  1.
        -11    1    3    3    0    0  0.64676033164E+00  0.15327020533E+02 -0.92522603550E+01  0.17914803356E+02  0.51100000000E-03 0. -1.
        -12    1    3    3    0    0  0.14785516475E+01 -0.17017952844E+01  0.71158407765E+00  0.23640165109E+01  0.00000000000E+00 0.  1.
</event>
<event>
 7    1  0.3884463E-009  0.4778728E+02  0.7816164E-02  0.1312668E+00
        -11   -1    0    0    0    0  0.00000000000E+00  0.00000000000E+00  0.45593999997E+02  0.45594000000E+02  0.51100000000E-03 0.  1.
         11   -1    0    0    0    0 -0.00000000000E+00 -0.00000000000E+00 -0.45593999997E+02  0.45594000000E+02  0.51100000000E-03 0. -1.
    9900012    2    1    2    0    0 -0.41338813405E+02  0.66379845144E-01 -0.13218205634E+02  0.47787275811E+02  0.20000021731E+02 0.  0.
        -12    1    1    2    0    0  0.41338813405E+02 -0.66379845144E-01  0.13218205634E+02  0.43400724189E+02  0.00000000000E+00 0.  1.
         11    1    3    3    0    0 -0.24886329525E+01 -0.14378149701E+01  0.31264352343E+01  0.42467874206E+01  0.51100000000E-03 0. -1.
        -11    1    3    3    0    0 -0.91785924870E+01  0.52870027678E+00  0.84980999611E+00  0.92329985008E+01  0.51100000000E-03 0.  1.
         12    1    3    3    0    0 -0.29671587965E+02  0.97549453844E+00 -0.17194450864E+02  0.34307489889E+02  0.00000000000E+00 0. -1.
</event>
<event>
 7    1  0.3884463E-009  0.4778727E+02  0.7816164E-02  0.1312668E+00
        -11   -1    0    0    0    0  0.00000000000E+00  0.00000000000E+00  0.45593999997E+02  0.45594000000E+02  0.51100000000E-03 0. -1.
         11   -1    0    0    0    0 -0.00000000000E+00 -0.00000000000E+00 -0.45593999997E+02  0.45594000000E+02  0.51100000000E-03 0.  1.
    9900012    2    1    2    0    0 -0.84749499032E+01 -0.32960961898E+02  0.26932764067E+02  0.47787267686E+02  0.19999984689E+02 0.  0.
        -12    1    1    2    0    0  0.84749499032E+01  0.32960961898E+02 -0.26932764067E+02  0.43400732314E+02  0.00000000000E+00 0.  1.
         11    1    3    3    0    0 -0.67938273357E+01 -0.26696158641E+02  0.13103641522E+02  0.30504858587E+02  0.51100000000E-03 0. -1.
        -11    1    3    3    0    0  0.19036465395E+01  0.27698315129E+00  0.46776069326E+00  0.19797449686E+01  0.51100000000E-03 0.  1.
         12    1    3    3    0    0 -0.35847691070E+01 -0.65417864084E+01  0.13361361851E+02  0.15302664130E+02  0.00000000000E+00 0. -1.
</event>
<event>
 7    1  0.3884463E-009  0.4778727E+02  0.7816164E-02  0.1312668E+00
        -11   -1    0    0    0    0  0.00000000000E+00  0.00000000000E+00  0.45593999997E+02  0.45594000000E+02  0.51100000000E-03 0. -1.
         11   -1    0    0    0    0 -0.00000000000E+00 -0.00000000000E+00 -0.45593999997E+02  0.45594000000E+02  0.51100000000E-03 0.  1.
    9900012    2    1    2    0    0 -0.41392527597E+02  0.39237490976E+00 -0.13043319821E+02  0.47787268544E+02  0.19999988601E+02 0.  0.
        -12    1    1    2    0    0  0.41392527597E+02 -0.39237490976E+00  0.13043319821E+02  0.43400731456E+02  0.00000000000E+00 0.  1.
         11    1    3    3    0    0  0.10857191655E+01 -0.14187887769E+01  0.63711868170E+00  0.18967520068E+01  0.51100000000E-03 0. -1.
        -11    1    3    3    0    0 -0.29965999221E+01  0.28905632362E+01 -0.24397931465E+01  0.48257183687E+01  0.51100000000E-03 0.  1.
         12    1    3    3    0    0 -0.39481646840E+02 -0.10793995496E+01 -0.11240645356E+02  0.41064798169E+02  0.00000000000E+00 0. -1.
</event>
<event>
 7    1  0.3884463E-009  0.4778727E+02  0.7816164E-02  0.1312668E+00
        -11   -1    0    0    0    0  0.00000000000E+00  0.00000000000E+00  0.45593999997E+02  0.45594000000E+02  0.51100000000E-03 0.  1.
         11   -1    0    0    0    0 -0.00000000000E+00 -0.00000000000E+00 -0.45593999997E+02  0.45594000000E+02  0.51100000000E-03 0. -1.
    9900012    2    1    2    0    0 -0.96915095180E+01 -0.40638024535E+02 -0.11757921858E+02  0.47787272802E+02  0.20000008015E+02 0.  0.
        -12    1    1    2    0    0  0.96915095180E+01  0.40638024535E+02  0.11757921858E+02  0.43400727198E+02  0.00000000000E+00 0.  1.
         11    1    3    3    0    0  0.22409378962E+01 -0.56811033718E+01 -0.67253756408E+01  0.90844601352E+01  0.51100000000E-03 0. -1.
        -11    1    3    3    0    0  0.96298399513E-01 -0.92574339258E+01 -0.45684780542E+01  0.10323775872E+02  0.51100000000E-03 0.  1.
        -12    1    3    3    0    0 -0.12028745814E+02 -0.25699487238E+02 -0.46406816289E+00  0.28379036795E+02  0.00000000000E+00 0.  1.
</event>
<event>
 7    1  0.3884463E-009  0.4778727E+02  0.7816164E-02  0.1312668E+00
        -11   -1    0    0    0    0  0.00000000000E+00  0.00000000000E+00  0.45593999997E+02  0.45594000000E+02  0.51100000000E-03 0.  1.
         11   -1    0    0    0    0 -0.00000000000E+00 -0.00000000000E+00 -0.45593999997E+02  0.45594000000E+02  0.51100000000E-03 0. -1.
    9900012    2    1    2    0    0 -0.23232207557E+02 -0.85510095515E+01 -0.35647834629E+02  0.47787270213E+02  0.19999996210E+02 0.  0.
        -12    1    1    2    0    0  0.23232207557E+02  0.85510095515E+01  0.35647834629E+02  0.43400729787E+02  0.00000000000E+00 0.  1.
         11    1    3    3    0    0 -0.26890218530E+01 -0.32649096964E+01 -0.10183843933E+01  0.43505839706E+01  0.51100000000E-03 0. -1.
        -11    1    3    3    0    0  0.35193100575E+00 -0.18519631379E+01  0.88963515184E+00  0.20844840756E+01  0.51100000000E-03 0.  1.
         12    1    3    3    0    0 -0.20895116710E+02 -0.34341367172E+01 -0.35519085387E+02  0.41352202167E+02  0.00000000000E+00 0. -1.
</event>
<event>
 7    1  0.3884463E-009  0.4778727E+02  0.7816164E-02  0.1312668E+00
        -11   -1    0    0    0    0  0.00000000000E+00  0.00000000000E+00  0.45593999997E+02  0.45594000000E+02  0.51100000000E-03 0.  1.
         11   -1    0    0    0    0 -0.00000000000E+00 -0.00000000000E+00 -0.45593999997E+02  0.45594000000E+02  0.51100000000E-03 0. -1.
    9900012    2    1    2    0    0 -0.43000596754E+02 -0.54964811671E+01 -0.20883033510E+01  0.47787266857E+02  0.19999980910E+02 0.  0.
        -12    1    1    2    0    0  0.43000596754E+02  0.54964811671E+01  0.20883033510E+01  0.43400733143E+02  0.00000000000E+00 0.  1.
         11    1    3    3    0    0 -0.23210536961E+00 -0.14996688164E+01 -0.41791748524E+01  0.44461648833E+01  0.51100000000E-03 0. -1.
        -11    1    3    3    0    0 -0.70179236007E+01 -0.23267449793E+01  0.15134564780E+01  0.75468897326E+01  0.51100000000E-03 0.  1.
         12    1    3    3    0    0 -0.35750567784E+02 -0.16700673714E+01  0.57741502346E+00  0.35794212242E+02  0.00000000000E+00 0. -1.
</event>
<event>
 7    1  0.3884463E-009  0.4778727E+02  0.7816164E-02  0.1312668E+00
        -11   -1    0    0    0    0  0.00000000000E+00  0.00000000000E+00  0.45593999997E+02  0.45594000000E+02  0.51100000000E-03 0.  1.
         11   -1    0    0    0    0 -0.00000000000E+00 -0.00000000000E+00 -0.45593999997E+02  0.45594000000E+02  0.51100000000E-03 0. -1.
    9900012    2    1    2    0    0  0.23098427699E+02 -0.24574481373E+02 -0.27316308859E+02  0.47787271589E+02  0.20000002483E+02 0.  0.
        -12    1    1    2    0    0 -0.23098427699E+02  0.24574481373E+02  0.27316308859E+02  0.43400728411E+02  0.00000000000E+00 0.  1.
         11    1    3    3    0    0  0.15952070116E+02 -0.15591234837E+02 -0.23777087971E+02  0.32602224731E+02  0.51100000000E-03 0. -1.
        -11    1    3    3    0    0 -0.82636287925E+00 -0.44227946705E+00 -0.33721684496E+01  0.35000010069E+01  0.51100000000E-03 0.  1.
        -12    1    3    3    0    0  0.79727204622E+01 -0.85409670687E+01 -0.16705243842E+00  0.11685045852E+02  0.00000000000E+00 0.  1.
</event>
<event>
 7    1  0.3884463E-009  0.4778727E+02  0.7816164E-02  0.1312668E+00
        -11   -1    0    0    0    0  0.00000000000E+00  0.00000000000E+00  0.45593999997E+02  0.45594000000E+02  0.51100000000E-03 0.  1.
         11   -1    0    0    0    0 -0.00000000000E+00 -0.00000000000E+00 -0.45593999997E+02  0.45594000000E+02  0.51100000000E-03 0. -1.
    9900012    2    1    2    0    0  0.17716237794E+02 -0.27443140560E+02 -0.28576779071E+02  0.47787270197E+02  0.19999996134E+02 0.  0.
        -12    1    1    2    0    0 -0.17716237794E+02  0.27443140560E+02  0.28576779071E+02  0.43400729803E+02  0.00000000000E+00 0.  1.
         11    1    3    3    0    0 -0.24533985698E+01 -0.12442505259E+02 -0.11042979354E+02  0.16816137932E+02  0.51100000000E-03 0. -1.
        -11    1    3    3    0    0 -0.17171669050E+00 -0.54454391873E+00 -0.31361958541E+00  0.65143856709E+00  0.51100000000E-03 0.  1.
         12    1    3    3    0    0  0.20341353055E+02 -0.14456091382E+02 -0.17220180132E+02  0.30319693698E+02  0.00000000000E+00 0. -1.
</event>
<event>
 7    1  0.3884463E-009  0.4778726E+02  0.7816164E-02  0.1312668E+00
        -11   -1    0    0    0    0  0.00000000000E+00  0.00000000000E+00  0.45593999997E+02  0.45594000000E+02  0.51100000000E-03 0.  1.
         11   -1    0    0    0    0 -0.00000000000E+00 -0.00000000000E+00 -0.45593999997E+02  0.45594000000E+02  0.51100000000E-03 0. -1.
    9900012    2    1    2    0    0 -0.10044688056E+02 -0.15059952444E+02 -0.39445229613E+02  0.47787261930E+02  0.19999958444E+02 0.  0.
        -12    1    1    2    0    0  0.10044688056E+02  0.15059952444E+02  0.39445229613E+02  0.43400738070E+02  0.00000000000E+00 0.  1.
         11    1    3    3    0    0 -0.54194126427E+00 -0.82914225524E+01 -0.16159947497E+02  0.18171001394E+02  0.51100000000E-03 0. -1.
        -11    1    3    3    0    0 -0.62749510575E+01 -0.11167941054E+02 -0.15483493041E+02  0.20095682998E+02  0.51100000000E-03 0.  1.
         12    1    3    3    0    0 -0.32277957340E+01  0.43994111629E+01 -0.78017890754E+01  0.95205775380E+01  0.00000000000E+00 0. -1.
</event>
<event>
 7    1  0.3884463E-009  0.4778727E+02  0.7816164E-02  0.1312668E+00
        -11   -1    0    0    0    0  0.00000000000E+00  0.00000000000E+00  0.45593999997E+02  0.45594000000E+02  0.51100000000E-03 0.  1.
         11   -1    0    0    0    0 -0.00000000000E+00 -0.00000000000E+00 -0.45593999997E+02  0.45594000000E+02  0.51100000000E-03 0. -1.
    9900012    2    1    2    0    0  0.13943977767E+02  0.32441325351E+02 -0.25233885601E+02  0.47787273174E+02  0.20000009712E+02 0.  0.
        -12    1    1    2    0    0 -0.13943977767E+02 -0.32441325351E+02  0.25233885601E+02  0.43400726826E+02  0.00000000000E+00 0.  1.
         11    1    3    3    0    0  0.10097843964E+02  0.13192161975E+02 -0.18460814361E+02  0.24835483837E+02  0.51100000000E-03 0. -1.
        -11    1    3    3    0    0 -0.31738318965E-01  0.13065520864E+01  0.21693571178E+01  0.25326263525E+01  0.51100000000E-03 0.  1.
         12    1    3    3    0    0  0.38778721221E+01  0.17942611289E+02 -0.89424283574E+01  0.20419162985E+02  0.00000000000E+00 0. -1.
</event>
<event>
 7    1  0.3884463E-009  0.4778727E+02  0.7816164E-02  0.1312668E+00
        -11   -1    0    0    0    0  0.00000000000E+00  0.00000000000E+00  0.45593999997E+02  0.45594000000E+02  0.51100000000E-03 0.  1.
         11   -1    0    0    0    0 -0.00000000000E+00 -0.00000000000E+00 -0.45593999997E+02  0.45594000000E+02  0.51100000000E-03 0. -1.
    9900012    2    1    2    0    0  0.36499422580E+02 -0.21748771076E+02 -0.88547342497E+01  0.47787271773E+02  0.20000003321E+02 0.  0.
        -12    1    1    2    0    0 -0.36499422580E+02  0.21748771076E+02  0.88547342497E+01  0.43400728227E+02  0.00000000000E+00 0.  1.
         11    1    3    3    0    0  0.65275963627E+01 -0.40457763107E+01 -0.25470403590E+01  0.80910589592E+01  0.51100000000E-03 0. -1.
        -11    1    3    3    0    0 -0.20300071322E+01 -0.32035393339E+01 -0.20349181264E+01  0.43040080464E+01  0.51100000000E-03 0.  1.
        -12    1    3    3    0    0  0.32001833350E+02 -0.14499455432E+02 -0.42727757643E+01  0.35392204767E+02  0.00000000000E+00 0.  1.
</event>
<event>
 7    1  0.3884463E-009  0.4778730E+02  0.7816164E-02  0.1312668E+00
        -11   -1    0    0    0    0  0.00000000000E+00  0.00000000000E+00  0.45593999997E+02  0.45594000000E+02  0.51100000000E-03 0.  1.
         11   -1    0    0    0    0 -0.00000000000E+00 -0.00000000000E+00 -0.45593999997E+02  0.45594000000E+02  0.51100000000E-03 0. -1.
    9900012    2    1    2    0    0 -0.57727425534E+01 -0.27383202669E+02 -0.33173128866E+02  0.47787299271E+02  0.20000128696E+02 0.  0.
        -12    1    1    2    0    0  0.57727425534E+01  0.27383202669E+02  0.33173128866E+02  0.43400700729E+02  0.00000000000E+00 0.  1.
         11    1    3    3    0    0 -0.77903385976E+01 -0.71683014698E+01 -0.16129768891E+02  0.19293609465E+02  0.51100000000E-03 0. -1.
        -11    1    3    3    0    0 -0.13283645834E+01 -0.34833496539E+01  0.79163093916E+00  0.38111621695E+01  0.51100000000E-03 0.  1.
         12    1    3    3    0    0  0.33459606277E+01 -0.16731551545E+02 -0.17834990914E+02  0.24682527637E+02  0.00000000000E+00 0. -1.
</event>
<event>
 7    1  0.3884463E-009  0.4778727E+02  0.7816164E-02  0.1312668E+00
        -11   -1    0    0    0    0  0.00000000000E+00  0.00000000000E+00  0.45593999997E+02  0.45594000000E+02  0.51100000000E-03 0.  1.
         11   -1    0    0    0    0 -0.00000000000E+00 -0.00000000000E+00 -0.45593999997E+02  0.45594000000E+02  0.51100000000E-03 0. -1.
    9900012    2    1    2    0    0 -0.25289157220E+02 -0.12113548058E+02 -0.33126183590E+02  0.47787267763E+02  0.19999985039E+02 0.  0.
        -12    1    1    2    0    0  0.25289157220E+02  0.12113548058E+02  0.33126183590E+02  0.43400732237E+02  0.00000000000E+00 0.  1.
         11    1    3    3    0    0 -0.64815094918E+01 -0.10536615244E+01 -0.45224939787E+00  0.65821499284E+01  0.51100000000E-03 0. -1.
        -11    1    3    3    0    0 -0.32354127295E+00  0.78894484792E+00 -0.85240080508E+01  0.85665527746E+01  0.51100000000E-03 0.  1.
         12    1    3    3    0    0 -0.18484106455E+02 -0.11848831381E+02 -0.24149926142E+02  0.32638565060E+02  0.00000000000E+00 0. -1.
</event>
<event>
 7    1  0.3884463E-009  0.4778727E+02  0.7816164E-02  0.1312668E+00
        -11   -1    0    0    0    0  0.00000000000E+00  0.00000000000E+00  0.45593999997E+02  0.45594000000E+02  0.51100000000E-03 0. -1.
         11   -1    0    0    0    0 -0.00000000000E+00 -0.00000000000E+00 -0.45593999997E+02  0.45594000000E+02  0.51100000000E-03 0.  1.
    9900012    2    1    2    0    0 -0.21215865570E+02  0.30261099839E+02  0.22754690070E+02  0.47787273790E+02  0.20000012520E+02 0.  0.
        -12    1    1    2    0    0  0.21215865570E+02 -0.30261099839E+02 -0.22754690070E+02  0.43400726210E+02  0.00000000000E+00 0.  1.
         11    1    3    3    0    0 -0.10745597283E+02  0.23732514678E+02  0.19825035670E+02  0.32737320500E+02  0.51100000000E-03 0. -1.
        -11    1    3    3    0    0 -0.41029654425E+01  0.71279098784E+01  0.61076669021E+00  0.82470880235E+01  0.51100000000E-03 0.  1.
        -12    1    3    3    0    0 -0.63673028450E+01 -0.59932471748E+00  0.23188877093E+01  0.68028652673E+01  0.00000000000E+00 0.  1.
</event>
<event>
 7    1  0.3884463E-009  0.4778726E+02  0.7816164E-02  0.1312668E+00
        -11   -1    0    0    0    0  0.00000000000E+00  0.00000000000E+00  0.45593999997E+02  0.45594000000E+02  0.51100000000E-03 0. -1.
         11   -1    0    0    0    0 -0.00000000000E+00 -0.00000000000E+00 -0.45593999997E+02  0.45594000000E+02  0.51100000000E-03 0.  1.
    9900012    2    1    2    0    0  0.37347601784E+02 -0.15802954507E+02  0.15461155486E+02  0.47787261998E+02  0.19999958752E+02 0.  0.
        -12    1    1    2    0    0 -0.37347601784E+02  0.15802954507E+02 -0.15461155486E+02  0.43400738002E+02  0.00000000000E+00 0.  1.
         11    1    3    3    0    0  0.24306545383E+02 -0.11531250212E+02  0.15256789772E+02  0.30928102339E+02  0.51100000000E-03 0. -1.
        -11    1    3    3    0    0  0.42079456522E+01 -0.10176178242E+01  0.47318963367E+01  0.64135166524E+01  0.51100000000E-03 0.  1.
        -12    1    3    3    0    0  0.88331107489E+01 -0.32540864712E+01 -0.45275306230E+01  0.10445643006E+02  0.00000000000E+00 0.  1.
</event>
<event>
 7    1  0.3884463E-009  0.4778727E+02  0.7816164E-02  0.1312668E+00
        -11   -1    0    0    0    0  0.00000000000E+00  0.00000000000E+00  0.45593999997E+02  0.45594000000E+02  0.51100000000E-03 0. -1.
         11   -1    0    0    0    0 -0.00000000000E+00 -0.00000000000E+00 -0.45593999997E+02  0.45594000000E+02  0.51100000000E-03 0.  1.
    9900012    2    1    2    0    0  0.42318575548E+02 -0.65908589997E+01  0.70229727635E+01  0.47787269532E+02  0.19999993103E+02 0.  0.
        -12    1    1    2    0    0 -0.42318575548E+02  0.65908589997E+01 -0.70229727635E+01  0.43400730468E+02  0.00000000000E+00 0.  1.
         11    1    3    3    0    0  0.15440279612E+02 -0.18839118918E+01 -0.67030826657E+00  0.15569221944E+02  0.51100000000E-03 0. -1.
        -11    1    3    3    0    0  0.13123641582E+02 -0.29961466725E+01 -0.40437703294E+01  0.14055566228E+02  0.51100000000E-03 0.  1.
         12    1    3    3    0    0  0.13754654354E+02 -0.17108004354E+01  0.11737051360E+02  0.18162481360E+02  0.00000000000E+00 0. -1.
</event>
<event>
 7    1  0.3884463E-009  0.4778728E+02  0.7816164E-02  0.1312668E+00
        -11   -1    0    0    0    0  0.00000000000E+00  0.00000000000E+00  0.45593999997E+02  0.45594000000E+02  0.51100000000E-03 0.  1.
         11   -1    0    0    0    0 -0.00000000000E+00 -0.00000000000E+00 -0.45593999997E+02  0.45594000000E+02  0.51100000000E-03 0. -1.
    9900012    2    1    2    0    0 -0.10965097691E+01  0.15551334672E+02 -0.40504028913E+02  0.47787277633E+02  0.20000030040E+02 0.  0.
        -12    1    1    2    0    0  0.10965097691E+01 -0.15551334672E+02  0.40504028913E+02  0.43400722367E+02  0.00000000000E+00 0.  1.
         11    1    3    3    0    0  0.33073683189E+00  0.56068738886E+01 -0.11004040930E+02  0.12354567524E+02  0.51100000000E-03 0. -1.
        -11    1    3    3    0    0 -0.64865525526E+01  0.39598362538E+01 -0.25551200660E+02  0.26657447788E+02  0.51100000000E-03 0.  1.
         12    1    3    3    0    0  0.50593059517E+01  0.59846245296E+01 -0.39487873241E+01  0.87752623211E+01  0.00000000000E+00 0. -1.
</event>
<event>
 7    1  0.3884463E-009  0.4778726E+02  0.7816164E-02  0.1312668E+00
        -11   -1    0    0    0    0  0.00000000000E+00  0.00000000000E+00  0.45593999997E+02  0.45594000000E+02  0.51100000000E-03 0. -1.
         11   -1    0    0    0    0 -0.00000000000E+00 -0.00000000000E+00 -0.45593999997E+02  0.45594000000E+02  0.51100000000E-03 0.  1.
    9900012    2    1    2    0    0  0.22375265514E+02 -0.54306593745E+01  0.36789666864E+02  0.47787260882E+02  0.19999953663E+02 0.  0.
        -12    1    1    2    0    0 -0.22375265514E+02  0.54306593745E+01 -0.36789666864E+02  0.43400739118E+02  0.00000000000E+00 0.  1.
         11    1    3    3    0    0  0.10457327634E+02 -0.31607615689E+01  0.66386597471E+01  0.12783501807E+02  0.51100000000E-03 0. -1.
        -11    1    3    3    0    0  0.13583860899E+02 -0.52926981544E+00  0.17679800131E+02  0.22301944678E+02  0.51100000000E-03 0.  1.
         12    1    3    3    0    0 -0.16659230189E+01 -0.17406279902E+01  0.12471206985E+02  0.12701814397E+02  0.00000000000E+00 0. -1.
</event>
<event>
 7    1  0.3884463E-009  0.4778727E+02  0.7816164E-02  0.1312668E+00
        -11   -1    0    0    0    0  0.00000000000E+00  0.00000000000E+00  0.45593999997E+02  0.45594000000E+02  0.51100000000E-03 0. -1.
         11   -1    0    0    0    0 -0.00000000000E+00 -0.00000000000E+00 -0.45593999997E+02  0.45594000000E+02  0.51100000000E-03 0.  1.
    9900012    2    1    2    0    0 -0.26985316736E+02 -0.20638250329E+02  0.27008859944E+02  0.47787271763E+02  0.20000003276E+02 0.  0.
        -12    1    1    2    0    0  0.26985316736E+02  0.20638250329E+02 -0.27008859944E+02  0.43400728237E+02  0.00000000000E+00 0.  1.
         11    1    3    3    0    0 -0.45727737661E+00 -0.33118806790E+01  0.37222554465E+00  0.33639572453E+01  0.51100000000E-03 0. -1.
        -11    1    3    3    0    0 -0.80334694636E+01 -0.28241180524E+01  0.17016458038E+02  0.19028192737E+02  0.51100000000E-03 0.  1.
         12    1    3    3    0    0 -0.18494569896E+02 -0.14502251598E+02  0.96201763613E+01  0.25395121781E+02  0.00000000000E+00 0. -1.
</event>
<event>
 7    1  0.3884463E-009  0.4778727E+02  0.7816164E-02  0.1312668E+00
        -11   -1    0    0    0    0  0.00000000000E+00  0.00000000000E+00  0.45593999997E+02  0.45594000000E+02  0.51100000000E-03 0. -1.
         11   -1    0    0    0    0 -0.00000000000E+00 -0.00000000000E+00 -0.45593999997E+02  0.45594000000E+02  0.51100000000E-03 0.  1.
    9900012    2    1    2    0    0 -0.83961917839E+01  0.42562569930E+02 -0.12469608512E+01  0.47787270664E+02  0.19999998266E+02 0.  0.
        -12    1    1    2    0    0  0.83961917839E+01 -0.42562569930E+02  0.12469608512E+01  0.43400729336E+02  0.00000000000E+00 0.  1.
         11    1    3    3    0    0  0.30451238549E+01  0.24917554743E+02 -0.18792542252E+00  0.25103637782E+02  0.51100000000E-03 0. -1.
        -11    1    3    3    0    0 -0.70505822970E+01  0.13970008922E+02  0.26363922984E+01  0.15868913782E+02  0.51100000000E-03 0.  1.
        -12    1    3    3    0    0 -0.43907333418E+01  0.36750062645E+01 -0.36954277271E+01  0.68147190998E+01  0.00000000000E+00 0.  1.
</event>
<event>
 7    1  0.3884463E-009  0.4778726E+02  0.7816164E-02  0.1312668E+00
        -11   -1    0    0    0    0  0.00000000000E+00  0.00000000000E+00  0.45593999997E+02  0.45594000000E+02  0.51100000000E-03 0.  1.
         11   -1    0    0    0    0 -0.00000000000E+00 -0.00000000000E+00 -0.45593999997E+02  0.45594000000E+02  0.51100000000E-03 0. -1.
    9900012    2    1    2    0    0  0.20300773413E+02  0.17983671304E+02 -0.33883487837E+02  0.47787255966E+02  0.19999931252E+02 0.  0.
        -12    1    1    2    0    0 -0.20300773413E+02 -0.17983671304E+02  0.33883487837E+02  0.43400744034E+02  0.00000000000E+00 0.  1.
         11    1    3    3    0    0  0.20714347829E+02  0.59000652372E+01 -0.22306035669E+02  0.31007324994E+02  0.51100000000E-03 0. -1.
        -11    1    3    3    0    0 -0.19379422687E+00  0.21094356160E+01 -0.26462940198E+01  0.33897119525E+01  0.51100000000E-03 0.  1.
         12    1    3    3    0    0 -0.21978018971E+00  0.99741704511E+01 -0.89311581482E+01  0.13390219019E+02  0.00000000000E+00 0. -1.
</event>
<event>
 7    1  0.3884463E-009  0.4778727E+02  0.7816164E-02  0.1312668E+00
        -11   -1    0    0    0    0  0.00000000000E+00  0.00000000000E+00  0.45593999997E+02  0.45594000000E+02  0.51100000000E-03 0. -1.
         11   -1    0    0    0    0 -0.00000000000E+00 -0.00000000000E+00 -0.45593999997E+02  0.45594000000E+02  0.51100000000E-03 0.  1.
    9900012    2    1    2    0    0 -0.42535420091E+02 -0.66981758725E+01 -0.54309923729E+01  0.47787271890E+02  0.20000003856E+02 0.  0.
        -12    1    1    2    0    0  0.42535420091E+02  0.66981758725E+01  0.54309923729E+01  0.43400728110E+02  0.00000000000E+00 0.  1.
         11    1    3    3    0    0 -0.15363188031E+02  0.39487315193E+00  0.12909206710E+01  0.15422384631E+02  0.51100000000E-03 0. -1.
        -11    1    3    3    0    0 -0.22206782432E+02  0.41440840641E+00 -0.22794713882E+01  0.22327313102E+02  0.51100000000E-03 0.  1.
        -12    1    3    3    0    0 -0.49654496282E+01 -0.75074574308E+01 -0.44424416557E+01  0.10037574157E+02  0.00000000000E+00 0.  1.
</event>
<event>
 7    1  0.3884463E-009  0.4778727E+02  0.7816164E-02  0.1312668E+00
        -11   -1    0    0    0    0  0.00000000000E+00  0.00000000000E+00  0.45593999997E+02  0.45594000000E+02  0.51100000000E-03 0.  1.
         11   -1    0    0    0    0 -0.00000000000E+00 -0.00000000000E+00 -0.45593999997E+02  0.45594000000E+02  0.51100000000E-03 0. -1.
    9900012    2    1    2    0    0  0.35074530343E+02 -0.20148086055E+02 -0.15730708469E+02  0.47787271441E+02  0.20000001810E+02 0.  0.
        -12    1    1    2    0    0 -0.35074530343E+02  0.20148086055E+02  0.15730708469E+02  0.43400728559E+02  0.00000000000E+00 0.  1.
         11    1    3    3    0    0  0.32220618978E+02 -0.16517772614E+02 -0.97873018580E+01  0.37507284324E+02  0.51100000000E-03 0. -1.
        -11    1    3    3    0    0  0.15370563164E+01 -0.31167041525E+01  0.65120352924E+00  0.35355979963E+01  0.51100000000E-03 0.  1.
        -12    1    3    3    0    0  0.13168550492E+01 -0.51360928931E+00 -0.65946101401E+01  0.67443891215E+01  0.00000000000E+00 0.  1.
</event>
<event>
 7    1  0.3884463E-009  0.4778727E+02  0.7816164E-02  0.1312668E+00
        -11   -1    0    0    0    0  0.00000000000E+00  0.00000000000E+00  0.45593999997E+02  0.45594000000E+02  0.51100000000E-03 0.  1.
         11   -1    0    0    0    0 -0.00000000000E+00 -0.00000000000E+00 -0.45593999997E+02  0.45594000000E+02  0.51100000000E-03 0. -1.
    9900012    2    1    2    0    0 -0.28447369161E+02 -0.12791602510E+02 -0.30178556944E+02  0.47787271824E+02  0.20000003553E+02 0.  0.
        -12    1    1    2    0    0  0.28447369161E+02  0.12791602510E+02  0.30178556944E+02  0.43400728176E+02  0.00000000000E+00 0.  1.
         11    1    3    3    0    0 -0.13190441771E+02 -0.89209965361E+01 -0.92385290261E+01  0.18409843893E+02  0.51100000000E-03 0. -1.
        -11    1    3    3    0    0  0.89646714477E+00 -0.26127875886E+01  0.16866345387E+00  0.27674464668E+01  0.51100000000E-03 0.  1.
         12    1    3    3    0    0 -0.16153394535E+02 -0.12578183851E+01 -0.21108691372E+02  0.26609981464E+02  0.00000000000E+00 0. -1.
</event>
<event>
 7    1  0.3884463E-009  0.4778727E+02  0.7816164E-02  0.1312668E+00
        -11   -1    0    0    0    0  0.00000000000E+00  0.00000000000E+00  0.45593999997E+02  0.45594000000E+02  0.51100000000E-03 0.  1.
         11   -1    0    0    0    0 -0.00000000000E+00 -0.00000000000E+00 -0.45593999997E+02  0.45594000000E+02  0.51100000000E-03 0. -1.
    9900012    2    1    2    0    0 -0.15284643192E+02  0.11983497377E+02 -0.38812353253E+02  0.47787270837E+02  0.19999999054E+02 0.  0.
        -12    1    1    2    0    0  0.15284643192E+02 -0.11983497377E+02  0.38812353253E+02  0.43400729163E+02  0.00000000000E+00 0.  1.
         11    1    3    3    0    0 -0.31279331708E+01 -0.49197169587E+00 -0.15105778636E+02  0.15434071094E+02  0.51100000000E-03 0. -1.
        -11    1    3    3    0    0 -0.11276682203E+02  0.10543021437E+02 -0.25341443840E+02  0.29673348964E+02  0.51100000000E-03 0.  1.
        -12    1    3    3    0    0 -0.88002781763E+00  0.19324476353E+01  0.16348692235E+01  0.26798507796E+01  0.00000000000E+00 0.  1.
</event>
<event>
 7    1  0.3884463E-009  0.4778727E+02  0.7816164E-02  0.1312668E+00
        -11   -1    0    0    0    0  0.00000000000E+00  0.00000000000E+00  0.45593999997E+02  0.45594000000E+02  0.51100000000E-03 0.  1.
         11   -1    0    0    0    0 -0.00000000000E+00 -0.00000000000E+00 -0.45593999997E+02  0.45594000000E+02  0.51100000000E-03 0. -1.
    9900012    2    1    2    0    0 -0.42854642602E+01 -0.16744331014E+02 -0.39810619570E+02  0.47787271255E+02  0.20000000960E+02 0.  0.
        -12    1    1    2    0    0  0.42854642602E+01  0.16744331014E+02  0.39810619570E+02  0.43400728745E+02  0.00000000000E+00 0.  1.
         11    1    3    3    0    0 -0.38668180687E+01 -0.50277671533E+00 -0.31170607494E+01  0.49921072083E+01  0.51100000000E-03 0. -1.
        -11    1    3    3    0    0 -0.38383539085E+01  0.13520473714E+01 -0.59463639926E+01  0.72055699160E+01  0.51100000000E-03 0.  1.
         12    1    3    3    0    0  0.34197077170E+01 -0.17593601670E+02 -0.30747194828E+02  0.35589594131E+02  0.00000000000E+00 0. -1.
</event>
<event>
 7    1  0.3884463E-009  0.4778732E+02  0.7816164E-02  0.1312668E+00
        -11   -1    0    0    0    0  0.00000000000E+00  0.00000000000E+00  0.45593999997E+02  0.45594000000E+02  0.51100000000E-03 0.  1.
         11   -1    0    0    0    0 -0.00000000000E+00 -0.00000000000E+00 -0.45593999997E+02  0.45594000000E+02  0.51100000000E-03 0. -1.
    9900012    2    1    2    0    0  0.16067222792E+02 -0.13940984978E+02  0.37830047410E+02  0.47787318007E+02  0.20000214119E+02 0.  0.
        -12    1    1    2    0    0 -0.16067222792E+02  0.13940984978E+02 -0.37830047410E+02  0.43400681993E+02  0.00000000000E+00 0.  1.
         11    1    3    3    0    0  0.73518014265E+01 -0.60346236671E+00  0.13943793402E+02  0.15774743286E+02  0.51100000000E-03 0. -1.
        -11    1    3    3    0    0 -0.18874937867E+01 -0.49061012146E+01  0.14787249758E+02  0.15693795513E+02  0.51100000000E-03 0.  1.
         12    1    3    3    0    0  0.10602915152E+02 -0.84314213970E+01  0.90990042505E+01  0.16318779208E+02  0.00000000000E+00 0. -1.
</event>
<event>
 7    1  0.3884463E-009  0.4778728E+02  0.7816164E-02  0.1312668E+00
        -11   -1    0    0    0    0  0.00000000000E+00  0.00000000000E+00  0.45593999997E+02  0.45594000000E+02  0.51100000000E-03 0. -1.
         11   -1    0    0    0    0 -0.00000000000E+00 -0.00000000000E+00 -0.45593999997E+02  0.45594000000E+02  0.51100000000E-03 0.  1.
    9900012    2    1    2    0    0  0.61892667074E+01  0.30148695500E+02  0.30600194542E+02  0.47787276864E+02  0.20000026534E+02 0.  0.
        -12    1    1    2    0    0 -0.61892667074E+01 -0.30148695500E+02 -0.30600194542E+02  0.43400723136E+02  0.00000000000E+00 0.  1.
         11    1    3    3    0    0 -0.35315436283E+01  0.46045068473E+01  0.60221202882E+01  0.83629669814E+01  0.51100000000E-03 0. -1.
        -11    1    3    3    0    0 -0.31698677153E+01  0.10016731118E+02  0.10217860257E+02  0.14655634825E+02  0.51100000000E-03 0.  1.
         12    1    3    3    0    0  0.12890678051E+02  0.15527457534E+02  0.14360213997E+02  0.24768675058E+02  0.00000000000E+00 0. -1.
</event>
<event>
 7    1  0.3884463E-009  0.4778727E+02  0.7816164E-02  0.1312668E+00
        -11   -1    0    0    0    0  0.00000000000E+00  0.00000000000E+00  0.45593999997E+02  0.45594000000E+02  0.51100000000E-03 0.  1.
         11   -1    0    0    0    0 -0.00000000000E+00 -0.00000000000E+00 -0.45593999997E+02  0.45594000000E+02  0.51100000000E-03 0. -1.
    9900012    2    1    2    0    0  0.21862789973E+02  0.36041359723E+02 -0.10327749508E+02  0.47787267218E+02  0.19999982554E+02 0.  0.
        -12    1    1    2    0    0 -0.21862789973E+02 -0.36041359723E+02  0.10327749508E+02  0.43400732782E+02  0.00000000000E+00 0.  1.
         11    1    3    3    0    0  0.15286638916E+01  0.29915996775E+01 -0.72082529844E+01  0.79526972326E+01  0.51100000000E-03 0. -1.
        -11    1    3    3    0    0  0.59644503601E+01  0.45969113311E+01  0.13397074184E+01  0.76485997485E+01  0.51100000000E-03 0.  1.
        -12    1    3    3    0    0  0.14369675722E+02  0.28452848714E+02 -0.44592039421E+01  0.32185970237E+02  0.00000000000E+00 0.  1.
</event>
<event>
 7    1  0.3884463E-009  0.4778727E+02  0.7816164E-02  0.1312668E+00
        -11   -1    0    0    0    0  0.00000000000E+00  0.00000000000E+00  0.45593999997E+02  0.45594000000E+02  0.51100000000E-03 0. -1.
         11   -1    0    0    0    0 -0.00000000000E+00 -0.00000000000E+00 -0.45593999997E+02  0.45594000000E+02  0.51100000000E-03 0.  1.
    9900012    2    1    2    0    0  0.37306180173E+02  0.64522424226E+01 -0.21218875974E+02  0.47787271792E+02  0.20000003407E+02 0.  0.
        -12    1    1    2    0    0 -0.37306180173E+02 -0.64522424226E+01  0.21218875974E+02  0.43400728208E+02  0.00000000000E+00 0.  1.
         11    1    3    3    0    0  0.11399699736E+02 -0.30585406740E+01 -0.35165372106E+00  0.11808111015E+02  0.51100000000E-03 0. -1.
        -11    1    3    3    0    0  0.14839998017E+02  0.11355210042E+01 -0.73247026013E+01  0.16588134843E+02  0.51100000000E-03 0.  1.
        -12    1    3    3    0    0  0.11066482420E+02  0.83752620924E+01 -0.13542519652E+02  0.19391025934E+02  0.00000000000E+00 0.  1.
</event>
<event>
 7    1  0.3884463E-009  0.4778727E+02  0.7816164E-02  0.1312668E+00
        -11   -1    0    0    0    0  0.00000000000E+00  0.00000000000E+00  0.45593999997E+02  0.45594000000E+02  0.51100000000E-03 0.  1.
         11   -1    0    0    0    0 -0.00000000000E+00 -0.00000000000E+00 -0.45593999997E+02  0.45594000000E+02  0.51100000000E-03 0. -1.
    9900012    2    1    2    0    0 -0.72375650391E+01 -0.32165152673E+01 -0.42671945601E+02  0.47787271209E+02  0.20000000752E+02 0.  0.
        -12    1    1    2    0    0  0.72375650391E+01  0.32165152673E+01  0.42671945601E+02  0.43400728791E+02  0.00000000000E+00 0.  1.
         11    1    3    3    0    0 -0.21842007655E+01 -0.30987726029E+01 -0.21958379862E+01  0.43811904034E+01  0.51100000000E-03 0. -1.
        -11    1    3    3    0    0 -0.60336854482E+01  0.44423630676E+01 -0.95909816015E+01  0.12170738599E+02  0.51100000000E-03 0.  1.
         12    1    3    3    0    0  0.98032117460E+00 -0.45601057320E+01 -0.30885126014E+02  0.31235342207E+02  0.00000000000E+00 0. -1.
</event>
<event>
 7    1  0.3884463E-009  0.4778728E+02  0.7816164E-02  0.1312668E+00
        -11   -1    0    0    0    0  0.00000000000E+00  0.00000000000E+00  0.45593999997E+02  0.45594000000E+02  0.51100000000E-03 0. -1.
         11   -1    0    0    0    0 -0.00000000000E+00 -0.00000000000E+00 -0.45593999997E+02  0.45594000000E+02  0.51100000000E-03 0.  1.
    9900012    2    1    2    0    0 -0.41340420652E+02 -0.38524359424E+01  0.12639243103E+02  0.47787284469E+02  0.20000061207E+02 0.  0.
        -12    1    1    2    0    0  0.41340420652E+02  0.38524359424E+01 -0.12639243103E+02  0.43400715531E+02  0.00000000000E+00 0.  1.
         11    1    3    3    0    0 -0.93539997303E+00  0.37089666299E+01  0.35381223063E+01  0.52105389632E+01  0.51100000000E-03 0. -1.
        -11    1    3    3    0    0 -0.69056050203E+01 -0.29892914692E+01 -0.14158111739E+00  0.75261736399E+01  0.51100000000E-03 0.  1.
         12    1    3    3    0    0 -0.33499415659E+02 -0.45721111031E+01  0.92427019144E+01  0.35050571866E+02  0.00000000000E+00 0. -1.
</event>
<event>
 7    1  0.3884463E-009  0.4778727E+02  0.7816164E-02  0.1312668E+00
        -11   -1    0    0    0    0  0.00000000000E+00  0.00000000000E+00  0.45593999997E+02  0.45594000000E+02  0.51100000000E-03 0. -1.
         11   -1    0    0    0    0 -0.00000000000E+00 -0.00000000000E+00 -0.45593999997E+02  0.45594000000E+02  0.51100000000E-03 0.  1.
    9900012    2    1    2    0    0 -0.39274685904E+02  0.11404960009E+02 -0.14527529593E+02  0.47787272105E+02  0.20000004838E+02 0.  0.
        -12    1    1    2    0    0  0.39274685904E+02 -0.11404960009E+02  0.14527529593E+02  0.43400727895E+02  0.00000000000E+00 0.  1.
         11    1    3    3    0    0 -0.23171228085E+02  0.69227010649E+01 -0.21775096109E+01  0.24281086248E+02  0.51100000000E-03 0. -1.
        -11    1    3    3    0    0 -0.20605805055E+01  0.93841004826E+00  0.20705077076E+01  0.30681603391E+01  0.51100000000E-03 0.  1.
         12    1    3    3    0    0 -0.14042877314E+02  0.35438488960E+01 -0.14420527690E+02  0.20438025518E+02  0.00000000000E+00 0. -1.
</event>
<event>
 7    1  0.3884463E-009  0.4778727E+02  0.7816164E-02  0.1312668E+00
        -11   -1    0    0    0    0  0.00000000000E+00  0.00000000000E+00  0.45593999997E+02  0.45594000000E+02  0.51100000000E-03 0. -1.
         11   -1    0    0    0    0 -0.00000000000E+00 -0.00000000000E+00 -0.45593999997E+02  0.45594000000E+02  0.51100000000E-03 0.  1.
    9900012    2    1    2    0    0 -0.49988990305E+01  0.35433178820E+02 -0.24558583490E+02  0.47787272174E+02  0.20000005151E+02 0.  0.
        -12    1    1    2    0    0  0.49988990305E+01 -0.35433178820E+02  0.24558583490E+02  0.43400727826E+02  0.00000000000E+00 0.  1.
         11    1    3    3    0    0 -0.35171132334E+01  0.13634345931E+02 -0.10171656009E+02  0.17370321260E+02  0.51100000000E-03 0. -1.
        -11    1    3    3    0    0  0.10490731259E+00  0.15415386019E+02 -0.17344351702E+02  0.23204992305E+02  0.51100000000E-03 0.  1.
        -12    1    3    3    0    0 -0.15866931097E+01  0.63834468694E+01  0.29574242203E+01  0.72119586090E+01  0.00000000000E+00 0.  1.
</event>
<event>
 7    1  0.3884463E-009  0.4778727E+02  0.7816164E-02  0.1312668E+00
        -11   -1    0    0    0    0  0.00000000000E+00  0.00000000000E+00  0.45593999997E+02  0.45594000000E+02  0.51100000000E-03 0.  1.
         11   -1    0    0    0    0 -0.00000000000E+00 -0.00000000000E+00 -0.45593999997E+02  0.45594000000E+02  0.51100000000E-03 0. -1.
    9900012    2    1    2    0    0 -0.52766240451E+01  0.52002850176E+01 -0.42763742265E+02  0.47787269843E+02  0.19999994524E+02 0.  0.
        -12    1    1    2    0    0  0.52766240451E+01 -0.52002850176E+01  0.42763742265E+02  0.43400730157E+02  0.00000000000E+00 0.  1.
         11    1    3    3    0    0 -0.37845934497E+01  0.42795815719E+01 -0.29231715926E+02  0.29784747477E+02  0.51100000000E-03 0.  1.
        -11    1    3    3    0    0  0.15742012452E+01  0.46026148560E+01 -0.12037769224E+02  0.12983453363E+02  0.51100000000E-03 0. -1.
        -12    1    3    3    0    0 -0.30662318406E+01 -0.36819114104E+01 -0.14942571148E+01  0.50190690033E+01  0.00000000000E+00 0.  1.
</event>
<event>
 7    1  0.3884463E-009  0.4778727E+02  0.7816164E-02  0.1312668E+00
        -11   -1    0    0    0    0  0.00000000000E+00  0.00000000000E+00  0.45593999997E+02  0.45594000000E+02  0.51100000000E-03 0.  1.
         11   -1    0    0    0    0 -0.00000000000E+00 -0.00000000000E+00 -0.45593999997E+02  0.45594000000E+02  0.51100000000E-03 0. -1.
    9900012    2    1    2    0    0  0.40382723018E+02 -0.14915588570E+02  0.55121559136E+01  0.47787274619E+02  0.20000016299E+02 0.  0.
        -12    1    1    2    0    0 -0.40382723018E+02  0.14915588570E+02 -0.55121559136E+01  0.43400725381E+02  0.00000000000E+00 0.  1.
         11    1    3    3    0    0  0.20899885186E+01  0.18815883357E+01 -0.22368248748E+01  0.35933010526E+01  0.51100000000E-03 0. -1.
        -11    1    3    3    0    0  0.34513137001E+01  0.41417095457E+00  0.37733496787E+01  0.51304260929E+01  0.51100000000E-03 0.  1.
         12    1    3    3    0    0  0.34841420800E+02 -0.17211347860E+02  0.39756311097E+01  0.39063547474E+02  0.00000000000E+00 0. -1.
</event>
<event>
 7    1  0.3884463E-009  0.4778727E+02  0.7816164E-02  0.1312668E+00
        -11   -1    0    0    0    0  0.00000000000E+00  0.00000000000E+00  0.45593999997E+02  0.45594000000E+02  0.51100000000E-03 0.  1.
         11   -1    0    0    0    0 -0.00000000000E+00 -0.00000000000E+00 -0.45593999997E+02  0.45594000000E+02  0.51100000000E-03 0. -1.
    9900012    2    1    2    0    0  0.20831318807E+01  0.13412855614E+02 -0.41223523141E+02  0.47787274265E+02  0.20000014683E+02 0.  0.
        -12    1    1    2    0    0 -0.20831318807E+01 -0.13412855614E+02  0.41223523141E+02  0.43400725735E+02  0.00000000000E+00 0.  1.
         11    1    3    3    0    0  0.12903520106E+01 -0.96225757887E+00 -0.43459008781E+01  0.46344150292E+01  0.51100000000E-03 0. -1.
        -11    1    3    3    0    0 -0.33237582168E+01  0.16307700906E+02 -0.33759354865E+02  0.37638843217E+02  0.51100000000E-03 0.  1.
        -12    1    3    3    0    0  0.41165380868E+01 -0.19325877131E+01 -0.31182673978E+01  0.55140160186E+01  0.00000000000E+00 0.  1.
</event>
<event>
 7    1  0.3884463E-009  0.4778727E+02  0.7816164E-02  0.1312668E+00
        -11   -1    0    0    0    0  0.00000000000E+00  0.00000000000E+00  0.45593999997E+02  0.45594000000E+02  0.51100000000E-03 0.  1.
         11   -1    0    0    0    0 -0.00000000000E+00 -0.00000000000E+00 -0.45593999997E+02  0.45594000000E+02  0.51100000000E-03 0. -1.
    9900012    2    1    2    0    0  0.25748677930E+01  0.44897781207E+01 -0.43091008451E+02  0.47787273496E+02  0.20000011177E+02 0.  0.
        -12    1    1    2    0    0 -0.25748677930E+01 -0.44897781207E+01  0.43091008451E+02  0.43400726504E+02  0.00000000000E+00 0.  1.
         11    1    3    3    0    0  0.11342395094E+01  0.51945981222E+01 -0.68369938678E+01  0.86611104557E+01  0.51100000000E-03 0. -1.
        -11    1    3    3    0    0  0.54527048374E+01 -0.20562725035E+01 -0.52787291964E+01  0.78629020624E+01  0.51100000000E-03 0.  1.
        -12    1    3    3    0    0 -0.40120765538E+01  0.13514525020E+01 -0.30975285387E+02  0.31263260978E+02  0.00000000000E+00 0.  1.
</event>
<event>
 7    1  0.3884463E-009  0.4778727E+02  0.7816164E-02  0.1312668E+00
        -11   -1    0    0    0    0  0.00000000000E+00  0.00000000000E+00  0.45593999997E+02  0.45594000000E+02  0.51100000000E-03 0. -1.
         11   -1    0    0    0    0 -0.00000000000E+00 -0.00000000000E+00 -0.45593999997E+02  0.45594000000E+02  0.51100000000E-03 0.  1.
    9900012    2    1    2    0    0 -0.15659320821E+02 -0.39637434401E+02  0.82026130141E+01  0.47787269652E+02  0.19999993651E+02 0.  0.
        -12    1    1    2    0    0  0.15659320821E+02  0.39637434401E+02 -0.82026130141E+01  0.43400730348E+02  0.00000000000E+00 0.  1.
         11    1    3    3    0    0 -0.71400148356E+01 -0.11223775639E+02  0.93693744406E+01  0.16270775308E+02  0.51100000000E-03 0. -1.
        -11    1    3    3    0    0 -0.49126188372E+01 -0.18347769507E+02  0.43483100110E+01  0.19485437381E+02  0.51100000000E-03 0.  1.
        -12    1    3    3    0    0 -0.36066871482E+01 -0.10065889255E+02 -0.55150714375E+01  0.12031056963E+02  0.00000000000E+00 0.  1.
</event>
<event>
 7    1  0.3884463E-009  0.4778727E+02  0.7816164E-02  0.1312668E+00
        -11   -1    0    0    0    0  0.00000000000E+00  0.00000000000E+00  0.45593999997E+02  0.45594000000E+02  0.51100000000E-03 0.  1.
         11   -1    0    0    0    0 -0.00000000000E+00 -0.00000000000E+00 -0.45593999997E+02  0.45594000000E+02  0.51100000000E-03 0. -1.
    9900012    2    1    2    0    0 -0.20914083456E+01 -0.38911334647E+02 -0.19109090472E+02  0.47787270841E+02  0.19999999071E+02 0.  0.
        -12    1    1    2    0    0  0.20914083456E+01  0.38911334647E+02  0.19109090472E+02  0.43400729159E+02  0.00000000000E+00 0.  1.
         11    1    3    3    0    0  0.29039125951E+01 -0.15426071767E+02 -0.10203708746E+02  0.18721967604E+02  0.51100000000E-03 0. -1.
        -11    1    3    3    0    0  0.37384548081E+01 -0.11983695415E+02 -0.73330712375E+01  0.14538188821E+02  0.51100000000E-03 0.  1.
        -12    1    3    3    0    0 -0.87337757489E+01 -0.11501567465E+02 -0.15723104885E+01  0.14527114416E+02  0.00000000000E+00 0.  1.
</event>
<event>
 7    1  0.3884463E-009  0.4778728E+02  0.7816164E-02  0.1312668E+00
        -11   -1    0    0    0    0  0.00000000000E+00  0.00000000000E+00  0.45593999997E+02  0.45594000000E+02  0.51100000000E-03 0.  1.
         11   -1    0    0    0    0 -0.00000000000E+00 -0.00000000000E+00 -0.45593999997E+02  0.45594000000E+02  0.51100000000E-03 0. -1.
    9900012    2    1    2    0    0  0.37817707777E+02  0.22888128855E+01 -0.21170839701E+02  0.47787284112E+02  0.20000059580E+02 0.  0.
        -12    1    1    2    0    0 -0.37817707777E+02 -0.22888128855E+01  0.21170839701E+02  0.43400715888E+02  0.00000000000E+00 0.  1.
         11    1    3    3    0    0  0.59973702724E+01 -0.36113046245E+01 -0.11446494231E+02  0.13417607898E+02  0.51100000000E-03 0. -1.
        -11    1    3    3    0    0  0.49835278690E+01 -0.52166766309E+00  0.27770426176E+00  0.50184466810E+01  0.51100000000E-03 0.  1.
         12    1    3    3    0    0  0.26836809636E+02  0.64217851730E+01 -0.10002049732E+02  0.29351229533E+02  0.00000000000E+00 0. -1.
</event>
<event>
 7    1  0.3884463E-009  0.4778727E+02  0.7816164E-02  0.1312668E+00
        -11   -1    0    0    0    0  0.00000000000E+00  0.00000000000E+00  0.45593999997E+02  0.45594000000E+02  0.51100000000E-03 0.  1.
         11   -1    0    0    0    0 -0.00000000000E+00 -0.00000000000E+00 -0.45593999997E+02  0.45594000000E+02  0.51100000000E-03 0. -1.
    9900012    2    1    2    0    0 -0.32661227842E+02  0.10557343269E+02 -0.26559554437E+02  0.47787271516E+02  0.20000002150E+02 0.  0.
        -12    1    1    2    0    0  0.32661227842E+02 -0.10557343269E+02  0.26559554437E+02  0.43400728484E+02  0.00000000000E+00 0.  1.
         11    1    3    3    0    0 -0.85171981688E+01 -0.26906081235E+00 -0.52344239115E+01  0.10000712590E+02  0.51100000000E-03 0. -1.
        -11    1    3    3    0    0 -0.23371087717E+02  0.35164831282E+01 -0.18054053119E+02  0.29740918428E+02  0.51100000000E-03 0.  1.
        -12    1    3    3    0    0 -0.77294195574E+00  0.73099209533E+01 -0.32710774067E+01  0.80456404973E+01  0.00000000000E+00 0.  1.
</event>
<event>
 7    1  0.3884463E-009  0.4778728E+02  0.7816164E-02  0.1312668E+00
        -11   -1    0    0    0    0  0.00000000000E+00  0.00000000000E+00  0.45593999997E+02  0.45594000000E+02  0.51100000000E-03 0. -1.
         11   -1    0    0    0    0 -0.00000000000E+00 -0.00000000000E+00 -0.45593999997E+02  0.45594000000E+02  0.51100000000E-03 0.  1.
    9900012    2    1    2    0    0  0.15121496777E+02 -0.16315855018E+01 -0.40648507383E+02  0.47787275484E+02  0.20000020242E+02 0.  0.
        -12    1    1    2    0    0 -0.15121496777E+02  0.16315855018E+01  0.40648507383E+02  0.43400724516E+02  0.00000000000E+00 0.  1.
         11    1    3    3    0    0  0.13661253719E+02 -0.21357101528E+00 -0.19781279112E+02  0.24041099586E+02  0.51100000000E-03 0. -1.
        -11    1    3    3    0    0  0.63447163714E+01 -0.65030904766E+00 -0.11239738155E+02  0.12923236504E+02  0.51100000000E-03 0.  1.
        -12    1    3    3    0    0 -0.48844733127E+01 -0.76770543887E+00 -0.96274901159E+01  0.10822939393E+02  0.00000000000E+00 0.  1.
</event>
<event>
 7    1  0.3884463E-009  0.4778727E+02  0.7816164E-02  0.1312668E+00
        -11   -1    0    0    0    0  0.00000000000E+00  0.00000000000E+00  0.45593999997E+02  0.45594000000E+02  0.51100000000E-03 0. -1.
         11   -1    0    0    0    0 -0.00000000000E+00 -0.00000000000E+00 -0.45593999997E+02  0.45594000000E+02  0.51100000000E-03 0.  1.
    9900012    2    1    2    0    0  0.86905296834E+01  0.41518159194E+02 -0.91837163202E+01  0.47787268503E+02  0.19999988411E+02 0.  0.
        -12    1    1    2    0    0 -0.86905296834E+01 -0.41518159194E+02  0.91837163202E+01  0.43400731497E+02  0.00000000000E+00 0.  1.
         11    1    3    3    0    0 -0.21142122350E+01  0.13468736133E+02 -0.14792679124E+01  0.13713678580E+02  0.51100000000E-03 0. -1.
        -11    1    3    3    0    0  0.62085926891E+01  0.19136728329E+02  0.18744245822E+01  0.20205802684E+02  0.51100000000E-03 0.  1.
        -12    1    3    3    0    0  0.45961492294E+01  0.89126947327E+01 -0.95788729900E+01  0.13867787239E+02  0.00000000000E+00 0.  1.
</event>
<event>
 7    1  0.3884463E-009  0.4778727E+02  0.7816164E-02  0.1312668E+00
        -11   -1    0    0    0    0  0.00000000000E+00  0.00000000000E+00  0.45593999997E+02  0.45594000000E+02  0.51100000000E-03 0. -1.
         11   -1    0    0    0    0 -0.00000000000E+00 -0.00000000000E+00 -0.45593999997E+02  0.45594000000E+02  0.51100000000E-03 0.  1.
    9900012    2    1    2    0    0 -0.47655024592E+01  0.57512647150E+00  0.43134468974E+02  0.47787271920E+02  0.20000003994E+02 0.  0.
        -12    1    1    2    0    0  0.47655024592E+01 -0.57512647150E+00 -0.43134468974E+02  0.43400728080E+02  0.00000000000E+00 0.  1.
         11    1    3    3    0    0  0.24276806846E+01  0.83127585390E+01  0.22720850684E+02  0.24315275941E+02  0.51100000000E-03 0. -1.
        -11    1    3    3    0    0 -0.39387717940E+01 -0.26359768531E+01  0.13374211067E+02  0.14189144412E+02  0.51100000000E-03 0.  1.
        -12    1    3    3    0    0 -0.32544113498E+01 -0.51016552144E+01  0.70394072230E+01  0.92828515669E+01  0.00000000000E+00 0.  1.
</event>
<event>
 7    1  0.3884463E-009  0.4778728E+02  0.7816164E-02  0.1312668E+00
        -11   -1    0    0    0    0  0.00000000000E+00  0.00000000000E+00  0.45593999997E+02  0.45594000000E+02  0.51100000000E-03 0.  1.
         11   -1    0    0    0    0 -0.00000000000E+00 -0.00000000000E+00 -0.45593999997E+02  0.45594000000E+02  0.51100000000E-03 0. -1.
    9900012    2    1    2    0    0 -0.24343199299E+02  0.35451785267E+02 -0.58482220369E+01  0.47787284202E+02  0.20000059991E+02 0.  0.
        -12    1    1    2    0    0  0.24343199299E+02 -0.35451785267E+02  0.58482220369E+01  0.43400715798E+02  0.00000000000E+00 0.  1.
         11    1    3    3    0    0  0.81115906362E+00 -0.14635344549E+01 -0.14859357429E+01  0.22378376663E+01  0.51100000000E-03 0. -1.
        -11    1    3    3    0    0 -0.58678372918E+01  0.11187316227E+02  0.19470603173E+01  0.12781963972E+02  0.51100000000E-03 0.  1.
         12    1    3    3    0    0 -0.19286521071E+02  0.25728003495E+02 -0.63093466112E+01  0.32767482563E+02  0.00000000000E+00 0. -1.
</event>
<event>
 7    1  0.3884463E-009  0.4778727E+02  0.7816164E-02  0.1312668E+00
        -11   -1    0    0    0    0  0.00000000000E+00  0.00000000000E+00  0.45593999997E+02  0.45594000000E+02  0.51100000000E-03 0. -1.
         11   -1    0    0    0    0 -0.00000000000E+00 -0.00000000000E+00 -0.45593999997E+02  0.45594000000E+02  0.51100000000E-03 0.  1.
    9900012    2    1    2    0    0  0.45625745281E+00  0.98178265241E+01  0.42273224233E+02  0.47787269873E+02  0.19999994660E+02 0.  0.
        -12    1    1    2    0    0 -0.45625745281E+00 -0.98178265241E+01 -0.42273224233E+02  0.43400730127E+02  0.00000000000E+00 0.  1.
         11    1    3    3    0    0  0.11380620463E+01  0.45702767816E+00  0.17791390646E+01  0.21608784307E+01  0.51100000000E-03 0. -1.
        -11    1    3    3    0    0  0.70055211113E+01  0.11114732920E+02  0.25466476068E+02  0.28655819959E+02  0.51100000000E-03 0.  1.
        -12    1    3    3    0    0 -0.76873257048E+01 -0.17539340737E+01  0.15027609100E+02  0.16970571484E+02  0.00000000000E+00 0.  1.
</event>
<event>
 7    1  0.3884463E-009  0.4778728E+02  0.7816164E-02  0.1312668E+00
        -11   -1    0    0    0    0  0.00000000000E+00  0.00000000000E+00  0.45593999997E+02  0.45594000000E+02  0.51100000000E-03 0.  1.
         11   -1    0    0    0    0 -0.00000000000E+00 -0.00000000000E+00 -0.45593999997E+02  0.45594000000E+02  0.51100000000E-03 0. -1.
    9900012    2    1    2    0    0  0.16835231381E+02 -0.13935115756E+02 -0.37496798883E+02  0.47787281190E+02  0.20000046257E+02 0.  0.
        -12    1    1    2    0    0 -0.16835231381E+02  0.13935115756E+02  0.37496798883E+02  0.43400718810E+02  0.00000000000E+00 0.  1.
         11    1    3    3    0    0  0.68950388083E+01 -0.60776142581E+01 -0.15694456228E+02  0.18187768192E+02  0.51100000000E-03 0. -1.
        -11    1    3    3    0    0  0.55828684267E+01 -0.41704819655E+00 -0.20028847788E+02  0.20796564453E+02  0.51100000000E-03 0.  1.
        -12    1    3    3    0    0  0.43573241460E+01 -0.74404533015E+01 -0.17734948660E+01  0.88029485449E+01  0.00000000000E+00 0.  1.
</event>
<event>
 7    1  0.3884463E-009  0.4778727E+02  0.7816164E-02  0.1312668E+00
        -11   -1    0    0    0    0  0.00000000000E+00  0.00000000000E+00  0.45593999997E+02  0.45594000000E+02  0.51100000000E-03 0.  1.
         11   -1    0    0    0    0 -0.00000000000E+00 -0.00000000000E+00 -0.45593999997E+02  0.45594000000E+02  0.51100000000E-03 0. -1.
    9900012    2    1    2    0    0  0.40657893498E+02  0.11414687651E+02 -0.10013197220E+02  0.47787268250E+02  0.19999987260E+02 0.  0.
        -12    1    1    2    0    0 -0.40657893498E+02 -0.11414687651E+02  0.10013197220E+02  0.43400731750E+02  0.00000000000E+00 0.  1.
         11    1    3    3    0    0  0.22069103082E+02  0.64006142839E+01 -0.20214648527E+01  0.23067281904E+02  0.51100000000E-03 0. -1.
        -11    1    3    3    0    0  0.44899502580E+01  0.51732353420E+01  0.23415906540E+01  0.72391342214E+01  0.51100000000E-03 0.  1.
        -12    1    3    3    0    0  0.14098840158E+02 -0.15916197524E+00 -0.10333323021E+02  0.17480852125E+02  0.00000000000E+00 0.  1.
</event>
<event>
 7    1  0.3884463E-009  0.4778727E+02  0.7816164E-02  0.1312668E+00
        -11   -1    0    0    0    0  0.00000000000E+00  0.00000000000E+00  0.45593999997E+02  0.45594000000E+02  0.51100000000E-03 0.  1.
         11   -1    0    0    0    0 -0.00000000000E+00 -0.00000000000E+00 -0.45593999997E+02  0.45594000000E+02  0.51100000000E-03 0. -1.
    9900012    2    1    2    0    0  0.18455307103E+02 -0.79627445653E+01 -0.38465829031E+02  0.47787266546E+02  0.19999979492E+02 0.  0.
        -12    1    1    2    0    0 -0.18455307103E+02  0.79627445653E+01  0.38465829031E+02  0.43400733454E+02  0.00000000000E+00 0.  1.
         11    1    3    3    0    0  0.66990859029E+01 -0.99174163257E+00 -0.16872110617E+01  0.69791106044E+01  0.51100000000E-03 0.  1.
        -11    1    3    3    0    0 -0.19192398862E+01 -0.27616345275E+01 -0.64755242408E+01  0.72967473204E+01  0.51100000000E-03 0. -1.
         12    1    3    3    0    0  0.13675461086E+02 -0.42093684052E+01 -0.30303093729E+02  0.33511408622E+02  0.00000000000E+00 0. -1.
</event>
<event>
 7    1  0.3884463E-009  0.4778727E+02  0.7816164E-02  0.1312668E+00
        -11   -1    0    0    0    0  0.00000000000E+00  0.00000000000E+00  0.45593999997E+02  0.45594000000E+02  0.51100000000E-03 0. -1.
         11   -1    0    0    0    0 -0.00000000000E+00 -0.00000000000E+00 -0.45593999997E+02  0.45594000000E+02  0.51100000000E-03 0.  1.
    9900012    2    1    2    0    0  0.24294994092E+02 -0.88241304851E+01  0.34864182349E+02  0.47787271578E+02  0.20000002432E+02 0.  0.
        -12    1    1    2    0    0 -0.24294994092E+02  0.88241304851E+01 -0.34864182349E+02  0.43400728422E+02  0.00000000000E+00 0.  1.
         11    1    3    3    0    0  0.53039158149E+01 -0.69830558906E+01  0.17904014288E+02  0.19936105950E+02  0.51100000000E-03 0.  1.
        -11    1    3    3    0    0  0.25993935910E+01  0.27733381231E+01  0.74078488036E+01  0.83261320878E+01  0.51100000000E-03 0. -1.
        -12    1    3    3    0    0  0.16391684686E+02 -0.46144127175E+01  0.95523192570E+01  0.19525033540E+02  0.00000000000E+00 0.  1.
</event>
<event>
 7    1  0.3884463E-009  0.4778727E+02  0.7816164E-02  0.1312668E+00
        -11   -1    0    0    0    0  0.00000000000E+00  0.00000000000E+00  0.45593999997E+02  0.45594000000E+02  0.51100000000E-03 0. -1.
         11   -1    0    0    0    0 -0.00000000000E+00 -0.00000000000E+00 -0.45593999997E+02  0.45594000000E+02  0.51100000000E-03 0.  1.
    9900012    2    1    2    0    0 -0.15551343928E+02  0.72390057014E+01  0.39866980871E+02  0.47787266535E+02  0.19999979441E+02 0.  0.
        -12    1    1    2    0    0  0.15551343928E+02 -0.72390057014E+01 -0.39866980871E+02  0.43400733465E+02  0.00000000000E+00 0.  1.
         11    1    3    3    0    0 -0.15019843518E+01 -0.24246594076E+01 -0.13863422219E+00  0.28555472233E+01  0.51100000000E-03 0. -1.
        -11    1    3    3    0    0  0.12077702570E+01  0.22065840933E+01  0.11321198685E+02  0.11597295472E+02  0.51100000000E-03 0.  1.
         12    1    3    3    0    0 -0.15257129833E+02  0.74570810158E+01  0.28684416408E+02  0.33334423840E+02  0.00000000000E+00 0. -1.
</event>
<event>
 7    1  0.3884463E-009  0.4778727E+02  0.7816164E-02  0.1312668E+00
        -11   -1    0    0    0    0  0.00000000000E+00  0.00000000000E+00  0.45593999997E+02  0.45594000000E+02  0.51100000000E-03 0.  1.
         11   -1    0    0    0    0 -0.00000000000E+00 -0.00000000000E+00 -0.45593999997E+02  0.45594000000E+02  0.51100000000E-03 0. -1.
    9900012    2    1    2    0    0  0.15696011487E+02 -0.26693455573E+02 -0.30409173870E+02  0.47787271866E+02  0.20000003747E+02 0.  0.
        -12    1    1    2    0    0 -0.15696011487E+02  0.26693455573E+02  0.30409173870E+02  0.43400728134E+02  0.00000000000E+00 0.  1.
         11    1    3    3    0    0  0.10139488408E+02 -0.12188056940E+02 -0.98964675629E+01  0.18689516517E+02  0.51100000000E-03 0. -1.
        -11    1    3    3    0    0  0.37010300120E+01 -0.10985679943E+02 -0.42364354975E+01  0.12342211023E+02  0.51100000000E-03 0.  1.
         12    1    3    3    0    0  0.18554930672E+01 -0.35197186904E+01 -0.16276270810E+02  0.16755544326E+02  0.00000000000E+00 0. -1.
</event>
<event>
 7    1  0.3884463E-009  0.4778727E+02  0.7816164E-02  0.1312668E+00
        -11   -1    0    0    0    0  0.00000000000E+00  0.00000000000E+00  0.45593999997E+02  0.45594000000E+02  0.51100000000E-03 0.  1.
         11   -1    0    0    0    0 -0.00000000000E+00 -0.00000000000E+00 -0.45593999997E+02  0.45594000000E+02  0.51100000000E-03 0. -1.
    9900012    2    1    2    0    0 -0.36768993540E+02  0.23025502016E+02  0.12208634777E+01  0.47787272625E+02  0.20000007206E+02 0.  0.
        -12    1    1    2    0    0  0.36768993540E+02 -0.23025502016E+02 -0.12208634777E+01  0.43400727375E+02  0.00000000000E+00 0.  1.
         11    1    3    3    0    0 -0.14625483201E+02  0.43416310236E+01  0.42840085169E+01  0.15846363875E+02  0.51100000000E-03 0. -1.
        -11    1    3    3    0    0 -0.79432037065E+01  0.11708872510E+02  0.38684053326E+01  0.14668222137E+02  0.51100000000E-03 0.  1.
        -12    1    3    3    0    0 -0.14200306632E+02  0.69749984824E+01 -0.69315503719E+01  0.17272686613E+02  0.00000000000E+00 0.  1.
</event>
<event>
 7    1  0.3884463E-009  0.4778727E+02  0.7816164E-02  0.1312668E+00
        -11   -1    0    0    0    0  0.00000000000E+00  0.00000000000E+00  0.45593999997E+02  0.45594000000E+02  0.51100000000E-03 0. -1.
         11   -1    0    0    0    0 -0.00000000000E+00 -0.00000000000E+00 -0.45593999997E+02  0.45594000000E+02  0.51100000000E-03 0.  1.
    9900012    2    1    2    0    0  0.24935988745E+02 -0.28937888203E+02  0.20601418929E+02  0.47787269934E+02  0.19999994938E+02 0.  0.
        -12    1    1    2    0    0 -0.24935988745E+02  0.28937888203E+02 -0.20601418929E+02  0.43400730066E+02  0.00000000000E+00 0.  1.
         11    1    3    3    0    0  0.62083037250E+01 -0.50923704907E+01  0.93401695857E+01  0.12317225357E+02  0.51100000000E-03 0. -1.
        -11    1    3    3    0    0  0.86209531554E+01 -0.81351621814E+01  0.11876324571E+02  0.16779415443E+02  0.51100000000E-03 0.  1.
        -12    1    3    3    0    0  0.10106731864E+02 -0.15710355531E+02 -0.61507522744E+00  0.18690629134E+02  0.00000000000E+00 0.  1.
</event>
<event>
 7    1  0.3884463E-009  0.4778727E+02  0.7816164E-02  0.1312668E+00
        -11   -1    0    0    0    0  0.00000000000E+00  0.00000000000E+00  0.45593999997E+02  0.45594000000E+02  0.51100000000E-03 0.  1.
         11   -1    0    0    0    0 -0.00000000000E+00 -0.00000000000E+00 -0.45593999997E+02  0.45594000000E+02  0.51100000000E-03 0. -1.
    9900012    2    1    2    0    0 -0.32029619967E+02 -0.64815363970E+01 -0.28560748536E+02  0.47787271594E+02  0.20000002504E+02 0.  0.
        -12    1    1    2    0    0  0.32029619967E+02  0.64815363970E+01  0.28560748536E+02  0.43400728406E+02  0.00000000000E+00 0.  1.
         11    1    3    3    0    0 -0.63618815218E+01 -0.41091962763E+01 -0.13185108502E+01  0.76874899452E+01  0.51100000000E-03 0.  1.
        -11    1    3    3    0    0 -0.18928244621E+02  0.30372999662E+00 -0.10032617930E+02  0.21424848171E+02  0.51100000000E-03 0. -1.
         12    1    3    3    0    0 -0.67394938234E+01 -0.26760701173E+01 -0.17209619755E+02  0.18674933477E+02  0.00000000000E+00 0. -1.
</event>
<event>
 7    1  0.3884463E-009  0.4778727E+02  0.7816164E-02  0.1312668E+00
        -11   -1    0    0    0    0  0.00000000000E+00  0.00000000000E+00  0.45593999997E+02  0.45594000000E+02  0.51100000000E-03 0.  1.
         11   -1    0    0    0    0 -0.00000000000E+00 -0.00000000000E+00 -0.45593999997E+02  0.45594000000E+02  0.51100000000E-03 0. -1.
    9900012    2    1    2    0    0  0.27226465027E+02 -0.81609991367E+01 -0.32798497311E+02  0.47787265783E+02  0.19999976010E+02 0.  0.
        -12    1    1    2    0    0 -0.27226465027E+02  0.81609991367E+01  0.32798497311E+02  0.43400734217E+02  0.00000000000E+00 0.  1.
         11    1    3    3    0    0  0.76516193165E+01 -0.39544364953E+01 -0.74051957063E+01  0.11358775016E+02  0.51100000000E-03 0. -1.
        -11    1    3    3    0    0  0.82385189546E+01 -0.93864446616E+00  0.14892809651E+00  0.82931554814E+01  0.51100000000E-03 0.  1.
         12    1    3    3    0    0  0.11336326755E+02 -0.32679181752E+01 -0.25542229701E+02  0.28135335285E+02  0.00000000000E+00 0. -1.
</event>
<event>
 7    1  0.3884463E-009  0.4778727E+02  0.7816164E-02  0.1312668E+00
        -11   -1    0    0    0    0  0.00000000000E+00  0.00000000000E+00  0.45593999997E+02  0.45594000000E+02  0.51100000000E-03 0.  1.
         11   -1    0    0    0    0 -0.00000000000E+00 -0.00000000000E+00 -0.45593999997E+02  0.45594000000E+02  0.51100000000E-03 0. -1.
    9900012    2    1    2    0    0  0.34173073847E+02  0.91435620002E+00 -0.26739268935E+02  0.47787268133E+02  0.19999986726E+02 0.  0.
        -12    1    1    2    0    0 -0.34173073847E+02 -0.91435620002E+00  0.26739268935E+02  0.43400731867E+02  0.00000000000E+00 0.  1.
         11    1    3    3    0    0  0.22055112398E+02  0.18198852511E+01 -0.26509201469E+02  0.34532270820E+02  0.51100000000E-03 0. -1.
        -11    1    3    3    0    0  0.42832195452E+00  0.12213810940E+01 -0.45316190022E+00  0.13713451215E+01  0.51100000000E-03 0.  1.
        -12    1    3    3    0    0  0.11689639495E+02 -0.21269101450E+01  0.22309443442E+00  0.11883652191E+02  0.00000000000E+00 0.  1.
</event>
<event>
 7    1  0.3944719E-009  0.4778727E+02  0.7816164E-02  0.1312668E+00
        -11   -1    0    0    0    0  0.00000000000E+00  0.00000000000E+00  0.45593999997E+02  0.45594000000E+02  0.51100000000E-03 0. -1.
         11   -1    0    0    0    0 -0.00000000000E+00 -0.00000000000E+00 -0.45593999997E+02  0.45594000000E+02  0.51100000000E-03 0.  1.
    9900012    2    1    2    0    0 -0.76653900177E+00  0.23033086472E+02  0.36776526800E+02  0.47787267541E+02  0.19999984028E+02 0.  0.
        -12    1    1    2    0    0  0.76653900177E+00 -0.23033086472E+02 -0.36776526800E+02  0.43400732459E+02  0.00000000000E+00 0.  1.
         11    1    3    3    0    0 -0.46247090479E+01  0.17849759083E+02  0.19897347575E+02  0.27127592482E+02  0.51100000000E-03 0. -1.
        -11    1    3    3    0    0  0.23767705066E+01  0.39994265333E+01  0.11179788460E+01  0.47848017302E+01  0.51100000000E-03 0.  1.
        -12    1    3    3    0    0  0.14813995395E+01  0.11839008559E+01  0.15761200379E+02  0.15874873329E+02  0.00000000000E+00 0.  1.
</event>
<event>
 7    1  0.3884463E-009  0.4778727E+02  0.7816164E-02  0.1312668E+00
        -11   -1    0    0    0    0  0.00000000000E+00  0.00000000000E+00  0.45593999997E+02  0.45594000000E+02  0.51100000000E-03 0.  1.
         11   -1    0    0    0    0 -0.00000000000E+00 -0.00000000000E+00 -0.45593999997E+02  0.45594000000E+02  0.51100000000E-03 0. -1.
    9900012    2    1    2    0    0  0.11607702728E-01  0.22001177546E+02 -0.37410844314E+02  0.47787271660E+02  0.20000002807E+02 0.  0.
        -12    1    1    2    0    0 -0.11607702728E-01 -0.22001177546E+02  0.37410844314E+02  0.43400728340E+02  0.00000000000E+00 0.  1.
         11    1    3    3    0    0  0.10737274490E+01 -0.10025852992E+00 -0.44372552751E+01  0.45664184045E+01  0.51100000000E-03 0. -1.
        -11    1    3    3    0    0  0.49467338994E+01  0.16496980351E+02 -0.12861739446E+02  0.21495229211E+02  0.51100000000E-03 0.  1.
        -12    1    3    3    0    0 -0.60088536457E+01  0.56044557245E+01 -0.20111849592E+02  0.21725624045E+02  0.00000000000E+00 0.  1.
</event>
<event>
 7    1  0.3884463E-009  0.4778727E+02  0.7816164E-02  0.1312668E+00
        -11   -1    0    0    0    0  0.00000000000E+00  0.00000000000E+00  0.45593999997E+02  0.45594000000E+02  0.51100000000E-03 0.  1.
         11   -1    0    0    0    0 -0.00000000000E+00 -0.00000000000E+00 -0.45593999997E+02  0.45594000000E+02  0.51100000000E-03 0. -1.
    9900012    2    1    2    0    0  0.80167416562E+00 -0.31982746408E+02  0.29327197903E+02  0.47787270903E+02  0.19999999357E+02 0.  0.
        -12    1    1    2    0    0 -0.80167416562E+00  0.31982746408E+02 -0.29327197903E+02  0.43400729097E+02  0.00000000000E+00 0.  1.
         11    1    3    3    0    0  0.41288003274E+01 -0.21493586428E+01  0.38009666130E+01  0.60094993280E+01  0.51100000000E-03 0.  1.
        -11    1    3    3    0    0  0.20764609186E+01 -0.17996952802E+02  0.21590038878E+02  0.28183892193E+02  0.51100000000E-03 0. -1.
         12    1    3    3    0    0 -0.54035870804E+01 -0.11836434963E+02  0.39361924122E+01  0.13593879383E+02  0.00000000000E+00 0. -1.
</event>
<event>
 7    1  0.3884463E-009  0.4778727E+02  0.7816164E-02  0.1312668E+00
        -11   -1    0    0    0    0  0.00000000000E+00  0.00000000000E+00  0.45593999997E+02  0.45594000000E+02  0.51100000000E-03 0. -1.
         11   -1    0    0    0    0 -0.00000000000E+00 -0.00000000000E+00 -0.45593999997E+02  0.45594000000E+02  0.51100000000E-03 0.  1.
    9900012    2    1    2    0    0  0.42136706941E+02  0.10323169389E+02  0.12463442501E+01  0.47787271066E+02  0.20000000096E+02 0.  0.
        -12    1    1    2    0    0 -0.42136706941E+02 -0.10323169389E+02 -0.12463442501E+01  0.43400728934E+02  0.00000000000E+00 0.  1.
         11    1    3    3    0    0  0.13453232349E+02  0.25067789465E+01  0.39090970186E+01  0.14232162207E+02  0.51100000000E-03 0. -1.
        -11    1    3    3    0    0  0.19060855941E+02 -0.25011814777E+01 -0.15094247414E+00  0.19224851674E+02  0.51100000000E-03 0.  1.
         12    1    3    3    0    0  0.96226186508E+01  0.10317571920E+02 -0.25118102944E+01  0.14330257185E+02  0.00000000000E+00 0. -1.
</event>
<event>
 7    1  0.3884463E-009  0.4778726E+02  0.7816164E-02  0.1312668E+00
        -11   -1    0    0    0    0  0.00000000000E+00  0.00000000000E+00  0.45593999997E+02  0.45594000000E+02  0.51100000000E-03 0.  1.
         11   -1    0    0    0    0 -0.00000000000E+00 -0.00000000000E+00 -0.45593999997E+02  0.45594000000E+02  0.51100000000E-03 0. -1.
    9900012    2    1    2    0    0 -0.38890536276E+01 -0.37403186538E+02 -0.21667967389E+02  0.47787263692E+02  0.19999966475E+02 0.  0.
        -12    1    1    2    0    0  0.38890536276E+01  0.37403186538E+02  0.21667967389E+02  0.43400736308E+02  0.00000000000E+00 0.  1.
         11    1    3    3    0    0  0.15066290841E+01 -0.70600077060E+01 -0.41134625302E+01  0.83086830638E+01  0.51100000000E-03 0. -1.
        -11    1    3    3    0    0 -0.10333459800E+02 -0.18787621395E+02 -0.16130457263E+02  0.26831823660E+02  0.51100000000E-03 0.  1.
        -12    1    3    3    0    0  0.49377770882E+01 -0.11555557437E+02 -0.14240475958E+01  0.12646756968E+02  0.00000000000E+00 0.  1.
</event>
<event>
 7    1  0.3884463E-009  0.4778727E+02  0.7816164E-02  0.1312668E+00
        -11   -1    0    0    0    0  0.00000000000E+00  0.00000000000E+00  0.45593999997E+02  0.45594000000E+02  0.51100000000E-03 0.  1.
         11   -1    0    0    0    0 -0.00000000000E+00 -0.00000000000E+00 -0.45593999997E+02  0.45594000000E+02  0.51100000000E-03 0. -1.
    9900012    2    1    2    0    0  0.23626183041E+02 -0.14179243333E+02 -0.33531710964E+02  0.47787272969E+02  0.20000008777E+02 0.  0.
        -12    1    1    2    0    0 -0.23626183041E+02  0.14179243333E+02  0.33531710964E+02  0.43400727031E+02  0.00000000000E+00 0.  1.
         11    1    3    3    0    0  0.45317209087E+01  0.18338534101E+01 -0.83613010995E+01  0.96856011203E+01  0.51100000000E-03 0. -1.
        -11    1    3    3    0    0  0.43023446888E+00  0.22102841124E+01 -0.36323045309E+01  0.42736511347E+01  0.51100000000E-03 0.  1.
         12    1    3    3    0    0  0.18664227664E+02 -0.18223380856E+02 -0.21538105334E+02  0.33828020714E+02  0.00000000000E+00 0. -1.
</event>
<event>
 7    1  0.3884463E-009  0.4778727E+02  0.7816164E-02  0.1312668E+00
        -11   -1    0    0    0    0  0.00000000000E+00  0.00000000000E+00  0.45593999997E+02  0.45594000000E+02  0.51100000000E-03 0.  1.
         11   -1    0    0    0    0 -0.00000000000E+00 -0.00000000000E+00 -0.45593999997E+02  0.45594000000E+02  0.51100000000E-03 0. -1.
    9900012    2    1    2    0    0  0.27556813548E+02 -0.32066869239E+02 -0.97959707198E+01  0.47787272840E+02  0.20000008184E+02 0.  0.
        -12    1    1    2    0    0 -0.27556813548E+02  0.32066869239E+02  0.97959707198E+01  0.43400727160E+02  0.00000000000E+00 0.  1.
         11    1    3    3    0    0 -0.17416754596E+01 -0.26519330246E+01  0.11552088671E+01  0.33764907761E+01  0.51100000000E-03 0. -1.
        -11    1    3    3    0    0  0.48857073042E+01 -0.54813061747E+01  0.23755667247E+01  0.77173940400E+01  0.51100000000E-03 0.  1.
         12    1    3    3    0    0  0.24412781704E+02 -0.23933630040E+02 -0.13326746312E+02  0.36693388023E+02  0.00000000000E+00 0. -1.
</event>
<event>
 7    1  0.3884463E-009  0.4778727E+02  0.7816164E-02  0.1312668E+00
        -11   -1    0    0    0    0  0.00000000000E+00  0.00000000000E+00  0.45593999997E+02  0.45594000000E+02  0.51100000000E-03 0.  1.
         11   -1    0    0    0    0 -0.00000000000E+00 -0.00000000000E+00 -0.45593999997E+02  0.45594000000E+02  0.51100000000E-03 0. -1.
    9900012    2    1    2    0    0 -0.34395228320E+02  0.24409896116E+02  0.10234669019E+02  0.47787271786E+02  0.20000003381E+02 0.  0.
        -12    1    1    2    0    0  0.34395228320E+02 -0.24409896116E+02 -0.10234669019E+02  0.43400728214E+02  0.00000000000E+00 0.  1.
         11    1    3    3    0    0 -0.34767782392E+01  0.49260612410E+01  0.19137350795E+01  0.63258555540E+01  0.51100000000E-03 0. -1.
        -11    1    3    3    0    0 -0.15411069034E+02  0.70669076641E+01  0.12620139214E+02  0.21135518606E+02  0.51100000000E-03 0.  1.
         12    1    3    3    0    0 -0.15507381047E+02  0.12416927211E+02 -0.42992052752E+01  0.20325897626E+02  0.00000000000E+00 0. -1.
</event>
<event>
 7    1  0.3884463E-009  0.4778728E+02  0.7816164E-02  0.1312668E+00
        -11   -1    0    0    0    0  0.00000000000E+00  0.00000000000E+00  0.45593999997E+02  0.45594000000E+02  0.51100000000E-03 0.  1.
         11   -1    0    0    0    0 -0.00000000000E+00 -0.00000000000E+00 -0.45593999997E+02  0.45594000000E+02  0.51100000000E-03 0. -1.
    9900012    2    1    2    0    0  0.19856290852E+01 -0.40961964021E+02 -0.14205550742E+02  0.47787275453E+02  0.20000020099E+02 0.  0.
        -12    1    1    2    0    0 -0.19856290852E+01  0.40961964021E+02  0.14205550742E+02  0.43400724547E+02  0.00000000000E+00 0.  1.
         11    1    3    3    0    0  0.54792425043E+00 -0.44351896977E+01 -0.49688622241E+01  0.66828677004E+01  0.51100000000E-03 0.  1.
        -11    1    3    3    0    0 -0.60334398057E+01 -0.63393684871E+01 -0.37714758691E+01  0.95296389856E+01  0.51100000000E-03 0. -1.
         12    1    3    3    0    0  0.74711446405E+01 -0.30187405836E+02 -0.54652126491E+01  0.31574768767E+02  0.00000000000E+00 0. -1.
</event>
<event>
 7    1  0.3884463E-009  0.4778727E+02  0.7816164E-02  0.1312668E+00
        -11   -1    0    0    0    0  0.00000000000E+00  0.00000000000E+00  0.45593999997E+02  0.45594000000E+02  0.51100000000E-03 0.  1.
         11   -1    0    0    0    0 -0.00000000000E+00 -0.00000000000E+00 -0.45593999997E+02  0.45594000000E+02  0.51100000000E-03 0. -1.
    9900012    2    1    2    0    0 -0.42290579929E+02 -0.48109435254E+01 -0.84843940156E+01  0.47787271087E+02  0.20000000195E+02 0.  0.
        -12    1    1    2    0    0  0.42290579929E+02  0.48109435254E+01  0.84843940156E+01  0.43400728913E+02  0.00000000000E+00 0.  1.
         11    1    3    3    0    0 -0.32550992308E+01 -0.58094070627E+01 -0.15576334303E+01  0.68389402386E+01  0.51100000000E-03 0.  1.
        -11    1    3    3    0    0 -0.14579826433E+02 -0.19783815985E+01  0.17759351681E+01  0.14820232068E+02  0.51100000000E-03 0. -1.
        -12    1    3    3    0    0 -0.24455654266E+02  0.29768451358E+01 -0.87026957534E+01  0.26128098781E+02  0.00000000000E+00 0.  1.
</event>
<event>
 7    1  0.3884463E-009  0.4778727E+02  0.7816164E-02  0.1312668E+00
        -11   -1    0    0    0    0  0.00000000000E+00  0.00000000000E+00  0.45593999997E+02  0.45594000000E+02  0.51100000000E-03 0.  1.
         11   -1    0    0    0    0 -0.00000000000E+00 -0.00000000000E+00 -0.45593999997E+02  0.45594000000E+02  0.51100000000E-03 0. -1.
    9900012    2    1    2    0    0  0.14366112655E+01  0.15864297678E+02 -0.40371813609E+02  0.47787272738E+02  0.20000007723E+02 0.  0.
        -12    1    1    2    0    0 -0.14366112655E+01 -0.15864297678E+02  0.40371813609E+02  0.43400727262E+02  0.00000000000E+00 0.  1.
         11    1    3    3    0    0  0.22713477512E+01  0.60999214176E+01 -0.15275527217E+02  0.16604511252E+02  0.51100000000E-03 0. -1.
        -11    1    3    3    0    0 -0.71025340109E+01  0.36837385118E+01 -0.18755699793E+02  0.20390983149E+02  0.51100000000E-03 0.  1.
        -12    1    3    3    0    0  0.62677975252E+01  0.60806377491E+01 -0.63405865993E+01  0.10791778337E+02  0.00000000000E+00 0.  1.
</event>
<event>
 7    1  0.3884463E-009  0.4778727E+02  0.7816164E-02  0.1312668E+00
        -11   -1    0    0    0    0  0.00000000000E+00  0.00000000000E+00  0.45593999997E+02  0.45594000000E+02  0.51100000000E-03 0.  1.
         11   -1    0    0    0    0 -0.00000000000E+00 -0.00000000000E+00 -0.45593999997E+02  0.45594000000E+02  0.51100000000E-03 0. -1.
    9900012    2    1    2    0    0 -0.81628549874E+01  0.26129132377E+02 -0.33678773777E+02  0.47787267708E+02  0.19999984788E+02 0.  0.
        -12    1    1    2    0    0  0.81628549874E+01 -0.26129132377E+02  0.33678773777E+02  0.43400732292E+02  0.00000000000E+00 0.  1.
         11    1    3    3    0    0 -0.45240814169E+01  0.56732834361E+01 -0.95313522872E+01  0.11979154156E+02  0.51100000000E-03 0. -1.
        -11    1    3    3    0    0  0.41041180088E+00  0.21970849558E+02 -0.18706105868E+02  0.28858362136E+02  0.51100000000E-03 0.  1.
        -12    1    3    3    0    0 -0.40491853714E+01 -0.15150006175E+01 -0.54413156227E+01  0.69497514163E+01  0.00000000000E+00 0.  1.
</event>
<event>
 7    1  0.3884463E-009  0.4778725E+02  0.7816164E-02  0.1312668E+00
        -11   -1    0    0    0    0  0.00000000000E+00  0.00000000000E+00  0.45593999997E+02  0.45594000000E+02  0.51100000000E-03 0. -1.
         11   -1    0    0    0    0 -0.00000000000E+00 -0.00000000000E+00 -0.45593999997E+02  0.45594000000E+02  0.51100000000E-03 0.  1.
    9900012    2    1    2    0    0  0.13976635013E+02  0.32057898359E+02  0.25701553412E+02  0.47787250913E+02  0.19999908214E+02 0.  0.
        -12    1    1    2    0    0 -0.13976635013E+02 -0.32057898359E+02 -0.25701553412E+02  0.43400749087E+02  0.00000000000E+00 0.  1.
         11    1    3    3    0    0  0.61655852528E+01  0.16745179598E+02  0.21060720746E+02  0.27603793940E+02  0.51100000000E-03 0. -1.
        -11    1    3    3    0    0  0.41733938263E+01  0.91660500620E+00  0.30502968293E+01  0.52499230256E+01  0.51100000000E-03 0.  1.
        -12    1    3    3    0    0  0.36376559336E+01  0.14396113754E+02  0.15905358374E+01  0.14933533948E+02  0.00000000000E+00 0.  1.
</event>
<event>
 7    1  0.3884463E-009  0.4778727E+02  0.7816164E-02  0.1312668E+00
        -11   -1    0    0    0    0  0.00000000000E+00  0.00000000000E+00  0.45593999997E+02  0.45594000000E+02  0.51100000000E-03 0.  1.
         11   -1    0    0    0    0 -0.00000000000E+00 -0.00000000000E+00 -0.45593999997E+02  0.45594000000E+02  0.51100000000E-03 0. -1.
    9900012    2    1    2    0    0  0.22766530400E+02  0.25259675794E+02 -0.26967704459E+02  0.47787271764E+02  0.20000003279E+02 0.  0.
        -12    1    1    2    0    0 -0.22766530400E+02 -0.25259675794E+02  0.26967704459E+02  0.43400728236E+02  0.00000000000E+00 0.  1.
         11    1    3    3    0    0  0.80819832871E+01  0.37306526520E+01 -0.41891529832E+01  0.98379482638E+01  0.51100000000E-03 0. -1.
        -11    1    3    3    0    0  0.39790174385E+01  0.11218677067E+02 -0.15053812473E+01  0.11998227697E+02  0.51100000000E-03 0.  1.
         12    1    3    3    0    0  0.10705529674E+02  0.10310346075E+02 -0.21273170228E+02  0.25951095802E+02  0.00000000000E+00 0. -1.
</event>
<event>
 7    1  0.3884463E-009  0.4778727E+02  0.7816164E-02  0.1312668E+00
        -11   -1    0    0    0    0  0.00000000000E+00  0.00000000000E+00  0.45593999997E+02  0.45594000000E+02  0.51100000000E-03 0.  1.
         11   -1    0    0    0    0 -0.00000000000E+00 -0.00000000000E+00 -0.45593999997E+02  0.45594000000E+02  0.51100000000E-03 0. -1.
    9900012    2    1    2    0    0 -0.24114898090E+02 -0.33335938557E+02  0.13813401181E+02  0.47787272338E+02  0.20000005898E+02 0.  0.
        -12    1    1    2    0    0  0.24114898090E+02  0.33335938557E+02 -0.13813401181E+02  0.43400727662E+02  0.00000000000E+00 0.  1.
         11    1    3    3    0    0 -0.18027749162E+01 -0.69851550763E+01  0.35131496914E+01  0.80240021095E+01  0.51100000000E-03 0. -1.
        -11    1    3    3    0    0 -0.18413050841E+02 -0.10738328437E+02  0.10294573320E+02  0.23671298634E+02  0.51100000000E-03 0.  1.
        -12    1    3    3    0    0 -0.38990723326E+01 -0.15612455044E+02  0.56781699961E-02  0.16091971595E+02  0.00000000000E+00 0.  1.
</event>
<event>
 7    1  0.3884463E-009  0.4778727E+02  0.7816164E-02  0.1312668E+00
        -11   -1    0    0    0    0  0.00000000000E+00  0.00000000000E+00  0.45593999997E+02  0.45594000000E+02  0.51100000000E-03 0.  1.
         11   -1    0    0    0    0 -0.00000000000E+00 -0.00000000000E+00 -0.45593999997E+02  0.45594000000E+02  0.51100000000E-03 0. -1.
    9900012    2    1    2    0    0  0.18685222863E+02  0.32004947006E+02 -0.22586921277E+02  0.47787271906E+02  0.20000003930E+02 0.  0.
        -12    1    1    2    0    0 -0.18685222863E+02 -0.32004947006E+02  0.22586921277E+02  0.43400728094E+02  0.00000000000E+00 0.  1.
         11    1    3    3    0    0  0.14557009513E+02  0.20381075495E+02 -0.18324215901E+02  0.31033395769E+02  0.51100000000E-03 0. -1.
        -11    1    3    3    0    0  0.71001946064E+01  0.95408499774E+01 -0.11066302454E+01  0.11944254372E+02  0.51100000000E-03 0.  1.
        -12    1    3    3    0    0 -0.29719812567E+01  0.20830215334E+01 -0.31560751304E+01  0.48096217656E+01  0.00000000000E+00 0.  1.
</event>
<event>
 7    1  0.3884463E-009  0.4778727E+02  0.7816164E-02  0.1312668E+00
        -11   -1    0    0    0    0  0.00000000000E+00  0.00000000000E+00  0.45593999997E+02  0.45594000000E+02  0.51100000000E-03 0.  1.
         11   -1    0    0    0    0 -0.00000000000E+00 -0.00000000000E+00 -0.45593999997E+02  0.45594000000E+02  0.51100000000E-03 0. -1.
    9900012    2    1    2    0    0  0.14060745596E+02 -0.23724272012E+02 -0.33512354051E+02  0.47787268172E+02  0.19999986902E+02 0.  0.
        -12    1    1    2    0    0 -0.14060745596E+02  0.23724272012E+02  0.33512354051E+02  0.43400731828E+02  0.00000000000E+00 0.  1.
         11    1    3    3    0    0  0.21831867705E+01 -0.39986626589E-01 -0.21713411681E+01  0.30793872986E+01  0.51100000000E-03 0.  1.
        -11    1    3    3    0    0  0.92424610847E+01 -0.11285050548E+02 -0.28042738436E+02  0.31609660423E+02  0.51100000000E-03 0. -1.
         12    1    3    3    0    0  0.26350977412E+01 -0.12399234837E+02 -0.32982744465E+01  0.13098220450E+02  0.00000000000E+00 0. -1.
</event>
<event>
 7    1  0.3884463E-009  0.4778727E+02  0.7816164E-02  0.1312668E+00
        -11   -1    0    0    0    0  0.00000000000E+00  0.00000000000E+00  0.45593999997E+02  0.45594000000E+02  0.51100000000E-03 0.  1.
         11   -1    0    0    0    0 -0.00000000000E+00 -0.00000000000E+00 -0.45593999997E+02  0.45594000000E+02  0.51100000000E-03 0. -1.
    9900012    2    1    2    0    0  0.23924437070E+02 -0.29197019545E+02 -0.21419121188E+02  0.47787269684E+02  0.19999993799E+02 0.  0.
        -12    1    1    2    0    0 -0.23924437070E+02  0.29197019545E+02  0.21419121188E+02  0.43400730316E+02  0.00000000000E+00 0.  1.
         11    1    3    3    0    0  0.11159291849E+02 -0.14582614191E+02 -0.60566106414E+01  0.19335588016E+02  0.51100000000E-03 0. -1.
        -11    1    3    3    0    0 -0.15255818750E+01 -0.36412755679E+01  0.10438401015E+01  0.40836124005E+01  0.51100000000E-03 0.  1.
         12    1    3    3    0    0  0.14290727096E+02 -0.10973129786E+02 -0.16406350648E+02  0.24368069268E+02  0.00000000000E+00 0. -1.
</event>
<event>
 7    1  0.3884463E-009  0.4778727E+02  0.7816164E-02  0.1312668E+00
        -11   -1    0    0    0    0  0.00000000000E+00  0.00000000000E+00  0.45593999997E+02  0.45594000000E+02  0.51100000000E-03 0.  1.
         11   -1    0    0    0    0 -0.00000000000E+00 -0.00000000000E+00 -0.45593999997E+02  0.45594000000E+02  0.51100000000E-03 0. -1.
    9900012    2    1    2    0    0  0.71998332545E+01 -0.42781592008E+02 -0.12333133423E+01  0.47787271026E+02  0.19999999918E+02 0.  0.
        -12    1    1    2    0    0 -0.71998332545E+01  0.42781592008E+02  0.12333133423E+01  0.43400728974E+02  0.00000000000E+00 0.  1.
         11    1    3    3    0    0 -0.49628790314E+00 -0.17661652363E+02 -0.75006612849E+01  0.19194795801E+02  0.51100000000E-03 0. -1.
        -11    1    3    3    0    0  0.34458788723E+00  0.57374970069E+00  0.12254612686E+01  0.13963112522E+01  0.51100000000E-03 0.  1.
        -12    1    3    3    0    0  0.73515332705E+01 -0.25693689346E+02  0.50418866740E+01  0.27196163973E+02  0.00000000000E+00 0.  1.
</event>
<event>
 7    1  0.3884463E-009  0.4778726E+02  0.7816164E-02  0.1312668E+00
        -11   -1    0    0    0    0  0.00000000000E+00  0.00000000000E+00  0.45593999997E+02  0.45594000000E+02  0.51100000000E-03 0.  1.
         11   -1    0    0    0    0 -0.00000000000E+00 -0.00000000000E+00 -0.45593999997E+02  0.45594000000E+02  0.51100000000E-03 0. -1.
    9900012    2    1    2    0    0 -0.40597500730E+02 -0.12642846183E+02  0.86962799086E+01  0.47787263723E+02  0.19999966620E+02 0.  0.
        -12    1    1    2    0    0  0.40597500730E+02  0.12642846183E+02 -0.86962799086E+01  0.43400736277E+02  0.00000000000E+00 0.  1.
         11    1    3    3    0    0 -0.53122577885E+01  0.20566348217E+01  0.18885665820E+01  0.60013759753E+01  0.51100000000E-03 0. -1.
        -11    1    3    3    0    0 -0.27077006690E+01  0.11483637548E+01  0.46396220563E+01  0.54933118710E+01  0.51100000000E-03 0.  1.
         12    1    3    3    0    0 -0.32577542273E+02 -0.15847844759E+02  0.21680912703E+01  0.36292575877E+02  0.00000000000E+00 0. -1.
</event>
<event>
 7    1  0.3884463E-009  0.4778727E+02  0.7816164E-02  0.1312668E+00
        -11   -1    0    0    0    0  0.00000000000E+00  0.00000000000E+00  0.45593999997E+02  0.45594000000E+02  0.51100000000E-03 0.  1.
         11   -1    0    0    0    0 -0.00000000000E+00 -0.00000000000E+00 -0.45593999997E+02  0.45594000000E+02  0.51100000000E-03 0. -1.
    9900012    2    1    2    0    0  0.28581795076E+01  0.10821721658E+02 -0.41932614552E+02  0.47787274051E+02  0.20000013706E+02 0.  0.
        -12    1    1    2    0    0 -0.28581795076E+01 -0.10821721658E+02  0.41932614552E+02  0.43400725949E+02  0.00000000000E+00 0.  1.
         11    1    3    3    0    0 -0.48929509363E+00 -0.41919803086E+01 -0.10638795999E+02  0.11445352295E+02  0.51100000000E-03 0. -1.
        -11    1    3    3    0    0 -0.36371885702E+01  0.57248677888E+01 -0.13127282609E+02  0.14775953467E+02  0.51100000000E-03 0.  1.
        -12    1    3    3    0    0  0.69846631715E+01  0.92888341774E+01 -0.18166535944E+02  0.21565968288E+02  0.00000000000E+00 0.  1.
</event>
<event>
 7    1  0.3884463E-009  0.4778727E+02  0.7816164E-02  0.1312668E+00
        -11   -1    0    0    0    0  0.00000000000E+00  0.00000000000E+00  0.45593999997E+02  0.45594000000E+02  0.51100000000E-03 0. -1.
         11   -1    0    0    0    0 -0.00000000000E+00 -0.00000000000E+00 -0.45593999997E+02  0.45594000000E+02  0.51100000000E-03 0.  1.
    9900012    2    1    2    0    0 -0.29334545491E+02 -0.15228939223E+02  0.28128051535E+02  0.47787269221E+02  0.19999991685E+02 0.  0.
        -12    1    1    2    0    0  0.29334545491E+02  0.15228939223E+02 -0.28128051535E+02  0.43400730779E+02  0.00000000000E+00 0.  1.
         11    1    3    3    0    0 -0.19666203107E+02 -0.11987673613E+02  0.13186215475E+02  0.26539407343E+02  0.51100000000E-03 0. -1.
        -11    1    3    3    0    0 -0.76195857771E+01  0.19642310766E+00  0.22607809977E+01  0.79503333536E+01  0.51100000000E-03 0.  1.
         12    1    3    3    0    0 -0.20487566068E+01 -0.34376887169E+01  0.12681055063E+02  0.13297528524E+02  0.00000000000E+00 0. -1.
</event>
<event>
 7    1  0.3884463E-009  0.4778727E+02  0.7816164E-02  0.1312668E+00
        -11   -1    0    0    0    0  0.00000000000E+00  0.00000000000E+00  0.45593999997E+02  0.45594000000E+02  0.51100000000E-03 0.  1.
         11   -1    0    0    0    0 -0.00000000000E+00 -0.00000000000E+00 -0.45593999997E+02  0.45594000000E+02  0.51100000000E-03 0. -1.
    9900012    2    1    2    0    0  0.11239837451E+01 -0.13153252760E+01 -0.43366225656E+02  0.47787274802E+02  0.20000017132E+02 0.  0.
        -12    1    1    2    0    0 -0.11239837451E+01  0.13153252760E+01  0.43366225656E+02  0.43400725198E+02  0.00000000000E+00 0.  1.
         11    1    3    3    0    0 -0.12052764053E+01 -0.39741262394E+01 -0.14097915696E+01  0.43856451191E+01  0.51100000000E-03 0. -1.
        -11    1    3    3    0    0  0.53412132277E+01  0.22131226553E+01 -0.12319374969E+02  0.13608580768E+02  0.51100000000E-03 0.  1.
         12    1    3    3    0    0 -0.30119530772E+01  0.44567830798E+00 -0.29637059117E+02  0.29793048914E+02  0.00000000000E+00 0. -1.
</event>
<event>
 7    1  0.3884463E-009  0.4778727E+02  0.7816164E-02  0.1312668E+00
        -11   -1    0    0    0    0  0.00000000000E+00  0.00000000000E+00  0.45593999997E+02  0.45594000000E+02  0.51100000000E-03 0.  1.
         11   -1    0    0    0    0 -0.00000000000E+00 -0.00000000000E+00 -0.45593999997E+02  0.45594000000E+02  0.51100000000E-03 0. -1.
    9900012    2    1    2    0    0  0.32750716527E+02  0.16575098980E+01 -0.28430027108E+02  0.47787271741E+02  0.20000003175E+02 0.  0.
        -12    1    1    2    0    0 -0.32750716527E+02 -0.16575098980E+01  0.28430027108E+02  0.43400728259E+02  0.00000000000E+00 0.  1.
         11    1    3    3    0    0  0.21394998746E+02 -0.22316455861E+01 -0.14170792641E+02  0.25759223158E+02  0.51100000000E-03 0. -1.
        -11    1    3    3    0    0  0.41741894821E+01 -0.36315368966E+01 -0.84966855709E+01  0.10139308853E+02  0.51100000000E-03 0.  1.
        -12    1    3    3    0    0  0.71815282988E+01  0.75206923808E+01 -0.57625488963E+01  0.11888739730E+02  0.00000000000E+00 0.  1.
</event>
<event>
 7    1  0.3884463E-009  0.4778727E+02  0.7816164E-02  0.1312668E+00
        -11   -1    0    0    0    0  0.00000000000E+00  0.00000000000E+00  0.45593999997E+02  0.45594000000E+02  0.51100000000E-03 0.  1.
         11   -1    0    0    0    0 -0.00000000000E+00 -0.00000000000E+00 -0.45593999997E+02  0.45594000000E+02  0.51100000000E-03 0. -1.
    9900012    2    1    2    0    0 -0.29206098235E+02  0.32815690832E+01 -0.31935221509E+02  0.47787271405E+02  0.20000001643E+02 0.  0.
        -12    1    1    2    0    0  0.29206098235E+02 -0.32815690832E+01  0.31935221509E+02  0.43400728595E+02  0.00000000000E+00 0.  1.
         11    1    3    3    0    0 -0.84729800127E+01 -0.50449886905E+01 -0.10083802585E+02  0.14104126206E+02  0.51100000000E-03 0. -1.
        -11    1    3    3    0    0 -0.49824436222E+01 -0.27158803417E+01 -0.19382998703E+01  0.59964787273E+01  0.51100000000E-03 0.  1.
         12    1    3    3    0    0 -0.15750674600E+02  0.11042438115E+02 -0.19913119053E+02  0.27686666472E+02  0.00000000000E+00 0. -1.
</event>
<event>
 7    1  0.3884463E-009  0.4778727E+02  0.7816164E-02  0.1312668E+00
        -11   -1    0    0    0    0  0.00000000000E+00  0.00000000000E+00  0.45593999997E+02  0.45594000000E+02  0.51100000000E-03 0.  1.
         11   -1    0    0    0    0 -0.00000000000E+00 -0.00000000000E+00 -0.45593999997E+02  0.45594000000E+02  0.51100000000E-03 0. -1.
    9900012    2    1    2    0    0  0.64505551591E+01 -0.16231734067E+02 -0.39730898444E+02  0.47787272543E+02  0.20000006832E+02 0.  0.
        -12    1    1    2    0    0 -0.64505551591E+01  0.16231734067E+02  0.39730898444E+02  0.43400727457E+02  0.00000000000E+00 0.  1.
         11    1    3    3    0    0 -0.28292436659E+01 -0.10527398500E+02 -0.16771202320E+02  0.20002598992E+02  0.51100000000E-03 0. -1.
        -11    1    3    3    0    0 -0.87135511850E+00  0.22361567635E+01 -0.17645938874E+01  0.29788334398E+01  0.51100000000E-03 0.  1.
         12    1    3    3    0    0  0.10151153943E+02 -0.79404923307E+01 -0.21195102236E+02  0.24805840111E+02  0.00000000000E+00 0. -1.
</event>
<event>
 7    1  0.3884463E-009  0.4778727E+02  0.7816164E-02  0.1312668E+00
        -11   -1    0    0    0    0  0.00000000000E+00  0.00000000000E+00  0.45593999997E+02  0.45594000000E+02  0.51100000000E-03 0.  1.
         11   -1    0    0    0    0 -0.00000000000E+00 -0.00000000000E+00 -0.45593999997E+02  0.45594000000E+02  0.51100000000E-03 0. -1.
    9900012    2    1    2    0    0  0.16262191646E+02 -0.10678539531E+02 -0.38796046936E+02  0.47787270266E+02  0.19999996449E+02 0.  0.
        -12    1    1    2    0    0 -0.16262191646E+02  0.10678539531E+02  0.38796046936E+02  0.43400729734E+02  0.00000000000E+00 0.  1.
         11    1    3    3    0    0  0.35476036666E+01 -0.11063933561E+01 -0.17370244882E+02  0.17763305029E+02  0.51100000000E-03 0.  1.
        -11    1    3    3    0    0  0.14199816934E+02 -0.36521296104E+01 -0.17195778969E+02  0.22597957126E+02  0.51100000000E-03 0. -1.
        -12    1    3    3    0    0 -0.14852289541E+01 -0.59200165642E+01 -0.42300230849E+01  0.74260081110E+01  0.00000000000E+00 0.  1.
</event>
<event>
 7    1  0.3884463E-009  0.4778726E+02  0.7816164E-02  0.1312668E+00
        -11   -1    0    0    0    0  0.00000000000E+00  0.00000000000E+00  0.45593999997E+02  0.45594000000E+02  0.51100000000E-03 0.  1.
         11   -1    0    0    0    0 -0.00000000000E+00 -0.00000000000E+00 -0.45593999997E+02  0.45594000000E+02  0.51100000000E-03 0. -1.
    9900012    2    1    2    0    0 -0.14703537970E+02  0.65195429592E+01 -0.40310368710E+02  0.47787259283E+02  0.19999946376E+02 0.  0.
        -12    1    1    2    0    0  0.14703537970E+02 -0.65195429592E+01  0.40310368710E+02  0.43400740717E+02  0.00000000000E+00 0.  1.
         11    1    3    3    0    0 -0.20178986126E+01 -0.89491394973E+00  0.16012541742E+00  0.22132388480E+01  0.51100000000E-03 0. -1.
        -11    1    3    3    0    0 -0.16856827682E+01 -0.23353259319E+01 -0.41901394026E+00  0.29104718769E+01  0.51100000000E-03 0.  1.
        -12    1    3    3    0    0 -0.10999956589E+02  0.97497828408E+01 -0.40051480187E+02  0.42663548558E+02  0.00000000000E+00 0.  1.
</event>
<event>
 7    1  0.3884463E-009  0.4778728E+02  0.7816164E-02  0.1312668E+00
        -11   -1    0    0    0    0  0.00000000000E+00  0.00000000000E+00  0.45593999997E+02  0.45594000000E+02  0.51100000000E-03 0.  1.
         11   -1    0    0    0    0 -0.00000000000E+00 -0.00000000000E+00 -0.45593999997E+02  0.45594000000E+02  0.51100000000E-03 0. -1.
    9900012    2    1    2    0    0  0.41384438652E+02 -0.11759886667E+02 -0.57145373410E+01  0.47787278417E+02  0.20000033612E+02 0.  0.
        -12    1    1    2    0    0 -0.41384438652E+02  0.11759886667E+02  0.57145373410E+01  0.43400721583E+02  0.00000000000E+00 0.  1.
         11    1    3    3    0    0  0.81903870924E+01 -0.32041267339E+01 -0.69300069566E+01  0.11197047179E+02  0.51100000000E-03 0. -1.
        -11    1    3    3    0    0  0.26546092492E+00 -0.30075986770E+01 -0.84103382187E+00  0.31342395338E+01  0.51100000000E-03 0.  1.
         12    1    3    3    0    0  0.32928590634E+02 -0.55481612563E+01  0.20565034374E+01  0.33455991704E+02  0.00000000000E+00 0. -1.
</event>
<event>
 7    1  0.3884463E-009  0.4778728E+02  0.7816164E-02  0.1312668E+00
        -11   -1    0    0    0    0  0.00000000000E+00  0.00000000000E+00  0.45593999997E+02  0.45594000000E+02  0.51100000000E-03 0. -1.
         11   -1    0    0    0    0 -0.00000000000E+00 -0.00000000000E+00 -0.45593999997E+02  0.45594000000E+02  0.51100000000E-03 0.  1.
    9900012    2    1    2    0    0  0.19282736610E+02 -0.28741453742E+02  0.26186403444E+02  0.47787276277E+02  0.20000023856E+02 0.  0.
        -12    1    1    2    0    0 -0.19282736610E+02  0.28741453742E+02 -0.26186403444E+02  0.43400723723E+02  0.00000000000E+00 0.  1.
         11    1    3    3    0    0  0.64540246389E+01 -0.15076243180E+02  0.18313175862E+02  0.24582919942E+02  0.51100000000E-03 0. -1.
        -11    1    3    3    0    0  0.10614376859E+02 -0.14745468651E+02  0.92439828897E+01  0.20384922413E+02  0.51100000000E-03 0.  1.
        -12    1    3    3    0    0  0.22143351117E+01  0.10802580891E+01 -0.13707553074E+01  0.28194339217E+01  0.00000000000E+00 0.  1.
</event>
<event>
 7    1  0.3884463E-009  0.4778727E+02  0.7816164E-02  0.1312668E+00
        -11   -1    0    0    0    0  0.00000000000E+00  0.00000000000E+00  0.45593999997E+02  0.45594000000E+02  0.51100000000E-03 0.  1.
         11   -1    0    0    0    0 -0.00000000000E+00 -0.00000000000E+00 -0.45593999997E+02  0.45594000000E+02  0.51100000000E-03 0. -1.
    9900012    2    1    2    0    0  0.13528482255E+02  0.12057924256E+02 -0.39436149889E+02  0.47787270887E+02  0.19999999282E+02 0.  0.
        -12    1    1    2    0    0 -0.13528482255E+02 -0.12057924256E+02  0.39436149889E+02  0.43400729113E+02  0.00000000000E+00 0.  1.
         11    1    3    3    0    0  0.50569944291E+01  0.53654027440E+01 -0.12138725591E+02  0.14202443399E+02  0.51100000000E-03 0. -1.
        -11    1    3    3    0    0  0.48966781064E+01 -0.13230722996E+01 -0.17234911828E+00  0.50752025838E+01  0.51100000000E-03 0.  1.
         12    1    3    3    0    0  0.35748097195E+01  0.80155938116E+01 -0.27125075180E+02  0.28509624905E+02  0.00000000000E+00 0. -1.
</event>
<event>
 7    1  0.3884463E-009  0.4778725E+02  0.7816164E-02  0.1312668E+00
        -11   -1    0    0    0    0  0.00000000000E+00  0.00000000000E+00  0.45593999997E+02  0.45594000000E+02  0.51100000000E-03 0.  1.
         11   -1    0    0    0    0 -0.00000000000E+00 -0.00000000000E+00 -0.45593999997E+02  0.45594000000E+02  0.51100000000E-03 0. -1.
    9900012    2    1    2    0    0 -0.36897267591E+01  0.23718370039E+02 -0.36158676991E+02  0.47787250207E+02  0.19999904994E+02 0.  0.
        -12    1    1    2    0    0  0.36897267591E+01 -0.23718370039E+02  0.36158676991E+02  0.43400749793E+02  0.00000000000E+00 0.  1.
         11    1    3    3    0    0 -0.28544517914E+01  0.16489247937E+02 -0.16321690004E+02  0.23376072326E+02  0.51100000000E-03 0. -1.
        -11    1    3    3    0    0  0.30972636576E+00  0.74645480115E+01 -0.38930441300E+01  0.84244406519E+01  0.51100000000E-03 0.  1.
         12    1    3    3    0    0 -0.11450013335E+01 -0.23542590946E+00 -0.15943942857E+02  0.15986737230E+02  0.00000000000E+00 0. -1.
</event>
<event>
 7    1  0.3884463E-009  0.4778727E+02  0.7816164E-02  0.1312668E+00
        -11   -1    0    0    0    0  0.00000000000E+00  0.00000000000E+00  0.45593999997E+02  0.45594000000E+02  0.51100000000E-03 0.  1.
         11   -1    0    0    0    0 -0.00000000000E+00 -0.00000000000E+00 -0.45593999997E+02  0.45594000000E+02  0.51100000000E-03 0. -1.
    9900012    2    1    2    0    0 -0.17272348411E+02  0.79698325029E+01 -0.39009883229E+02  0.47787271443E+02  0.20000001817E+02 0.  0.
        -12    1    1    2    0    0  0.17272348411E+02 -0.79698325029E+01  0.39009883229E+02  0.43400728557E+02  0.00000000000E+00 0.  1.
         11    1    3    3    0    0 -0.11035098083E+01  0.19559952873E+01  0.94605908080E+00  0.24369406038E+01  0.51100000000E-03 0.  1.
        -11    1    3    3    0    0 -0.75400375021E+01  0.89654734121E+01 -0.16963681529E+02  0.20615488602E+02  0.51100000000E-03 0. -1.
         12    1    3    3    0    0 -0.86288011007E+01 -0.29516361965E+01 -0.22992260781E+02  0.24734842237E+02  0.00000000000E+00 0. -1.
</event>
<event>
 7    1  0.3884463E-009  0.4778727E+02  0.7816164E-02  0.1312668E+00
        -11   -1    0    0    0    0  0.00000000000E+00  0.00000000000E+00  0.45593999997E+02  0.45594000000E+02  0.51100000000E-03 0.  1.
         11   -1    0    0    0    0 -0.00000000000E+00 -0.00000000000E+00 -0.45593999997E+02  0.45594000000E+02  0.51100000000E-03 0. -1.
    9900012    2    1    2    0    0 -0.32601304107E+02  0.26070619911E+02 -0.11878595445E+02  0.47787270954E+02  0.19999999586E+02 0.  0.
        -12    1    1    2    0    0  0.32601304107E+02 -0.26070619911E+02  0.11878595445E+02  0.43400729046E+02  0.00000000000E+00 0.  1.
         11    1    3    3    0    0 -0.11420014647E+01  0.11378218982E+01  0.20476404051E+01  0.26060770339E+01  0.51100000000E-03 0. -1.
        -11    1    3    3    0    0 -0.18329894831E+01  0.34352623768E+00 -0.54467790407E+01  0.57571922758E+01  0.51100000000E-03 0.  1.
         12    1    3    3    0    0 -0.29626313159E+02  0.24589271775E+02 -0.84794568096E+01  0.39424001644E+02  0.00000000000E+00 0. -1.
</event>
<event>
 7    1  0.3884463E-009  0.4778727E+02  0.7816164E-02  0.1312668E+00
        -11   -1    0    0    0    0  0.00000000000E+00  0.00000000000E+00  0.45593999997E+02  0.45594000000E+02  0.51100000000E-03 0.  1.
         11   -1    0    0    0    0 -0.00000000000E+00 -0.00000000000E+00 -0.45593999997E+02  0.45594000000E+02  0.51100000000E-03 0. -1.
    9900012    2    1    2    0    0  0.37524150756E+02 -0.14148766715E+02 -0.16594391402E+02  0.47787270565E+02  0.19999997814E+02 0.  0.
        -12    1    1    2    0    0 -0.37524150756E+02  0.14148766715E+02  0.16594391402E+02  0.43400729435E+02  0.00000000000E+00 0.  1.
         11    1    3    3    0    0  0.15585022874E+02 -0.10527928865E+02 -0.92581234600E+01  0.20962897567E+02  0.51100000000E-03 0. -1.
        -11    1    3    3    0    0  0.44933692196E+01 -0.13898007809E+00 -0.78288099099E+01  0.90277321223E+01  0.51100000000E-03 0.  1.
        -12    1    3    3    0    0  0.17445758663E+02 -0.34818577721E+01  0.49254196828E+00  0.17796640875E+02  0.00000000000E+00 0.  1.
</event>
<event>
 7    1  0.3884463E-009  0.4778727E+02  0.7816164E-02  0.1312668E+00
        -11   -1    0    0    0    0  0.00000000000E+00  0.00000000000E+00  0.45593999997E+02  0.45594000000E+02  0.51100000000E-03 0.  1.
         11   -1    0    0    0    0 -0.00000000000E+00 -0.00000000000E+00 -0.45593999997E+02  0.45594000000E+02  0.51100000000E-03 0. -1.
    9900012    2    1    2    0    0 -0.30291165851E+02 -0.26862955263E+02 -0.15634897309E+02  0.47787272956E+02  0.20000008716E+02 0.  0.
        -12    1    1    2    0    0  0.30291165851E+02  0.26862955263E+02  0.15634897309E+02  0.43400727044E+02  0.00000000000E+00 0.  1.
         11    1    3    3    0    0  0.19675625480E+01 -0.14856339734E+01 -0.68339224984E+00  0.25584049545E+01  0.51100000000E-03 0. -1.
        -11    1    3    3    0    0  0.34567638687E-01 -0.35701101365E+01 -0.23535133723E+01  0.42762023764E+01  0.51100000000E-03 0.  1.
         12    1    3    3    0    0 -0.32293296038E+02 -0.21807211153E+02 -0.12597991686E+02  0.40952665625E+02  0.00000000000E+00 0. -1.
</event>
<event>
 7    1  0.3884463E-009  0.4778727E+02  0.7816164E-02  0.1312668E+00
        -11   -1    0    0    0    0  0.00000000000E+00  0.00000000000E+00  0.45593999997E+02  0.45594000000E+02  0.51100000000E-03 0.  1.
         11   -1    0    0    0    0 -0.00000000000E+00 -0.00000000000E+00 -0.45593999997E+02  0.45594000000E+02  0.51100000000E-03 0. -1.
    9900012    2    1    2    0    0 -0.20191831766E+02 -0.31343494437E+01 -0.38289542322E+02  0.47787271115E+02  0.20000000323E+02 0.  0.
        -12    1    1    2    0    0  0.20191831766E+02  0.31343494437E+01  0.38289542322E+02  0.43400728885E+02  0.00000000000E+00 0.  1.
         11    1    3    3    0    0 -0.68594737266E+01  0.31736048703E+01 -0.19032846885E+02  0.20478608559E+02  0.51100000000E-03 0. -1.
        -11    1    3    3    0    0  0.80422454966E+00  0.25062952905E+01 -0.18687934274E+01  0.32281081681E+01  0.51100000000E-03 0.  1.
        -12    1    3    3    0    0 -0.14136582589E+02 -0.88142496045E+01 -0.17387902009E+02  0.24080554389E+02  0.00000000000E+00 0.  1.
</event>
<event>
 7    1  0.3884463E-009  0.4778727E+02  0.7816164E-02  0.1312668E+00
        -11   -1    0    0    0    0  0.00000000000E+00  0.00000000000E+00  0.45593999997E+02  0.45594000000E+02  0.51100000000E-03 0.  1.
         11   -1    0    0    0    0 -0.00000000000E+00 -0.00000000000E+00 -0.45593999997E+02  0.45594000000E+02  0.51100000000E-03 0. -1.
    9900012    2    1    2    0    0  0.18189854703E+02  0.13744426307E+02 -0.36930254735E+02  0.47787265174E+02  0.19999973235E+02 0.  0.
        -12    1    1    2    0    0 -0.18189854703E+02 -0.13744426307E+02  0.36930254735E+02  0.43400734826E+02  0.00000000000E+00 0.  1.
         11    1    3    3    0    0  0.42490052724E+01  0.33697750029E+01 -0.24462090715E+02  0.25056003508E+02  0.51100000000E-03 0. -1.
        -11    1    3    3    0    0  0.27111280374E+01  0.55582278314E+01 -0.70118386010E+01  0.93493311358E+01  0.51100000000E-03 0.  1.
        -12    1    3    3    0    0  0.11229721394E+02  0.48164234730E+01 -0.54563254187E+01  0.13381930531E+02  0.00000000000E+00 0.  1.
</event>
<event>
 7    1  0.3884463E-009  0.4778726E+02  0.7816164E-02  0.1312668E+00
        -11   -1    0    0    0    0  0.00000000000E+00  0.00000000000E+00  0.45593999997E+02  0.45594000000E+02  0.51100000000E-03 0.  1.
         11   -1    0    0    0    0 -0.00000000000E+00 -0.00000000000E+00 -0.45593999997E+02  0.45594000000E+02  0.51100000000E-03 0. -1.
    9900012    2    1    2    0    0  0.17457103329E+02  0.36669501343E+01 -0.39565475224E+02  0.47787264872E+02  0.19999971859E+02 0.  0.
        -12    1    1    2    0    0 -0.17457103329E+02 -0.36669501343E+01  0.39565475224E+02  0.43400735128E+02  0.00000000000E+00 0.  1.
         11    1    3    3    0    0 -0.17935555555E+01  0.42558228393E+01 -0.60312214674E+01  0.75963479528E+01  0.51100000000E-03 0. -1.
        -11    1    3    3    0    0 -0.62602245614E-01 -0.11164314415E+01 -0.84749418383E+01  0.85483903530E+01  0.51100000000E-03 0.  1.
         12    1    3    3    0    0  0.19313261130E+02  0.52755873644E+00 -0.25059311918E+02  0.31642526567E+02  0.00000000000E+00 0. -1.
</event>
<event>
 7    1  0.3884463E-009  0.4778728E+02  0.7816164E-02  0.1312668E+00
        -11   -1    0    0    0    0  0.00000000000E+00  0.00000000000E+00  0.45593999997E+02  0.45594000000E+02  0.51100000000E-03 0.  1.
         11   -1    0    0    0    0 -0.00000000000E+00 -0.00000000000E+00 -0.45593999997E+02  0.45594000000E+02  0.51100000000E-03 0. -1.
    9900012    2    1    2    0    0  0.19339009713E+02  0.30913434691E+02 -0.23536888962E+02  0.47787275546E+02  0.20000020526E+02 0.  0.
        -12    1    1    2    0    0 -0.19339009713E+02 -0.30913434691E+02  0.23536888962E+02  0.43400724454E+02  0.00000000000E+00 0.  1.
         11    1    3    3    0    0  0.30379475299E+01  0.84731682442E+01 -0.59069421066E+01  0.10766414008E+02  0.51100000000E-03 0. -1.
        -11    1    3    3    0    0  0.75957924381E+01  0.53831908723E+01  0.20803917186E+01  0.95395406962E+01  0.51100000000E-03 0.  1.
        -12    1    3    3    0    0  0.87052697449E+01  0.17057075574E+02 -0.19710338574E+02  0.27481320842E+02  0.00000000000E+00 0.  1.
</event>
<event>
 7    1  0.3884463E-009  0.4778730E+02  0.7816164E-02  0.1312668E+00
        -11   -1    0    0    0    0  0.00000000000E+00  0.00000000000E+00  0.45593999997E+02  0.45594000000E+02  0.51100000000E-03 0. -1.
         11   -1    0    0    0    0 -0.00000000000E+00 -0.00000000000E+00 -0.45593999997E+02  0.45594000000E+02  0.51100000000E-03 0.  1.
    9900012    2    1    2    0    0 -0.24744171205E+02  0.35426718294E+02  0.40366070564E+01  0.47787302145E+02  0.20000141801E+02 0.  0.
        -12    1    1    2    0    0  0.24744171205E+02 -0.35426718294E+02 -0.40366070564E+01  0.43400697855E+02  0.00000000000E+00 0.  1.
         11    1    3    3    0    0 -0.36950553583E+01  0.15184467241E+02  0.90308142147E+01  0.18049295974E+02  0.51100000000E-03 0. -1.
        -11    1    3    3    0    0 -0.38418163861E+01  0.26439547272E+01 -0.23741380055E+00  0.46697339665E+01  0.51100000000E-03 0.  1.
         12    1    3    3    0    0 -0.17207299461E+02  0.17598296326E+02 -0.47567933577E+01  0.25068272205E+02  0.00000000000E+00 0. -1.
</event>
<event>
 7    1  0.3884463E-009  0.4778727E+02  0.7816164E-02  0.1312668E+00
        -11   -1    0    0    0    0  0.00000000000E+00  0.00000000000E+00  0.45593999997E+02  0.45594000000E+02  0.51100000000E-03 0.  1.
         11   -1    0    0    0    0 -0.00000000000E+00 -0.00000000000E+00 -0.45593999997E+02  0.45594000000E+02  0.51100000000E-03 0. -1.
    9900012    2    1    2    0    0 -0.33447095893E+02 -0.56784072048E+00 -0.27651269294E+02  0.47787270049E+02  0.19999995459E+02 0.  0.
        -12    1    1    2    0    0  0.33447095893E+02  0.56784072048E+00  0.27651269294E+02  0.43400729951E+02  0.00000000000E+00 0.  1.
         11    1    3    3    0    0  0.15353941777E-01  0.17396634095E+01 -0.37444041862E+00  0.17795702880E+01  0.51100000000E-03 0. -1.
        -11    1    3    3    0    0 -0.20117356507E+01  0.42605925222E+01 -0.52430915199E+01  0.70490948296E+01  0.51100000000E-03 0.  1.
         12    1    3    3    0    0 -0.31450714184E+02 -0.65680966522E+01 -0.22033737355E+02  0.38958604931E+02  0.00000000000E+00 0. -1.
</event>
<event>
 7    1  0.3884463E-009  0.4778728E+02  0.7816164E-02  0.1312668E+00
        -11   -1    0    0    0    0  0.00000000000E+00  0.00000000000E+00  0.45593999997E+02  0.45594000000E+02  0.51100000000E-03 0.  1.
         11   -1    0    0    0    0 -0.00000000000E+00 -0.00000000000E+00 -0.45593999997E+02  0.45594000000E+02  0.51100000000E-03 0. -1.
    9900012    2    1    2    0    0  0.58668599839E+01 -0.27354449143E+01 -0.42915265179E+02  0.47787277768E+02  0.20000030654E+02 0.  0.
        -12    1    1    2    0    0 -0.58668599839E+01  0.27354449143E+01  0.42915265179E+02  0.43400722232E+02  0.00000000000E+00 0.  1.
         11    1    3    3    0    0 -0.26287729787E+01 -0.22455405664E+01 -0.29957810038E+02  0.30156645741E+02  0.51100000000E-03 0.  1.
        -11    1    3    3    0    0  0.50370526956E+01 -0.23660329643E+01 -0.12483190052E+02  0.13667481332E+02  0.51100000000E-03 0. -1.
        -12    1    3    3    0    0  0.34585802670E+01  0.18761286164E+01 -0.47426508853E+00  0.39631506939E+01  0.00000000000E+00 0.  1.
</event>
<event>
 7    1  0.3884463E-009  0.4778727E+02  0.7816164E-02  0.1312668E+00
        -11   -1    0    0    0    0  0.00000000000E+00  0.00000000000E+00  0.45593999997E+02  0.45594000000E+02  0.51100000000E-03 0. -1.
         11   -1    0    0    0    0 -0.00000000000E+00 -0.00000000000E+00 -0.45593999997E+02  0.45594000000E+02  0.51100000000E-03 0.  1.
    9900012    2    1    2    0    0 -0.10029555923E+02  0.26848656943E+02  0.32591118005E+02  0.47787270231E+02  0.19999996292E+02 0.  0.
        -12    1    1    2    0    0  0.10029555923E+02 -0.26848656943E+02 -0.32591118005E+02  0.43400729769E+02  0.00000000000E+00 0.  1.
         11    1    3    3    0    0 -0.78963950132E+01  0.58203897587E+01  0.10667205615E+02  0.14492041507E+02  0.51100000000E-03 0.  1.
        -11    1    3    3    0    0  0.27391319388E+01  0.86720017734E+01  0.16713623928E+02  0.19027655757E+02  0.51100000000E-03 0. -1.
         12    1    3    3    0    0 -0.48722928490E+01  0.12356265411E+02  0.52102884614E+01  0.14267572967E+02  0.00000000000E+00 0. -1.
</event>
<event>
 7    1  0.3884463E-009  0.4778727E+02  0.7816164E-02  0.1312668E+00
        -11   -1    0    0    0    0  0.00000000000E+00  0.00000000000E+00  0.45593999997E+02  0.45594000000E+02  0.51100000000E-03 0.  1.
         11   -1    0    0    0    0 -0.00000000000E+00 -0.00000000000E+00 -0.45593999997E+02  0.45594000000E+02  0.51100000000E-03 0. -1.
    9900012    2    1    2    0    0  0.15955874569E+02 -0.34509602630E+02 -0.20931331064E+02  0.47787271584E+02  0.20000002461E+02 0.  0.
        -12    1    1    2    0    0 -0.15955874569E+02  0.34509602630E+02  0.20931331064E+02  0.43400728416E+02  0.00000000000E+00 0.  1.
         11    1    3    3    0    0  0.12646568850E+02 -0.12384475347E+02 -0.21609339718E+01  0.17832009679E+02  0.51100000000E-03 0.  1.
        -11    1    3    3    0    0  0.41258549822E+01 -0.10704842380E+02 -0.65554478805E+01  0.13213259511E+02  0.51100000000E-03 0. -1.
        -12    1    3    3    0    0 -0.81654926313E+00 -0.11420284903E+02 -0.12214949211E+02  0.16742002395E+02  0.00000000000E+00 0.  1.
</event>
<event>
 7    1  0.3884463E-009  0.4778725E+02  0.7816164E-02  0.1312668E+00
        -11   -1    0    0    0    0  0.00000000000E+00  0.00000000000E+00  0.45593999997E+02  0.45594000000E+02  0.51100000000E-03 0.  1.
         11   -1    0    0    0    0 -0.00000000000E+00 -0.00000000000E+00 -0.45593999997E+02  0.45594000000E+02  0.51100000000E-03 0. -1.
    9900012    2    1    2    0    0 -0.39946335644E+02 -0.15948902982E+02 -0.57920646862E+01  0.47787248266E+02  0.19999896145E+02 0.  0.
        -12    1    1    2    0    0  0.39946335644E+02  0.15948902982E+02  0.57920646862E+01  0.43400751734E+02  0.00000000000E+00 0.  1.
         11    1    3    3    0    0 -0.17219224440E+02 -0.38518633297E+01 -0.31814114740E+01  0.17929303407E+02  0.51100000000E-03 0. -1.
        -11    1    3    3    0    0 -0.77889095334E+01  0.14220847814E+01 -0.53058772846E+01  0.95310949458E+01  0.51100000000E-03 0.  1.
         12    1    3    3    0    0 -0.14938201671E+02 -0.13519124434E+02  0.26952240724E+01  0.20326849914E+02  0.00000000000E+00 0. -1.
</event>
<event>
 7    1  0.3884463E-009  0.4778727E+02  0.7816164E-02  0.1312668E+00
        -11   -1    0    0    0    0  0.00000000000E+00  0.00000000000E+00  0.45593999997E+02  0.45594000000E+02  0.51100000000E-03 0.  1.
         11   -1    0    0    0    0 -0.00000000000E+00 -0.00000000000E+00 -0.45593999997E+02  0.45594000000E+02  0.51100000000E-03 0. -1.
    9900012    2    1    2    0    0 -0.31927690745E+02  0.28847525495E+02 -0.56626965952E+01  0.47787270787E+02  0.19999998827E+02 0.  0.
        -12    1    1    2    0    0  0.31927690745E+02 -0.28847525495E+02  0.56626965952E+01  0.43400729213E+02  0.00000000000E+00 0.  1.
         11    1    3    3    0    0 -0.68627628136E+01  0.59437816630E+00  0.11880507247E+01  0.69901547641E+01  0.51100000000E-03 0. -1.
        -11    1    3    3    0    0 -0.13732735187E+02  0.61726832921E+01 -0.51796278300E+01  0.15922266781E+02  0.51100000000E-03 0.  1.
         12    1    3    3    0    0 -0.11332192745E+02  0.22080464036E+02 -0.16711194899E+01  0.24874849242E+02  0.00000000000E+00 0. -1.
</event>
<event>
 7    1  0.3884463E-009  0.4778729E+02  0.7816164E-02  0.1312668E+00
        -11   -1    0    0    0    0  0.00000000000E+00  0.00000000000E+00  0.45593999997E+02  0.45594000000E+02  0.51100000000E-03 0. -1.
         11   -1    0    0    0    0 -0.00000000000E+00 -0.00000000000E+00 -0.45593999997E+02  0.45594000000E+02  0.51100000000E-03 0.  1.
    9900012    2    1    2    0    0  0.24095290219E+02  0.28157617280E+02  0.22587318227E+02  0.47787293021E+02  0.20000100198E+02 0.  0.
        -12    1    1    2    0    0 -0.24095290219E+02 -0.28157617280E+02 -0.22587318227E+02  0.43400706979E+02  0.00000000000E+00 0.  1.
         11    1    3    3    0    0  0.23905309084E-01  0.37304354753E+01  0.29446522671E+01  0.47526516319E+01  0.51100000000E-03 0. -1.
        -11    1    3    3    0    0  0.80680014199E+01  0.38434444187E+01 -0.19903348266E+01  0.91556619037E+01  0.51100000000E-03 0.  1.
        -12    1    3    3    0    0  0.16003383490E+02  0.20583737386E+02  0.21633000787E+02  0.33878979485E+02  0.00000000000E+00 0.  1.
</event>
<event>
 7    1  0.3884463E-009  0.4778728E+02  0.7816164E-02  0.1312668E+00
        -11   -1    0    0    0    0  0.00000000000E+00  0.00000000000E+00  0.45593999997E+02  0.45594000000E+02  0.51100000000E-03 0.  1.
         11   -1    0    0    0    0 -0.00000000000E+00 -0.00000000000E+00 -0.45593999997E+02  0.45594000000E+02  0.51100000000E-03 0. -1.
    9900012    2    1    2    0    0  0.20628381672E+02 -0.30426357017E+01 -0.38063567295E+02  0.47787275149E+02  0.20000018713E+02 0.  0.
        -12    1    1    2    0    0 -0.20628381672E+02  0.30426357017E+01  0.38063567295E+02  0.43400724851E+02  0.00000000000E+00 0.  1.
         11    1    3    3    0    0  0.38286519164E+01 -0.44115290879E+01 -0.69276934639E+00  0.58821844597E+01  0.51100000000E-03 0. -1.
        -11    1    3    3    0    0  0.18406631671E+01  0.33889922293E+01 -0.71243732166E+01  0.81012346723E+01  0.51100000000E-03 0.  1.
         12    1    3    3    0    0  0.14959066589E+02 -0.20200988431E+01 -0.30246424732E+02  0.33803856017E+02  0.00000000000E+00 0. -1.
</event>
<event>
 7    1  0.3884463E-009  0.4778727E+02  0.7816164E-02  0.1312668E+00
        -11   -1    0    0    0    0  0.00000000000E+00  0.00000000000E+00  0.45593999997E+02  0.45594000000E+02  0.51100000000E-03 0.  1.
         11   -1    0    0    0    0 -0.00000000000E+00 -0.00000000000E+00 -0.45593999997E+02  0.45594000000E+02  0.51100000000E-03 0. -1.
    9900012    2    1    2    0    0  0.20012916871E+02  0.12086487110E+02 -0.36565328433E+02  0.47787271253E+02  0.20000000950E+02 0.  0.
        -12    1    1    2    0    0 -0.20012916871E+02 -0.12086487110E+02  0.36565328433E+02  0.43400728747E+02  0.00000000000E+00 0.  1.
         11    1    3    3    0    0  0.88532367593E+01  0.10855126505E+02 -0.25523348370E+02  0.29114513302E+02  0.51100000000E-03 0. -1.
        -11    1    3    3    0    0  0.27980756148E+01 -0.18930262183E+01 -0.88620953657E+01  0.94841715474E+01  0.51100000000E-03 0.  1.
         12    1    3    3    0    0  0.83616044973E+01  0.31243868230E+01 -0.21798846977E+01  0.91885864030E+01  0.00000000000E+00 0. -1.
</event>
<event>
 7    1  0.3884463E-009  0.4778727E+02  0.7816164E-02  0.1312668E+00
        -11   -1    0    0    0    0  0.00000000000E+00  0.00000000000E+00  0.45593999997E+02  0.45594000000E+02  0.51100000000E-03 0.  1.
         11   -1    0    0    0    0 -0.00000000000E+00 -0.00000000000E+00 -0.45593999997E+02  0.45594000000E+02  0.51100000000E-03 0. -1.
    9900012    2    1    2    0    0  0.39750009699E+01  0.30319354574E+02 -0.30798694166E+02  0.47787268936E+02  0.19999990387E+02 0.  0.
        -12    1    1    2    0    0 -0.39750009699E+01 -0.30319354574E+02  0.30798694166E+02  0.43400731064E+02  0.00000000000E+00 0.  1.
         11    1    3    3    0    0  0.77587070100E+01  0.98890331936E+01 -0.14638860620E+02  0.19294733802E+02  0.51100000000E-03 0. -1.
        -11    1    3    3    0    0  0.19351716502E+01  0.15409944109E+02 -0.85424486659E+01  0.17725255886E+02  0.51100000000E-03 0.  1.
        -12    1    3    3    0    0 -0.57188776903E+01  0.50203772716E+01 -0.76173848802E+01  0.10767279248E+02  0.00000000000E+00 0.  1.
</event>
<event>
 7    1  0.3884463E-009  0.4778726E+02  0.7816164E-02  0.1312668E+00
        -11   -1    0    0    0    0  0.00000000000E+00  0.00000000000E+00  0.45593999997E+02  0.45594000000E+02  0.51100000000E-03 0.  1.
         11   -1    0    0    0    0 -0.00000000000E+00 -0.00000000000E+00 -0.45593999997E+02  0.45594000000E+02  0.51100000000E-03 0. -1.
    9900012    2    1    2    0    0 -0.32660823051E+02 -0.28022350474E+02  0.56251654407E+01  0.47787262970E+02  0.19999963187E+02 0.  0.
        -12    1    1    2    0    0  0.32660823051E+02  0.28022350474E+02 -0.56251654407E+01  0.43400737030E+02  0.00000000000E+00 0.  1.
         11    1    3    3    0    0 -0.85261414295E+01 -0.72442486584E+01 -0.66392997911E+01  0.13009785866E+02  0.51100000000E-03 0. -1.
        -11    1    3    3    0    0 -0.54180769575E+01 -0.59146785592E+01  0.24498910457E+00  0.80248987719E+01  0.51100000000E-03 0.  1.
        -12    1    3    3    0    0 -0.18716604664E+02 -0.14863423257E+02  0.12019476127E+02  0.26752578332E+02  0.00000000000E+00 0.  1.
</event>
<event>
 7    1  0.3884463E-009  0.4778728E+02  0.7816164E-02  0.1312668E+00
        -11   -1    0    0    0    0  0.00000000000E+00  0.00000000000E+00  0.45593999997E+02  0.45594000000E+02  0.51100000000E-03 0.  1.
         11   -1    0    0    0    0 -0.00000000000E+00 -0.00000000000E+00 -0.45593999997E+02  0.45594000000E+02  0.51100000000E-03 0. -1.
    9900012    2    1    2    0    0 -0.19699512174E+02  0.14553165022E+02 -0.35829554265E+02  0.47787281678E+02  0.20000048481E+02 0.  0.
        -12    1    1    2    0    0  0.19699512174E+02 -0.14553165022E+02  0.35829554265E+02  0.43400718322E+02  0.00000000000E+00 0.  1.
         11    1    3    3    0    0 -0.45714735514E+01  0.15413479039E+01 -0.18600094658E+01  0.51704699270E+01  0.51100000000E-03 0. -1.
        -11    1    3    3    0    0  0.11640201438E+01  0.15164056514E+01  0.11505676949E+01  0.22311959296E+01  0.51100000000E-03 0.  1.
         12    1    3    3    0    0 -0.16292058767E+02  0.11495411467E+02 -0.35120112494E+02  0.40385615821E+02  0.00000000000E+00 0. -1.
</event>
<event>
 7    1  0.3884463E-009  0.4778727E+02  0.7816164E-02  0.1312668E+00
        -11   -1    0    0    0    0  0.00000000000E+00  0.00000000000E+00  0.45593999997E+02  0.45594000000E+02  0.51100000000E-03 0.  1.
         11   -1    0    0    0    0 -0.00000000000E+00 -0.00000000000E+00 -0.45593999997E+02  0.45594000000E+02  0.51100000000E-03 0. -1.
    9900012    2    1    2    0    0  0.72268719255E+01  0.18290735209E+02 -0.38689079827E+02  0.47787267630E+02  0.19999984434E+02 0.  0.
        -12    1    1    2    0    0 -0.72268719255E+01 -0.18290735209E+02  0.38689079827E+02  0.43400732370E+02  0.00000000000E+00 0.  1.
         11    1    3    3    0    0  0.59462657663E+01  0.77494176225E+01 -0.21529467753E+02  0.23641690550E+02  0.51100000000E-03 0. -1.
        -11    1    3    3    0    0 -0.37390728129E+00  0.11529511819E+02 -0.18497387146E+02  0.21799605063E+02  0.51100000000E-03 0.  1.
        -12    1    3    3    0    0  0.16545134405E+01 -0.98819423196E+00  0.13377750715E+01  0.23459720175E+01  0.00000000000E+00 0.  1.
</event>
<event>
 7    1  0.3884463E-009  0.4778727E+02  0.7816164E-02  0.1312668E+00
        -11   -1    0    0    0    0  0.00000000000E+00  0.00000000000E+00  0.45593999997E+02  0.45594000000E+02  0.51100000000E-03 0.  1.
         11   -1    0    0    0    0 -0.00000000000E+00 -0.00000000000E+00 -0.45593999997E+02  0.45594000000E+02  0.51100000000E-03 0. -1.
    9900012    2    1    2    0    0  0.18860564024E+02  0.32803018520E+02 -0.21257100386E+02  0.47787271710E+02  0.20000003033E+02 0.  0.
        -12    1    1    2    0    0 -0.18860564024E+02 -0.32803018520E+02  0.21257100386E+02  0.43400728290E+02  0.00000000000E+00 0.  1.
         11    1    3    3    0    0 -0.19154865169E+01  0.48624826910E+00 -0.11833380294E+01  0.23034355056E+01  0.51100000000E-03 0. -1.
        -11    1    3    3    0    0  0.69298610310E+01  0.33009343334E+01 -0.81450421283E+01  0.11191999505E+02  0.51100000000E-03 0.  1.
         12    1    3    3    0    0  0.13846189509E+02  0.29015835917E+02 -0.11928720229E+02  0.34291836699E+02  0.00000000000E+00 0. -1.
</event>
<event>
 7    1  0.3884463E-009  0.4778727E+02  0.7816164E-02  0.1312668E+00
        -11   -1    0    0    0    0  0.00000000000E+00  0.00000000000E+00  0.45593999997E+02  0.45594000000E+02  0.51100000000E-03 0.  1.
         11   -1    0    0    0    0 -0.00000000000E+00 -0.00000000000E+00 -0.45593999997E+02  0.45594000000E+02  0.51100000000E-03 0. -1.
    9900012    2    1    2    0    0  0.13380114167E+02 -0.97575914395E+01 -0.40117145977E+02  0.47787269048E+02  0.19999990898E+02 0.  0.
        -12    1    1    2    0    0 -0.13380114167E+02  0.97575914395E+01  0.40117145977E+02  0.43400730952E+02  0.00000000000E+00 0.  1.
         11    1    3    3    0    0 -0.13672096245E+01  0.14033538731E+01 -0.80144444338E+00  0.21168319979E+01  0.51100000000E-03 0. -1.
        -11    1    3    3    0    0  0.68017278664E+01 -0.80222867533E+01 -0.80112846332E+01  0.13221243075E+02  0.51100000000E-03 0.  1.
         12    1    3    3    0    0  0.79455959254E+01 -0.31386585593E+01 -0.31304416900E+02  0.32449193975E+02  0.00000000000E+00 0. -1.
</event>
<event>
 7    1  0.3884463E-009  0.4778727E+02  0.7816164E-02  0.1312668E+00
        -11   -1    0    0    0    0  0.00000000000E+00  0.00000000000E+00  0.45593999997E+02  0.45594000000E+02  0.51100000000E-03 0.  1.
         11   -1    0    0    0    0 -0.00000000000E+00 -0.00000000000E+00 -0.45593999997E+02  0.45594000000E+02  0.51100000000E-03 0. -1.
    9900012    2    1    2    0    0  0.18602938070E+02  0.14029034665E+02 -0.36616115330E+02  0.47787273966E+02  0.20000013319E+02 0.  0.
        -12    1    1    2    0    0 -0.18602938070E+02 -0.14029034665E+02  0.36616115330E+02  0.43400726034E+02  0.00000000000E+00 0.  1.
         11    1    3    3    0    0 -0.26099127948E+01  0.79406280496E+01 -0.95423869026E+01  0.12685517990E+02  0.51100000000E-03 0. -1.
        -11    1    3    3    0    0  0.12055839139E+02  0.52190857880E+01 -0.15510832214E+02  0.20326535121E+02  0.51100000000E-03 0.  1.
        -12    1    3    3    0    0  0.91570117265E+01  0.86932082694E+00 -0.11562896213E+02  0.14775220854E+02  0.00000000000E+00 0.  1.
</event>
<event>
 7    1  0.3884463E-009  0.4778727E+02  0.7816164E-02  0.1312668E+00
        -11   -1    0    0    0    0  0.00000000000E+00  0.00000000000E+00  0.45593999997E+02  0.45594000000E+02  0.51100000000E-03 0.  1.
         11   -1    0    0    0    0 -0.00000000000E+00 -0.00000000000E+00 -0.45593999997E+02  0.45594000000E+02  0.51100000000E-03 0. -1.
    9900012    2    1    2    0    0  0.18622680881E+02 -0.90303822406E+01 -0.38148017710E+02  0.47787270723E+02  0.19999998534E+02 0.  0.
        -12    1    1    2    0    0 -0.18622680881E+02  0.90303822406E+01  0.38148017710E+02  0.43400729277E+02  0.00000000000E+00 0.  1.
         11    1    3    3    0    0  0.26197598755E+01  0.16324437173E+01 -0.13239139198E+02  0.13594220142E+02  0.51100000000E-03 0. -1.
        -11    1    3    3    0    0 -0.19298187379E+01 -0.52630993849E+00 -0.17992503669E+00  0.20083764071E+01  0.51100000000E-03 0.  1.
         12    1    3    3    0    0  0.17932739744E+02 -0.10136516019E+02 -0.24728953475E+02  0.32184674174E+02  0.00000000000E+00 0. -1.
</event>
<event>
 7    1  0.3884463E-009  0.4778727E+02  0.7816164E-02  0.1312668E+00
        -11   -1    0    0    0    0  0.00000000000E+00  0.00000000000E+00  0.45593999997E+02  0.45594000000E+02  0.51100000000E-03 0.  1.
         11   -1    0    0    0    0 -0.00000000000E+00 -0.00000000000E+00 -0.45593999997E+02  0.45594000000E+02  0.51100000000E-03 0. -1.
    9900012    2    1    2    0    0 -0.16950301987E+02  0.38888780015E+02 -0.91637026736E+01  0.47787269647E+02  0.19999993630E+02 0.  0.
        -12    1    1    2    0    0  0.16950301987E+02 -0.38888780015E+02  0.91637026736E+01  0.43400730353E+02  0.00000000000E+00 0.  1.
         11    1    3    3    0    0 -0.86731814742E+01  0.76924695495E+01 -0.54551281532E+01  0.12812360754E+02  0.51100000000E-03 0. -1.
        -11    1    3    3    0    0  0.26091282262E+01  0.32178549425E+01 -0.26830311846E+01  0.49356658244E+01  0.51100000000E-03 0.  1.
         12    1    3    3    0    0 -0.10886248739E+02  0.27978455523E+02 -0.10255433358E+01  0.30039243069E+02  0.00000000000E+00 0. -1.
</event>
<event>
 7    1  0.3884463E-009  0.4778729E+02  0.7816164E-02  0.1312668E+00
        -11   -1    0    0    0    0  0.00000000000E+00  0.00000000000E+00  0.45593999997E+02  0.45594000000E+02  0.51100000000E-03 0. -1.
         11   -1    0    0    0    0 -0.00000000000E+00 -0.00000000000E+00 -0.45593999997E+02  0.45594000000E+02  0.51100000000E-03 0.  1.
    9900012    2    1    2    0    0  0.29509311407E+02  0.30953743374E+02 -0.73951008000E+01  0.47787294886E+02  0.20000108701E+02 0.  0.
        -12    1    1    2    0    0 -0.29509311407E+02 -0.30953743374E+02  0.73951008000E+01  0.43400705114E+02  0.00000000000E+00 0.  1.
         11    1    3    3    0    0  0.62713044825E+01  0.13570382264E+02  0.37185795966E+01  0.15404946257E+02  0.51100000000E-03 0. -1.
        -11    1    3    3    0    0  0.57271866725E+01  0.32184422839E+01  0.12527717267E+01  0.66879350458E+01  0.51100000000E-03 0.  1.
        -12    1    3    3    0    0  0.17510820252E+02  0.14164918827E+02 -0.12366452123E+02  0.25694413583E+02  0.00000000000E+00 0.  1.
</event>
<event>
 7    1  0.3884463E-009  0.4778728E+02  0.7816164E-02  0.1312668E+00
        -11   -1    0    0    0    0  0.00000000000E+00  0.00000000000E+00  0.45593999997E+02  0.45594000000E+02  0.51100000000E-03 0. -1.
         11   -1    0    0    0    0 -0.00000000000E+00 -0.00000000000E+00 -0.45593999997E+02  0.45594000000E+02  0.51100000000E-03 0.  1.
    9900012    2    1    2    0    0  0.26427107002E+02 -0.31200066254E+02  0.14552896386E+02  0.47787275214E+02  0.20000019011E+02 0.  0.
        -12    1    1    2    0    0 -0.26427107002E+02  0.31200066254E+02 -0.14552896386E+02  0.43400724786E+02  0.00000000000E+00 0.  1.
         11    1    3    3    0    0  0.10654025927E+02 -0.20189016104E+02  0.62767780045E+01  0.23674935735E+02  0.51100000000E-03 0. -1.
        -11    1    3    3    0    0  0.56761152912E+01 -0.11180448942E+02  0.49465675179E+01  0.13479215623E+02  0.51100000000E-03 0.  1.
        -12    1    3    3    0    0  0.10096965783E+02  0.16939879175E+00  0.33295508632E+01  0.10633123856E+02  0.00000000000E+00 0.  1.
</event>
<event>
 7    1  0.3884463E-009  0.4778728E+02  0.7816164E-02  0.1312668E+00
        -11   -1    0    0    0    0  0.00000000000E+00  0.00000000000E+00  0.45593999997E+02  0.45594000000E+02  0.51100000000E-03 0.  1.
         11   -1    0    0    0    0 -0.00000000000E+00 -0.00000000000E+00 -0.45593999997E+02  0.45594000000E+02  0.51100000000E-03 0. -1.
    9900012    2    1    2    0    0 -0.26918819583E+02 -0.25143738631E+02 -0.22951950427E+02  0.47787280323E+02  0.20000042303E+02 0.  0.
        -12    1    1    2    0    0  0.26918819583E+02  0.25143738631E+02  0.22951950427E+02  0.43400719677E+02  0.00000000000E+00 0.  1.
         11    1    3    3    0    0 -0.30470487564E+01 -0.11004210835E+02 -0.39951103534E+01  0.12097027289E+02  0.51100000000E-03 0. -1.
        -11    1    3    3    0    0 -0.26341881669E+01 -0.39287856876E+01 -0.88803603028E+01  0.10061565666E+02  0.51100000000E-03 0.  1.
        -12    1    3    3    0    0 -0.21237582660E+02 -0.10210742108E+02 -0.10076479771E+02  0.25628687368E+02  0.00000000000E+00 0.  1.
</event>
<event>
 7    1  0.3884463E-009  0.4778727E+02  0.7816164E-02  0.1312668E+00
        -11   -1    0    0    0    0  0.00000000000E+00  0.00000000000E+00  0.45593999997E+02  0.45594000000E+02  0.51100000000E-03 0.  1.
         11   -1    0    0    0    0 -0.00000000000E+00 -0.00000000000E+00 -0.45593999997E+02  0.45594000000E+02  0.51100000000E-03 0. -1.
    9900012    2    1    2    0    0  0.62066252930E+01  0.18434526972E+01 -0.42915069269E+02  0.47787266300E+02  0.19999978368E+02 0.  0.
        -12    1    1    2    0    0 -0.62066252930E+01 -0.18434526972E+01  0.42915069269E+02  0.43400733700E+02  0.00000000000E+00 0.  1.
         11    1    3    3    0    0  0.14571432633E+01  0.44001357809E+00 -0.98818437844E+01  0.99983856336E+01  0.51100000000E-03 0. -1.
        -11    1    3    3    0    0  0.63644101255E+01 -0.70624638532E+01 -0.14349528765E+02  0.17213166123E+02  0.51100000000E-03 0.  1.
        -12    1    3    3    0    0 -0.16149280959E+01  0.84659029723E+01 -0.18683696719E+02  0.20575714544E+02  0.00000000000E+00 0.  1.
</event>
<event>
 7    1  0.3884463E-009  0.4778727E+02  0.7816164E-02  0.1312668E+00
        -11   -1    0    0    0    0  0.00000000000E+00  0.00000000000E+00  0.45593999997E+02  0.45594000000E+02  0.51100000000E-03 0. -1.
         11   -1    0    0    0    0 -0.00000000000E+00 -0.00000000000E+00 -0.45593999997E+02  0.45594000000E+02  0.51100000000E-03 0.  1.
    9900012    2    1    2    0    0 -0.16675819082E+02  0.34191991902E+02 -0.20891335632E+02  0.47787272393E+02  0.20000006150E+02 0.  0.
        -12    1    1    2    0    0  0.16675819082E+02 -0.34191991902E+02  0.20891335632E+02  0.43400727607E+02  0.00000000000E+00 0.  1.
         11    1    3    3    0    0  0.15380606681E+01  0.10125436679E+01 -0.56788935649E+01  0.59699838929E+01  0.51100000000E-03 0.  1.
        -11    1    3    3    0    0 -0.14687526819E+01  0.17860387205E+00  0.57083689478E+00  0.15858716232E+01  0.51100000000E-03 0. -1.
        -12    1    3    3    0    0 -0.16745127068E+02  0.33000844362E+02 -0.15783278962E+02  0.40231416877E+02  0.00000000000E+00 0.  1.
</event>
<event>
 7    1  0.3884463E-009  0.4778727E+02  0.7816164E-02  0.1312668E+00
        -11   -1    0    0    0    0  0.00000000000E+00  0.00000000000E+00  0.45593999997E+02  0.45594000000E+02  0.51100000000E-03 0.  1.
         11   -1    0    0    0    0 -0.00000000000E+00 -0.00000000000E+00 -0.45593999997E+02  0.45594000000E+02  0.51100000000E-03 0. -1.
    9900012    2    1    2    0    0 -0.17199001000E+02  0.27316081743E+02 -0.29011193264E+02  0.47787270838E+02  0.19999999059E+02 0.  0.
        -12    1    1    2    0    0  0.17199001000E+02 -0.27316081743E+02  0.29011193264E+02  0.43400729162E+02  0.00000000000E+00 0.  1.
         11    1    3    3    0    0 -0.29309417499E+01  0.67552635279E+01 -0.10183733379E+02  0.12567117039E+02  0.51100000000E-03 0. -1.
        -11    1    3    3    0    0 -0.44641052521E+01  0.19339387215E+02 -0.13398757755E+02  0.23947167749E+02  0.51100000000E-03 0.  1.
        -12    1    3    3    0    0 -0.98039539977E+01  0.12214310007E+01 -0.54287021294E+01  0.11272986050E+02  0.00000000000E+00 0.  1.
</event>
<event>
 7    1  0.3884463E-009  0.4778727E+02  0.7816164E-02  0.1312668E+00
        -11   -1    0    0    0    0  0.00000000000E+00  0.00000000000E+00  0.45593999997E+02  0.45594000000E+02  0.51100000000E-03 0.  1.
         11   -1    0    0    0    0 -0.00000000000E+00 -0.00000000000E+00 -0.45593999997E+02  0.45594000000E+02  0.51100000000E-03 0. -1.
    9900012    2    1    2    0    0  0.16678488290E+02  0.19659152549E+02 -0.34913737040E+02  0.47787270920E+02  0.19999999432E+02 0.  0.
        -12    1    1    2    0    0 -0.16678488290E+02 -0.19659152549E+02  0.34913737040E+02  0.43400729080E+02  0.00000000000E+00 0.  1.
         11    1    3    3    0    0 -0.31076544102E+01  0.80041255291E+00 -0.86147192110E+01  0.91930171072E+01  0.51100000000E-03 0. -1.
        -11    1    3    3    0    0  0.26618686653E+00  0.57047109013E+00 -0.31723786488E+01  0.32342354993E+01  0.51100000000E-03 0.  1.
        -12    1    3    3    0    0  0.19519955834E+02  0.18288268906E+02 -0.23126639180E+02  0.35360018313E+02  0.00000000000E+00 0.  1.
</event>
<event>
 7    1  0.3884463E-009  0.4778727E+02  0.7816164E-02  0.1312668E+00
        -11   -1    0    0    0    0  0.00000000000E+00  0.00000000000E+00  0.45593999997E+02  0.45594000000E+02  0.51100000000E-03 0.  1.
         11   -1    0    0    0    0 -0.00000000000E+00 -0.00000000000E+00 -0.45593999997E+02  0.45594000000E+02  0.51100000000E-03 0. -1.
    9900012    2    1    2    0    0 -0.27255661850E+02  0.17551388087E+02 -0.28856558150E+02  0.47787271032E+02  0.19999999945E+02 0.  0.
        -12    1    1    2    0    0  0.27255661850E+02 -0.17551388087E+02  0.28856558150E+02  0.43400728968E+02  0.00000000000E+00 0.  1.
         11    1    3    3    0    0 -0.13313701948E+02  0.42741830949E+01 -0.69826802061E+01  0.15629495315E+02  0.51100000000E-03 0. -1.
        -11    1    3    3    0    0 -0.74071942122E+01  0.10371071932E+02 -0.47510970846E+01  0.13601418415E+02  0.51100000000E-03 0.  1.
         12    1    3    3    0    0 -0.65347656905E+01  0.29061330594E+01 -0.17122780859E+02  0.18556357303E+02  0.00000000000E+00 0. -1.
</event>
<event>
 7    1  0.3884463E-009  0.4778726E+02  0.7816164E-02  0.1312668E+00
        -11   -1    0    0    0    0  0.00000000000E+00  0.00000000000E+00  0.45593999997E+02  0.45594000000E+02  0.51100000000E-03 0.  1.
         11   -1    0    0    0    0 -0.00000000000E+00 -0.00000000000E+00 -0.45593999997E+02  0.45594000000E+02  0.51100000000E-03 0. -1.
    9900012    2    1    2    0    0  0.22666650105E+02 -0.33905911945E+02 -0.14840358166E+02  0.47787261270E+02  0.19999955435E+02 0.  0.
        -12    1    1    2    0    0 -0.22666650105E+02  0.33905911945E+02  0.14840358166E+02  0.43400738730E+02  0.00000000000E+00 0.  1.
         11    1    3    3    0    0 -0.14222315862E+00 -0.44058590256E+01  0.65731333724E-01  0.44086440148E+01  0.51100000000E-03 0. -1.
        -11    1    3    3    0    0  0.13218382815E+02 -0.49891714520E+01 -0.76954876872E+01  0.16088443275E+02  0.51100000000E-03 0.  1.
         12    1    3    3    0    0  0.95904904490E+01 -0.24510881467E+02 -0.72106018124E+01  0.27290173980E+02  0.00000000000E+00 0. -1.
</event>
<event>
 7    1  0.3884463E-009  0.4778727E+02  0.7816164E-02  0.1312668E+00
        -11   -1    0    0    0    0  0.00000000000E+00  0.00000000000E+00  0.45593999997E+02  0.45594000000E+02  0.51100000000E-03 0.  1.
         11   -1    0    0    0    0 -0.00000000000E+00 -0.00000000000E+00 -0.45593999997E+02  0.45594000000E+02  0.51100000000E-03 0. -1.
    9900012    2    1    2    0    0 -0.38113140748E+02 -0.16704043434E+02 -0.12328296053E+02  0.47787269035E+02  0.19999990837E+02 0.  0.
        -12    1    1    2    0    0  0.38113140748E+02  0.16704043434E+02  0.12328296053E+02  0.43400730965E+02  0.00000000000E+00 0.  1.
         11    1    3    3    0    0 -0.21780556414E+02 -0.17600642962E+01 -0.53253207028E+01  0.22491098347E+02  0.51100000000E-03 0. -1.
        -11    1    3    3    0    0 -0.14889809879E+02 -0.94931891811E+01 -0.20244225677E+01  0.17774289467E+02  0.51100000000E-03 0.  1.
        -12    1    3    3    0    0 -0.14427744553E+01 -0.54507899566E+01 -0.49785527826E+01  0.75218812201E+01  0.00000000000E+00 0.  1.
</event>
<event>
 7    1  0.3884463E-009  0.4778728E+02  0.7816164E-02  0.1312668E+00
        -11   -1    0    0    0    0  0.00000000000E+00  0.00000000000E+00  0.45593999997E+02  0.45594000000E+02  0.51100000000E-03 0.  1.
         11   -1    0    0    0    0 -0.00000000000E+00 -0.00000000000E+00 -0.45593999997E+02  0.45594000000E+02  0.51100000000E-03 0. -1.
    9900012    2    1    2    0    0 -0.42542969685E+02  0.84060170482E+01 -0.17485423559E+01  0.47787276589E+02  0.20000025281E+02 0.  0.
        -12    1    1    2    0    0  0.42542969685E+02 -0.84060170482E+01  0.17485423559E+01  0.43400723411E+02  0.00000000000E+00 0.  1.
         11    1    3    3    0    0 -0.19153870659E+01  0.24129209199E+01 -0.35155580687E+01  0.46744030393E+01  0.51100000000E-03 0. -1.
        -11    1    3    3    0    0 -0.18558453971E+02  0.11533401653E+01  0.70910446256E+01  0.19900485459E+02  0.51100000000E-03 0.  1.
         12    1    3    3    0    0 -0.22069128648E+02  0.48397559630E+01 -0.53240289129E+01  0.23212388091E+02  0.00000000000E+00 0. -1.
</event>
<event>
 7    1  0.3884463E-009  0.4778727E+02  0.7816164E-02  0.1312668E+00
        -11   -1    0    0    0    0  0.00000000000E+00  0.00000000000E+00  0.45593999997E+02  0.45594000000E+02  0.51100000000E-03 0. -1.
         11   -1    0    0    0    0 -0.00000000000E+00 -0.00000000000E+00 -0.45593999997E+02  0.45594000000E+02  0.51100000000E-03 0.  1.
    9900012    2    1    2    0    0  0.25081276702E+02  0.14890623136E+02  0.32137553030E+02  0.47787269440E+02  0.19999992686E+02 0.  0.
        -12    1    1    2    0    0 -0.25081276702E+02 -0.14890623136E+02 -0.32137553030E+02  0.43400730560E+02  0.00000000000E+00 0.  1.
         11    1    3    3    0    0 -0.15885909927E+01  0.26560345518E+00  0.64882924255E+01  0.66852154339E+01  0.51100000000E-03 0. -1.
        -11    1    3    3    0    0  0.10494139198E+02  0.79821885612E+01  0.17225041832E+02  0.21692034439E+02  0.51100000000E-03 0.  1.
        -12    1    3    3    0    0  0.16175728496E+02  0.66428311194E+01  0.84242187724E+01  0.19410019567E+02  0.00000000000E+00 0.  1.
</event>
<event>
 7    1  0.3884463E-009  0.4778727E+02  0.7816164E-02  0.1312668E+00
        -11   -1    0    0    0    0  0.00000000000E+00  0.00000000000E+00  0.45593999997E+02  0.45594000000E+02  0.51100000000E-03 0. -1.
         11   -1    0    0    0    0 -0.00000000000E+00 -0.00000000000E+00 -0.45593999997E+02  0.45594000000E+02  0.51100000000E-03 0.  1.
    9900012    2    1    2    0    0 -0.15901981160E+02 -0.36774305736E+02  0.16685342347E+02  0.47787271706E+02  0.20000003018E+02 0.  0.
        -12    1    1    2    0    0  0.15901981160E+02  0.36774305736E+02 -0.16685342347E+02  0.43400728294E+02  0.00000000000E+00 0.  1.
         11    1    3    3    0    0 -0.70087991226E+01 -0.14463234955E+02  0.59628797512E+01  0.17142472566E+02  0.51100000000E-03 0. -1.
        -11    1    3    3    0    0 -0.15143587337E+00 -0.11978782128E+02  0.12116642059E+02  0.17038989675E+02  0.51100000000E-03 0.  1.
        -12    1    3    3    0    0 -0.87417461644E+01 -0.10332288654E+02 -0.13941794639E+01  0.13605809465E+02  0.00000000000E+00 0.  1.
</event>
<event>
 7    1  0.3884463E-009  0.4778730E+02  0.7816164E-02  0.1312668E+00
        -11   -1    0    0    0    0  0.00000000000E+00  0.00000000000E+00  0.45593999997E+02  0.45594000000E+02  0.51100000000E-03 0.  1.
         11   -1    0    0    0    0 -0.00000000000E+00 -0.00000000000E+00 -0.45593999997E+02  0.45594000000E+02  0.51100000000E-03 0. -1.
    9900012    2    1    2    0    0  0.14405557730E+01 -0.50274045446E+01 -0.43084459274E+02  0.47787301523E+02  0.20000138962E+02 0.  0.
        -12    1    1    2    0    0 -0.14405557730E+01  0.50274045446E+01  0.43084459274E+02  0.43400698477E+02  0.00000000000E+00 0.  1.
         11    1    3    3    0    0  0.65300840257E+01 -0.86047472183E+01 -0.23583059264E+02  0.25939243562E+02  0.51100000000E-03 0. -1.
        -11    1    3    3    0    0 -0.20868441089E+01 -0.46166440795E+00 -0.14823947501E+02  0.14977231791E+02  0.51100000000E-03 0.  1.
        -12    1    3    3    0    0 -0.30026841437E+01  0.40390070816E+01 -0.46774525094E+01  0.68708261694E+01  0.00000000000E+00 0.  1.
</event>
<event>
 7    1  0.4129573E-009  0.4778728E+02  0.7816164E-02  0.1312668E+00
        -11   -1    0    0    0    0  0.00000000000E+00  0.00000000000E+00  0.45593999997E+02  0.45594000000E+02  0.51100000000E-03 0. -1.
         11   -1    0    0    0    0 -0.00000000000E+00 -0.00000000000E+00 -0.45593999997E+02  0.45594000000E+02  0.51100000000E-03 0.  1.
    9900012    2    1    2    0    0 -0.16297901074E+01  0.94553937854E+01  0.42326846613E+02  0.47787278444E+02  0.20000033737E+02 0.  0.
        -12    1    1    2    0    0  0.16297901074E+01 -0.94553937854E+01 -0.42326846613E+02  0.43400721556E+02  0.00000000000E+00 0.  1.
         11    1    3    3    0    0  0.45893271345E+01  0.39077903562E+01  0.14171855341E+02  0.15400462106E+02  0.51100000000E-03 0. -1.
        -11    1    3    3    0    0 -0.27377105659E+01  0.94397208992E+01  0.12608789245E+02  0.15987024622E+02  0.51100000000E-03 0.  1.
         12    1    3    3    0    0 -0.34814066760E+01 -0.38921174700E+01  0.15546202026E+02  0.16399791715E+02  0.00000000000E+00 0. -1.
</event>
<event>
 7    1  0.3884463E-009  0.4778727E+02  0.7816164E-02  0.1312668E+00
        -11   -1    0    0    0    0  0.00000000000E+00  0.00000000000E+00  0.45593999997E+02  0.45594000000E+02  0.51100000000E-03 0.  1.
         11   -1    0    0    0    0 -0.00000000000E+00 -0.00000000000E+00 -0.45593999997E+02  0.45594000000E+02  0.51100000000E-03 0. -1.
    9900012    2    1    2    0    0 -0.11272426043E+02 -0.39025504589E+02 -0.15282866918E+02  0.47787267073E+02  0.19999981893E+02 0.  0.
        -12    1    1    2    0    0  0.11272426043E+02  0.39025504589E+02  0.15282866918E+02  0.43400732927E+02  0.00000000000E+00 0.  1.
         11    1    3    3    0    0 -0.44815299773E+01 -0.24189165797E+02 -0.18736387230E+02  0.30923325493E+02  0.51100000000E-03 0. -1.
        -11    1    3    3    0    0 -0.11055078276E+01 -0.91257012529E+00  0.34008892785E-02  0.14335074529E+01  0.51100000000E-03 0.  1.
         12    1    3    3    0    0 -0.56853882381E+01 -0.13923768667E+02  0.34501194223E+01  0.15430434127E+02  0.00000000000E+00 0. -1.
</event>
<event>
 7    1  0.3884463E-009  0.4778727E+02  0.7816164E-02  0.1312668E+00
        -11   -1    0    0    0    0  0.00000000000E+00  0.00000000000E+00  0.45593999997E+02  0.45594000000E+02  0.51100000000E-03 0.  1.
         11   -1    0    0    0    0 -0.00000000000E+00 -0.00000000000E+00 -0.45593999997E+02  0.45594000000E+02  0.51100000000E-03 0. -1.
    9900012    2    1    2    0    0  0.34513910437E+02  0.23974127701E+02  0.10846853399E+02  0.47787273724E+02  0.20000012215E+02 0.  0.
        -12    1    1    2    0    0 -0.34513910437E+02 -0.23974127701E+02 -0.10846853399E+02  0.43400726276E+02  0.00000000000E+00 0.  1.
         11    1    3    3    0    0  0.13733941025E+01  0.63910032168E+01  0.99103806091E+00  0.66116026936E+01  0.51100000000E-03 0. -1.
        -11    1    3    3    0    0  0.67730940778E+01  0.36269169813E+01  0.82880234810E+01  0.11301356718E+02  0.51100000000E-03 0.  1.
         12    1    3    3    0    0  0.26367422257E+02  0.13956207503E+02  0.15677918567E+01  0.29874314312E+02  0.00000000000E+00 0. -1.
</event>
<event>
 7    1  0.3884463E-009  0.4778727E+02  0.7816164E-02  0.1312668E+00
        -11   -1    0    0    0    0  0.00000000000E+00  0.00000000000E+00  0.45593999997E+02  0.45594000000E+02  0.51100000000E-03 0. -1.
         11   -1    0    0    0    0 -0.00000000000E+00 -0.00000000000E+00 -0.45593999997E+02  0.45594000000E+02  0.51100000000E-03 0.  1.
    9900012    2    1    2    0    0 -0.42342626063E+02  0.95005113377E+01  0.68229050248E+00  0.47787271690E+02  0.20000002941E+02 0.  0.
        -12    1    1    2    0    0  0.42342626063E+02 -0.95005113377E+01 -0.68229050248E+00  0.43400728310E+02  0.00000000000E+00 0.  1.
         11    1    3    3    0    0 -0.97935310377E+01 -0.27664154117E+00 -0.18668804808E+01  0.99737166452E+01  0.51100000000E-03 0. -1.
        -11    1    3    3    0    0 -0.92417419644E+01 -0.13681080740E+01  0.69005703471E+01  0.11614619478E+02  0.51100000000E-03 0.  1.
         12    1    3    3    0    0 -0.23307353060E+02  0.11145260953E+02 -0.43513993639E+01  0.26198935566E+02  0.00000000000E+00 0. -1.
</event>
<event>
 7    1  0.3884463E-009  0.4778727E+02  0.7816164E-02  0.1312668E+00
        -11   -1    0    0    0    0  0.00000000000E+00  0.00000000000E+00  0.45593999997E+02  0.45594000000E+02  0.51100000000E-03 0.  1.
         11   -1    0    0    0    0 -0.00000000000E+00 -0.00000000000E+00 -0.45593999997E+02  0.45594000000E+02  0.51100000000E-03 0. -1.
    9900012    2    1    2    0    0 -0.34396461035E+02 -0.24422123580E+02 -0.10201301340E+02  0.47787271885E+02  0.20000003830E+02 0.  0.
        -12    1    1    2    0    0  0.34396461035E+02  0.24422123580E+02  0.10201301340E+02  0.43400728115E+02  0.00000000000E+00 0.  1.
         11    1    3    3    0    0 -0.92105704883E+01 -0.97486760160E+01  0.27324920936E+01  0.13687140172E+02  0.51100000000E-03 0. -1.
        -11    1    3    3    0    0 -0.19296944008E+01  0.61868680526E+00  0.17081963071E+01  0.26503638860E+01  0.51100000000E-03 0.  1.
         12    1    3    3    0    0 -0.23256196146E+02 -0.15292134369E+02 -0.14641989741E+02  0.31449767827E+02  0.00000000000E+00 0. -1.
</event>
<event>
 7    1  0.3884463E-009  0.4778722E+02  0.7816164E-02  0.1312668E+00
        -11   -1    0    0    0    0  0.00000000000E+00  0.00000000000E+00  0.45593999997E+02  0.45594000000E+02  0.51100000000E-03 0. -1.
         11   -1    0    0    0    0 -0.00000000000E+00 -0.00000000000E+00 -0.45593999997E+02  0.45594000000E+02  0.51100000000E-03 0.  1.
    9900012    2    1    2    0    0 -0.42215478357E+02 -0.50322612126E+01  0.87268353506E+01  0.47787217506E+02  0.19999755897E+02 0.  0.
        -12    1    1    2    0    0  0.42215478357E+02  0.50322612126E+01 -0.87268353506E+01  0.43400782494E+02  0.00000000000E+00 0.  1.
         11    1    3    3    0    0 -0.19300575157E+02 -0.76092238658E+01  0.68868139445E+01  0.21859567603E+02  0.51100000000E-03 0. -1.
        -11    1    3    3    0    0 -0.79284507377E+01  0.87324508750E+00  0.63384119460E+01  0.10188147738E+02  0.51100000000E-03 0.  1.
        -12    1    3    3    0    0 -0.14986452462E+02  0.17037175657E+01 -0.44983905398E+01  0.15739502165E+02  0.00000000000E+00 0.  1.
</event>
<event>
 7    1  0.3884463E-009  0.4778727E+02  0.7816164E-02  0.1312668E+00
        -11   -1    0    0    0    0  0.00000000000E+00  0.00000000000E+00  0.45593999997E+02  0.45594000000E+02  0.51100000000E-03 0.  1.
         11   -1    0    0    0    0 -0.00000000000E+00 -0.00000000000E+00 -0.45593999997E+02  0.45594000000E+02  0.51100000000E-03 0. -1.
    9900012    2    1    2    0    0 -0.28427994671E+02  0.13725687924E+02 -0.29783855506E+02  0.47787269144E+02  0.19999991337E+02 0.  0.
        -12    1    1    2    0    0  0.28427994671E+02 -0.13725687924E+02  0.29783855506E+02  0.43400730856E+02  0.00000000000E+00 0.  1.
         11    1    3    3    0    0 -0.69849064145E+01  0.50165799302E+01 -0.87128360639E+01  0.12242079250E+02  0.51100000000E-03 0. -1.
        -11    1    3    3    0    0 -0.20255770534E+02  0.66905029503E+00 -0.12920420365E+02  0.24034998042E+02  0.51100000000E-03 0.  1.
        -12    1    3    3    0    0 -0.11873177229E+01  0.80400576990E+01 -0.81505990769E+01  0.11510191853E+02  0.00000000000E+00 0.  1.
</event>
<event>
 7    1  0.3884463E-009  0.4778727E+02  0.7816164E-02  0.1312668E+00
        -11   -1    0    0    0    0  0.00000000000E+00  0.00000000000E+00  0.45593999997E+02  0.45594000000E+02  0.51100000000E-03 0.  1.
         11   -1    0    0    0    0 -0.00000000000E+00 -0.00000000000E+00 -0.45593999997E+02  0.45594000000E+02  0.51100000000E-03 0. -1.
    9900012    2    1    2    0    0 -0.33977401230E+02  0.67815340231E+01 -0.26137530329E+02  0.47787268558E+02  0.19999988662E+02 0.  0.
        -12    1    1    2    0    0  0.33977401230E+02 -0.67815340231E+01  0.26137530329E+02  0.43400731442E+02  0.00000000000E+00 0.  1.
         11    1    3    3    0    0 -0.19193574448E+02  0.30562118215E+01 -0.59253985761E+01  0.20318564893E+02  0.51100000000E-03 0. -1.
        -11    1    3    3    0    0 -0.10391524115E+02  0.20148901597E+01 -0.53167431303E+01  0.11845307660E+02  0.51100000000E-03 0.  1.
        -12    1    3    3    0    0 -0.43923026672E+01  0.17104320419E+01 -0.14895388622E+02  0.15623396004E+02  0.00000000000E+00 0.  1.
</event>
<event>
 7    1  0.3884463E-009  0.4778727E+02  0.7816164E-02  0.1312668E+00
        -11   -1    0    0    0    0  0.00000000000E+00  0.00000000000E+00  0.45593999997E+02  0.45594000000E+02  0.51100000000E-03 0.  1.
         11   -1    0    0    0    0 -0.00000000000E+00 -0.00000000000E+00 -0.45593999997E+02  0.45594000000E+02  0.51100000000E-03 0. -1.
    9900012    2    1    2    0    0  0.38718167935E+02  0.15865734462E+02  0.11524122007E+02  0.47787269058E+02  0.19999990941E+02 0.  0.
        -12    1    1    2    0    0 -0.38718167935E+02 -0.15865734462E+02 -0.11524122007E+02  0.43400730942E+02  0.00000000000E+00 0.  1.
         11    1    3    3    0    0  0.59334940964E+00  0.13152484563E+01  0.27120489490E+01  0.30719947569E+01  0.51100000000E-03 0. -1.
        -11    1    3    3    0    0  0.12726750877E+02  0.61516641178E+01 -0.45010229989E+01  0.14834836285E+02  0.51100000000E-03 0.  1.
         12    1    3    3    0    0  0.25398067649E+02  0.83988218882E+01  0.13313096057E+02  0.29880438016E+02  0.00000000000E+00 0. -1.
</event>
<event>
 7    1  0.3884463E-009  0.4778728E+02  0.7816164E-02  0.1312668E+00
        -11   -1    0    0    0    0  0.00000000000E+00  0.00000000000E+00  0.45593999997E+02  0.45594000000E+02  0.51100000000E-03 0.  1.
         11   -1    0    0    0    0 -0.00000000000E+00 -0.00000000000E+00 -0.45593999997E+02  0.45594000000E+02  0.51100000000E-03 0. -1.
    9900012    2    1    2    0    0 -0.12619679009E+01  0.35371773566E+02 -0.25117079664E+02  0.47787278589E+02  0.20000034399E+02 0.  0.
        -12    1    1    2    0    0  0.12619679009E+01 -0.35371773566E+02  0.25117079664E+02  0.43400721411E+02  0.00000000000E+00 0.  1.
         11    1    3    3    0    0  0.25741110208E+01  0.48715817631E+01 -0.68194909903E+01  0.87672010385E+01  0.51100000000E-03 0. -1.
        -11    1    3    3    0    0 -0.52918076745E+00  0.28271565652E+01  0.28392331366E+01  0.40415456936E+01  0.51100000000E-03 0.  1.
         12    1    3    3    0    0 -0.33068981543E+01  0.27673035237E+02 -0.21136821810E+02  0.34978531857E+02  0.00000000000E+00 0. -1.
</event>
<event>
 7    1  0.3884463E-009  0.4778727E+02  0.7816164E-02  0.1312668E+00
        -11   -1    0    0    0    0  0.00000000000E+00  0.00000000000E+00  0.45593999997E+02  0.45594000000E+02  0.51100000000E-03 0.  1.
         11   -1    0    0    0    0 -0.00000000000E+00 -0.00000000000E+00 -0.45593999997E+02  0.45594000000E+02  0.51100000000E-03 0. -1.
    9900012    2    1    2    0    0 -0.29545363755E+02  0.22109120060E+02 -0.22844727914E+02  0.47787270712E+02  0.19999998485E+02 0.  0.
        -12    1    1    2    0    0  0.29545363755E+02 -0.22109120060E+02  0.22844727914E+02  0.43400729288E+02  0.00000000000E+00 0.  1.
         11    1    3    3    0    0 -0.14382120558E+02  0.95819563038E+01 -0.75719531551E+01  0.18867796723E+02  0.51100000000E-03 0. -1.
        -11    1    3    3    0    0 -0.81828828584E+01  0.78091945982E+01  0.18724828296E+00  0.11312743006E+02  0.51100000000E-03 0.  1.
         12    1    3    3    0    0 -0.69803603387E+01  0.47179691577E+01 -0.15460023042E+02  0.17606730982E+02  0.00000000000E+00 0. -1.
</event>
<event>
 7    1  0.3884463E-009  0.4778727E+02  0.7816164E-02  0.1312668E+00
        -11   -1    0    0    0    0  0.00000000000E+00  0.00000000000E+00  0.45593999997E+02  0.45594000000E+02  0.51100000000E-03 0.  1.
         11   -1    0    0    0    0 -0.00000000000E+00 -0.00000000000E+00 -0.45593999997E+02  0.45594000000E+02  0.51100000000E-03 0. -1.
    9900012    2    1    2    0    0 -0.41341307804E+02  0.40515932376E+01 -0.12573941944E+02  0.47787272417E+02  0.20000006257E+02 0.  0.
        -12    1    1    2    0    0  0.41341307804E+02 -0.40515932376E+01  0.12573941944E+02  0.43400727583E+02  0.00000000000E+00 0.  1.
         11    1    3    3    0    0 -0.30420795246E+02  0.42440262314E+01 -0.53536040352E+01  0.31178480054E+02  0.51100000000E-03 0. -1.
        -11    1    3    3    0    0 -0.94827342357E+01 -0.38921035851E+01 -0.27139357129E+01  0.10603592137E+02  0.51100000000E-03 0.  1.
        -12    1    3    3    0    0 -0.14377783226E+01  0.36996705914E+01 -0.45064021964E+01  0.60052002252E+01  0.00000000000E+00 0.  1.
</event>
<event>
 7    1  0.3884463E-009  0.4778728E+02  0.7816164E-02  0.1312668E+00
        -11   -1    0    0    0    0  0.00000000000E+00  0.00000000000E+00  0.45593999997E+02  0.45594000000E+02  0.51100000000E-03 0.  1.
         11   -1    0    0    0    0 -0.00000000000E+00 -0.00000000000E+00 -0.45593999997E+02  0.45594000000E+02  0.51100000000E-03 0. -1.
    9900012    2    1    2    0    0 -0.31539169370E+02 -0.12642384217E+02 -0.27001363539E+02  0.47787277469E+02  0.20000029293E+02 0.  0.
        -12    1    1    2    0    0  0.31539169370E+02  0.12642384217E+02  0.27001363539E+02  0.43400722531E+02  0.00000000000E+00 0.  1.
         11    1    3    3    0    0 -0.38684251524E+01 -0.35164564604E+01 -0.75975083790E+01  0.92223810932E+01  0.51100000000E-03 0. -1.
        -11    1    3    3    0    0 -0.24003984211E+01  0.38201232338E+00  0.27277758073E+01  0.36535745663E+01  0.51100000000E-03 0.  1.
        -12    1    3    3    0    0 -0.25270345796E+02 -0.95079400795E+01 -0.22131630968E+02  0.34911321810E+02  0.00000000000E+00 0.  1.
</event>
<event>
 7    1  0.3884463E-009  0.4778727E+02  0.7816164E-02  0.1312668E+00
        -11   -1    0    0    0    0  0.00000000000E+00  0.00000000000E+00  0.45593999997E+02  0.45594000000E+02  0.51100000000E-03 0.  1.
         11   -1    0    0    0    0 -0.00000000000E+00 -0.00000000000E+00 -0.45593999997E+02  0.45594000000E+02  0.51100000000E-03 0. -1.
    9900012    2    1    2    0    0  0.33588233894E+02 -0.21128717018E+02 -0.17579292807E+02  0.47787266428E+02  0.19999978953E+02 0.  0.
        -12    1    1    2    0    0 -0.33588233894E+02  0.21128717018E+02  0.17579292807E+02  0.43400733572E+02  0.00000000000E+00 0.  1.
         11    1    3    3    0    0  0.24307375345E+01 -0.35683965672E+01 -0.42391711189E+01  0.60508273037E+01  0.51100000000E-03 0. -1.
        -11    1    3    3    0    0 -0.52667155251E+00 -0.21500736922E+01 -0.50898767187E+01  0.55504094515E+01  0.51100000000E-03 0.  1.
         12    1    3    3    0    0  0.31684167912E+02 -0.15410246759E+02 -0.82502449699E+01  0.36186029673E+02  0.00000000000E+00 0. -1.
</event>
<event>
 7    1  0.3884463E-009  0.4778727E+02  0.7816164E-02  0.1312668E+00
        -11   -1    0    0    0    0  0.00000000000E+00  0.00000000000E+00  0.45593999997E+02  0.45594000000E+02  0.51100000000E-03 0.  1.
         11   -1    0    0    0    0 -0.00000000000E+00 -0.00000000000E+00 -0.45593999997E+02  0.45594000000E+02  0.51100000000E-03 0. -1.
    9900012    2    1    2    0    0  0.21756266913E+02  0.35721378622E+02 -0.11587546279E+02  0.47787271096E+02  0.20000000236E+02 0.  0.
        -12    1    1    2    0    0 -0.21756266913E+02 -0.35721378622E+02  0.11587546279E+02  0.43400728904E+02  0.00000000000E+00 0.  1.
         11    1    3    3    0    0  0.98129924348E+01  0.19294340960E+02 -0.68442317324E+01  0.22702641297E+02  0.51100000000E-03 0. -1.
        -11    1    3    3    0    0  0.10961990016E+02  0.73449194053E+01 -0.79477832048E+01  0.15403906138E+02  0.51100000000E-03 0.  1.
        -12    1    3    3    0    0  0.98128446221E+00  0.90821182565E+01  0.32044686585E+01  0.96807236611E+01  0.00000000000E+00 0.  1.
</event>
<event>
 7    1  0.3884463E-009  0.4778727E+02  0.7816164E-02  0.1312668E+00
        -11   -1    0    0    0    0  0.00000000000E+00  0.00000000000E+00  0.45593999997E+02  0.45594000000E+02  0.51100000000E-03 0.  1.
         11   -1    0    0    0    0 -0.00000000000E+00 -0.00000000000E+00 -0.45593999997E+02  0.45594000000E+02  0.51100000000E-03 0. -1.
    9900012    2    1    2    0    0  0.30288635434E+02  0.27133955619E+02 -0.15164771610E+02  0.47787270951E+02  0.19999999574E+02 0.  0.
        -12    1    1    2    0    0 -0.30288635434E+02 -0.27133955619E+02  0.15164771610E+02  0.43400729049E+02  0.00000000000E+00 0.  1.
         11    1    3    3    0    0  0.63154239376E+01  0.14654029252E+02 -0.90827012892E+01  0.18360844638E+02  0.51100000000E-03 0. -1.
        -11    1    3    3    0    0  0.18410794970E+02  0.13858745825E+02 -0.52647277391E+01  0.23637672595E+02  0.51100000000E-03 0.  1.
        -12    1    3    3    0    0  0.55624165267E+01 -0.13788194590E+01 -0.81734258217E+00  0.57887537185E+01  0.00000000000E+00 0.  1.
</event>
<event>
 7    1  0.3884463E-009  0.4778727E+02  0.7816164E-02  0.1312668E+00
        -11   -1    0    0    0    0  0.00000000000E+00  0.00000000000E+00  0.45593999997E+02  0.45594000000E+02  0.51100000000E-03 0.  1.
         11   -1    0    0    0    0 -0.00000000000E+00 -0.00000000000E+00 -0.45593999997E+02  0.45594000000E+02  0.51100000000E-03 0. -1.
    9900012    2    1    2    0    0 -0.10787114864E+02 -0.39222779370E+02 -0.15127293318E+02  0.47787271070E+02  0.20000000115E+02 0.  0.
        -12    1    1    2    0    0  0.10787114864E+02  0.39222779370E+02  0.15127293318E+02  0.43400728930E+02  0.00000000000E+00 0.  1.
         11    1    3    3    0    0 -0.60794599539E+01 -0.15832117127E+02 -0.73981331243E+01  0.18502652244E+02  0.51100000000E-03 0. -1.
        -11    1    3    3    0    0 -0.96584377965E+01 -0.99022198218E+01 -0.29620371912E+01  0.14146131720E+02  0.51100000000E-03 0.  1.
         12    1    3    3    0    0  0.49507828865E+01 -0.13488442421E+02 -0.47671230026E+01  0.15138487106E+02  0.00000000000E+00 0. -1.
</event>
<event>
 7    1  0.3884463E-009  0.4778727E+02  0.7816164E-02  0.1312668E+00
        -11   -1    0    0    0    0  0.00000000000E+00  0.00000000000E+00  0.45593999997E+02  0.45594000000E+02  0.51100000000E-03 0.  1.
         11   -1    0    0    0    0 -0.00000000000E+00 -0.00000000000E+00 -0.45593999997E+02  0.45594000000E+02  0.51100000000E-03 0. -1.
    9900012    2    1    2    0    0  0.28911767000E+02 -0.24686720889E+02 -0.20935597760E+02  0.47787265987E+02  0.19999976942E+02 0.  0.
        -12    1    1    2    0    0 -0.28911767000E+02  0.24686720889E+02  0.20935597760E+02  0.43400734013E+02  0.00000000000E+00 0.  1.
         11    1    3    3    0    0  0.16477127774E+02 -0.39884807069E+01 -0.83351186972E+01  0.18891212824E+02  0.51100000000E-03 0. -1.
        -11    1    3    3    0    0  0.11452880404E+02 -0.99704856413E+01 -0.82195450603E+01  0.17266730285E+02  0.51100000000E-03 0.  1.
        -12    1    3    3    0    0  0.98175882228E+00 -0.10727754541E+02 -0.43809340023E+01  0.11629322878E+02  0.00000000000E+00 0.  1.
</event>
<event>
 7    1  0.3884463E-009  0.4778726E+02  0.7816164E-02  0.1312668E+00
        -11   -1    0    0    0    0  0.00000000000E+00  0.00000000000E+00  0.45593999997E+02  0.45594000000E+02  0.51100000000E-03 0. -1.
         11   -1    0    0    0    0 -0.00000000000E+00 -0.00000000000E+00 -0.45593999997E+02  0.45594000000E+02  0.51100000000E-03 0.  1.
    9900012    2    1    2    0    0  0.33308490536E+02  0.27769875442E+02  0.17327189224E+01  0.47787264537E+02  0.19999970329E+02 0.  0.
        -12    1    1    2    0    0 -0.33308490536E+02 -0.27769875442E+02 -0.17327189224E+01  0.43400735463E+02  0.00000000000E+00 0.  1.
         11    1    3    3    0    0  0.48269285051E+01  0.14946108108E+02 -0.16562820861E+01  0.15793310513E+02  0.51100000000E-03 0. -1.
        -11    1    3    3    0    0  0.65836418720E+01  0.44141858653E+01 -0.14098893677E+01  0.80509108455E+01  0.51100000000E-03 0.  1.
        -12    1    3    3    0    0  0.21897920159E+02  0.84095814693E+01  0.47988903762E+01  0.23943043178E+02  0.00000000000E+00 0.  1.
</event>
<event>
 7    1  0.3884463E-009  0.4778727E+02  0.7816164E-02  0.1312668E+00
        -11   -1    0    0    0    0  0.00000000000E+00  0.00000000000E+00  0.45593999997E+02  0.45594000000E+02  0.51100000000E-03 0.  1.
         11   -1    0    0    0    0 -0.00000000000E+00 -0.00000000000E+00 -0.45593999997E+02  0.45594000000E+02  0.51100000000E-03 0. -1.
    9900012    2    1    2    0    0 -0.15592372799E+02  0.40314019345E+02  0.39091287560E+01  0.47787268061E+02  0.19999986397E+02 0.  0.
        -12    1    1    2    0    0  0.15592372799E+02 -0.40314019345E+02 -0.39091287560E+01  0.43400731939E+02  0.00000000000E+00 0.  1.
         11    1    3    3    0    0 -0.19834076729E+01  0.20913616024E+02  0.17086482896E+01  0.21076828994E+02  0.51100000000E-03 0. -1.
        -11    1    3    3    0    0  0.10185320720E+01  0.11754549379E+01 -0.24318494424E+01  0.28866925476E+01  0.51100000000E-03 0.  1.
        -12    1    3    3    0    0 -0.14627497198E+02  0.18224948382E+02  0.46323299088E+01  0.23823746519E+02  0.00000000000E+00 0.  1.
</event>
<event>
 7    1  0.3884463E-009  0.4778727E+02  0.7816164E-02  0.1312668E+00
        -11   -1    0    0    0    0  0.00000000000E+00  0.00000000000E+00  0.45593999997E+02  0.45594000000E+02  0.51100000000E-03 0.  1.
         11   -1    0    0    0    0 -0.00000000000E+00 -0.00000000000E+00 -0.45593999997E+02  0.45594000000E+02  0.51100000000E-03 0. -1.
    9900012    2    1    2    0    0 -0.44459087366E+01  0.10262019868E+02 -0.41935048036E+02  0.47787269476E+02  0.19999992849E+02 0.  0.
        -12    1    1    2    0    0  0.44459087366E+01 -0.10262019868E+02  0.41935048036E+02  0.43400730524E+02  0.00000000000E+00 0.  1.
         11    1    3    3    0    0 -0.49580087869E+01 -0.35320463536E+00 -0.86832749327E+00  0.50458495362E+01  0.51100000000E-03 0. -1.
        -11    1    3    3    0    0  0.84621558906E+00 -0.31573488721E+00 -0.35688046170E+01  0.36813225881E+01  0.51100000000E-03 0.  1.
         12    1    3    3    0    0 -0.33411553873E+00  0.10930959390E+02 -0.37497915925E+02  0.39060097352E+02  0.00000000000E+00 0. -1.
</event>
<event>
 7    1  0.3884463E-009  0.4778727E+02  0.7816164E-02  0.1312668E+00
        -11   -1    0    0    0    0  0.00000000000E+00  0.00000000000E+00  0.45593999997E+02  0.45594000000E+02  0.51100000000E-03 0. -1.
         11   -1    0    0    0    0 -0.00000000000E+00 -0.00000000000E+00 -0.45593999997E+02  0.45594000000E+02  0.51100000000E-03 0.  1.
    9900012    2    1    2    0    0  0.39360452681E+00  0.10959465838E+02  0.41992363567E+02  0.47787269431E+02  0.19999992644E+02 0.  0.
        -12    1    1    2    0    0 -0.39360452681E+00 -0.10959465838E+02 -0.41992363567E+02  0.43400730569E+02  0.00000000000E+00 0.  1.
         11    1    3    3    0    0 -0.39800954770E+01  0.14903364907E+01  0.20866535195E+01  0.47345946007E+01  0.51100000000E-03 0. -1.
        -11    1    3    3    0    0 -0.33144372495E+01  0.43767897027E+01  0.70974753874E+01  0.89730674531E+01  0.51100000000E-03 0.  1.
         12    1    3    3    0    0  0.76881372533E+01  0.50923396447E+01  0.32808234660E+02  0.34079607377E+02  0.00000000000E+00 0. -1.
</event>
<event>
 7    1  0.3884463E-009  0.4778728E+02  0.7816164E-02  0.1312668E+00
        -11   -1    0    0    0    0  0.00000000000E+00  0.00000000000E+00  0.45593999997E+02  0.45594000000E+02  0.51100000000E-03 0. -1.
         11   -1    0    0    0    0 -0.00000000000E+00 -0.00000000000E+00 -0.45593999997E+02  0.45594000000E+02  0.51100000000E-03 0.  1.
    9900012    2    1    2    0    0 -0.26928072450E+02 -0.27604299997E+01  0.33924649334E+02  0.47787275442E+02  0.20000020052E+02 0.  0.
        -12    1    1    2    0    0  0.26928072450E+02  0.27604299997E+01 -0.33924649334E+02  0.43400724558E+02  0.00000000000E+00 0.  1.
         11    1    3    3    0    0 -0.13003514077E+02 -0.45702284591E+01  0.12730287273E+02  0.18762691194E+02  0.51100000000E-03 0. -1.
        -11    1    3    3    0    0 -0.55694931928E+01 -0.56197778371E+01  0.12782080760E+02  0.15032722514E+02  0.51100000000E-03 0.  1.
        -12    1    3    3    0    0 -0.83550651800E+01  0.74295762965E+01  0.84122813019E+01  0.13991861735E+02  0.00000000000E+00 0.  1.
</event>
<event>
 7    1  0.3884463E-009  0.4778727E+02  0.7816164E-02  0.1312668E+00
        -11   -1    0    0    0    0  0.00000000000E+00  0.00000000000E+00  0.45593999997E+02  0.45594000000E+02  0.51100000000E-03 0. -1.
         11   -1    0    0    0    0 -0.00000000000E+00 -0.00000000000E+00 -0.45593999997E+02  0.45594000000E+02  0.51100000000E-03 0.  1.
    9900012    2    1    2    0    0  0.14843114904E+02  0.39527389969E+02 -0.10044437706E+02  0.47787270206E+02  0.19999996178E+02 0.  0.
        -12    1    1    2    0    0 -0.14843114904E+02 -0.39527389969E+02  0.10044437706E+02  0.43400729794E+02  0.00000000000E+00 0.  1.
         11    1    3    3    0    0 -0.18448123968E+01  0.30022635635E+01 -0.17848604802E+01  0.39500185416E+01  0.51100000000E-03 0. -1.
        -11    1    3    3    0    0  0.11691117665E+01  0.75236846119E+01  0.41622039527E+01  0.86773610312E+01  0.51100000000E-03 0.  1.
         12    1    3    3    0    0  0.15518815535E+02  0.29001441793E+02 -0.12421781179E+02  0.35159890633E+02  0.00000000000E+00 0. -1.
</event>
<event>
 7    1  0.3884463E-009  0.4778727E+02  0.7816164E-02  0.1312668E+00
        -11   -1    0    0    0    0  0.00000000000E+00  0.00000000000E+00  0.45593999997E+02  0.45594000000E+02  0.51100000000E-03 0.  1.
         11   -1    0    0    0    0 -0.00000000000E+00 -0.00000000000E+00 -0.45593999997E+02  0.45594000000E+02  0.51100000000E-03 0. -1.
    9900012    2    1    2    0    0 -0.23801267708E+02  0.57157264341E+01 -0.35839270927E+02  0.47787271737E+02  0.20000003160E+02 0.  0.
        -12    1    1    2    0    0  0.23801267708E+02 -0.57157264341E+01  0.35839270927E+02  0.43400728263E+02  0.00000000000E+00 0.  1.
         11    1    3    3    0    0 -0.18477673792E+02  0.10219605369E+02 -0.19554377125E+02  0.28779131809E+02  0.51100000000E-03 0. -1.
        -11    1    3    3    0    0  0.13893926196E+01  0.41530296697E+00 -0.19132478590E+01  0.24007094861E+01  0.51100000000E-03 0.  1.
         12    1    3    3    0    0 -0.67129865349E+01 -0.49191819015E+01 -0.14371645943E+02  0.16607430442E+02  0.00000000000E+00 0. -1.
</event>
<event>
 7    1  0.3884463E-009  0.4778728E+02  0.7816164E-02  0.1312668E+00
        -11   -1    0    0    0    0  0.00000000000E+00  0.00000000000E+00  0.45593999997E+02  0.45594000000E+02  0.51100000000E-03 0.  1.
         11   -1    0    0    0    0 -0.00000000000E+00 -0.00000000000E+00 -0.45593999997E+02  0.45594000000E+02  0.51100000000E-03 0. -1.
    9900012    2    1    2    0    0  0.24764144430E+02 -0.15854698186E+02 -0.31921590217E+02  0.47787283118E+02  0.20000055048E+02 0.  0.
        -12    1    1    2    0    0 -0.24764144430E+02  0.15854698186E+02  0.31921590217E+02  0.43400716882E+02  0.00000000000E+00 0.  1.
         11    1    3    3    0    0  0.19037012295E+02 -0.47519388686E+01 -0.24829367051E+02  0.31646267213E+02  0.51100000000E-03 0. -1.
        -11    1    3    3    0    0  0.22625766303E+00 -0.66954945089E-02 -0.31295795578E+01  0.31377549027E+01  0.51100000000E-03 0.  1.
        -12    1    3    3    0    0  0.55008744715E+01 -0.11096063823E+02 -0.39626436083E+01  0.13003261002E+02  0.00000000000E+00 0.  1.
</event>
<event>
 7    1  0.3884463E-009  0.4778727E+02  0.7816164E-02  0.1312668E+00
        -11   -1    0    0    0    0  0.00000000000E+00  0.00000000000E+00  0.45593999997E+02  0.45594000000E+02  0.51100000000E-03 0.  1.
         11   -1    0    0    0    0 -0.00000000000E+00 -0.00000000000E+00 -0.45593999997E+02  0.45594000000E+02  0.51100000000E-03 0. -1.
    9900012    2    1    2    0    0  0.17039779919E+02  0.38529274352E+02 -0.10429017535E+02  0.47787268572E+02  0.19999988725E+02 0.  0.
        -12    1    1    2    0    0 -0.17039779919E+02 -0.38529274352E+02  0.10429017535E+02  0.43400731428E+02  0.00000000000E+00 0.  1.
         11    1    3    3    0    0  0.17730043246E+01  0.10479606105E+02 -0.74581083964E+01  0.12984185364E+02  0.51100000000E-03 0. -1.
        -11    1    3    3    0    0  0.45347781135E+01 -0.33409953415E-01 -0.11801610705E+01  0.46859480553E+01  0.51100000000E-03 0.  1.
        -12    1    3    3    0    0  0.10731997481E+02  0.28083078200E+02 -0.17907480682E+01  0.30117135152E+02  0.00000000000E+00 0.  1.
</event>
<event>
 7    1  0.3884463E-009  0.4778727E+02  0.7816164E-02  0.1312668E+00
        -11   -1    0    0    0    0  0.00000000000E+00  0.00000000000E+00  0.45593999997E+02  0.45594000000E+02  0.51100000000E-03 0. -1.
         11   -1    0    0    0    0 -0.00000000000E+00 -0.00000000000E+00 -0.45593999997E+02  0.45594000000E+02  0.51100000000E-03 0.  1.
    9900012    2    1    2    0    0 -0.74949816072E+01  0.41789372785E+02 -0.90053836907E+01  0.47787270023E+02  0.19999995344E+02 0.  0.
        -12    1    1    2    0    0  0.74949816072E+01 -0.41789372785E+02  0.90053836907E+01  0.43400729977E+02  0.00000000000E+00 0.  1.
         11    1    3    3    0    0  0.15771591021E+01  0.90798325823E+01 -0.30518694347E+01  0.97079708417E+01  0.51100000000E-03 0. -1.
        -11    1    3    3    0    0  0.29916390945E+01  0.39187700414E+01 -0.47407276949E+01  0.68396756098E+01  0.51100000000E-03 0.  1.
         12    1    3    3    0    0 -0.12063779804E+02  0.28790770162E+02 -0.12127865611E+01  0.31239623572E+02  0.00000000000E+00 0. -1.
</event>
<event>
 7    1  0.3884463E-009  0.4778728E+02  0.7816164E-02  0.1312668E+00
        -11   -1    0    0    0    0  0.00000000000E+00  0.00000000000E+00  0.45593999997E+02  0.45594000000E+02  0.51100000000E-03 0.  1.
         11   -1    0    0    0    0 -0.00000000000E+00 -0.00000000000E+00 -0.45593999997E+02  0.45594000000E+02  0.51100000000E-03 0. -1.
    9900012    2    1    2    0    0  0.93562645129E+01 -0.23460356153E+02 -0.35294402474E+02  0.47787276015E+02  0.20000022661E+02 0.  0.
        -12    1    1    2    0    0 -0.93562645129E+01  0.23460356153E+02  0.35294402474E+02  0.43400723985E+02  0.00000000000E+00 0.  1.
         11    1    3    3    0    0 -0.28647612778E+01  0.99009876768E+00 -0.15788685096E+01  0.34175983936E+01  0.51100000000E-03 0. -1.
        -11    1    3    3    0    0  0.53781289719E+01 -0.26709212705E+01 -0.65736873066E+01  0.89034519563E+01  0.51100000000E-03 0.  1.
         12    1    3    3    0    0  0.68428968188E+01 -0.21779533650E+02 -0.27141846658E+02  0.35466225665E+02  0.00000000000E+00 0. -1.
</event>
<event>
 7    1  0.3884463E-009  0.4778727E+02  0.7816164E-02  0.1312668E+00
        -11   -1    0    0    0    0  0.00000000000E+00  0.00000000000E+00  0.45593999997E+02  0.45594000000E+02  0.51100000000E-03 0. -1.
         11   -1    0    0    0    0 -0.00000000000E+00 -0.00000000000E+00 -0.45593999997E+02  0.45594000000E+02  0.51100000000E-03 0.  1.
    9900012    2    1    2    0    0 -0.18364889572E+01  0.27787060748E+02  0.33288585735E+02  0.47787269857E+02  0.19999994587E+02 0.  0.
        -12    1    1    2    0    0  0.18364889572E+01 -0.27787060748E+02 -0.33288585735E+02  0.43400730143E+02  0.00000000000E+00 0.  1.
         11    1    3    3    0    0 -0.15680146167E+01  0.38104345725E+01  0.18434531853E+02  0.18889416253E+02  0.51100000000E-03 0. -1.
        -11    1    3    3    0    0  0.20027530876E+01  0.29837603678E+01  0.13784852122E+01  0.38489047278E+01  0.51100000000E-03 0.  1.
        -12    1    3    3    0    0 -0.22712274282E+01  0.20992865808E+02  0.13475568670E+02  0.25048948877E+02  0.00000000000E+00 0.  1.
</event>
<event>
 7    1  0.3884463E-009  0.4778727E+02  0.7816164E-02  0.1312668E+00
        -11   -1    0    0    0    0  0.00000000000E+00  0.00000000000E+00  0.45593999997E+02  0.45594000000E+02  0.51100000000E-03 0.  1.
         11   -1    0    0    0    0 -0.00000000000E+00 -0.00000000000E+00 -0.45593999997E+02  0.45594000000E+02  0.51100000000E-03 0. -1.
    9900012    2    1    2    0    0 -0.10075125936E+02  0.38619620055E+02 -0.17048165644E+02  0.47787272268E+02  0.20000005579E+02 0.  0.
        -12    1    1    2    0    0  0.10075125936E+02 -0.38619620055E+02  0.17048165644E+02  0.43400727732E+02  0.00000000000E+00 0.  1.
         11    1    3    3    0    0 -0.21562370433E+01  0.20477330474E+02 -0.60119680599E+01  0.21450272300E+02  0.51100000000E-03 0. -1.
        -11    1    3    3    0    0 -0.20642585500E+01  0.16431715478E+02 -0.40230060325E+01  0.17042506116E+02  0.51100000000E-03 0.  1.
        -12    1    3    3    0    0 -0.58546303432E+01  0.17105741027E+01 -0.70131915520E+01  0.92944938518E+01  0.00000000000E+00 0.  1.
</event>
<event>
 7    1  0.3884463E-009  0.4778727E+02  0.7816164E-02  0.1312668E+00
        -11   -1    0    0    0    0  0.00000000000E+00  0.00000000000E+00  0.45593999997E+02  0.45594000000E+02  0.51100000000E-03 0.  1.
         11   -1    0    0    0    0 -0.00000000000E+00 -0.00000000000E+00 -0.45593999997E+02  0.45594000000E+02  0.51100000000E-03 0. -1.
    9900012    2    1    2    0    0 -0.19800634281E+02  0.37473789152E+02 -0.93420065228E+01  0.47787273310E+02  0.20000010331E+02 0.  0.
        -12    1    1    2    0    0  0.19800634281E+02 -0.37473789152E+02  0.93420065228E+01  0.43400726690E+02  0.00000000000E+00 0.  1.
         11    1    3    3    0    0 -0.12798479248E+02  0.77915945130E+01  0.16734530048E+01  0.15076818674E+02  0.51100000000E-03 0.  1.
        -11    1    3    3    0    0 -0.90688620803E+00  0.12821729508E+02 -0.40534907862E+01  0.13477758641E+02  0.51100000000E-03 0. -1.
        -12    1    3    3    0    0 -0.60952688249E+01  0.16860465131E+02 -0.69619687414E+01  0.19232695995E+02  0.00000000000E+00 0.  1.
</event>
<event>
 7    1  0.3884463E-009  0.4778722E+02  0.7816164E-02  0.1312668E+00
        -11   -1    0    0    0    0  0.00000000000E+00  0.00000000000E+00  0.45593999997E+02  0.45594000000E+02  0.51100000000E-03 0. -1.
         11   -1    0    0    0    0 -0.00000000000E+00 -0.00000000000E+00 -0.45593999997E+02  0.45594000000E+02  0.51100000000E-03 0.  1.
    9900012    2    1    2    0    0 -0.27825087534E+02 -0.10137398602E+02  0.31727356716E+02  0.47787222232E+02  0.19999777441E+02 0.  0.
        -12    1    1    2    0    0  0.27825087534E+02  0.10137398602E+02 -0.31727356716E+02  0.43400777768E+02  0.00000000000E+00 0.  1.
         11    1    3    3    0    0 -0.12427351885E+02 -0.10207682992E+01  0.17809910156E+02  0.21741065816E+02  0.51100000000E-03 0. -1.
        -11    1    3    3    0    0 -0.20344756019E+01  0.35366771043E+00  0.85719654446E+01  0.88171857000E+01  0.51100000000E-03 0.  1.
        -12    1    3    3    0    0 -0.13363260048E+02 -0.94702980129E+01  0.53454811155E+01  0.17228970715E+02  0.00000000000E+00 0.  1.
</event>
<event>
 7    1  0.3884463E-009  0.4778726E+02  0.7816164E-02  0.1312668E+00
        -11   -1    0    0    0    0  0.00000000000E+00  0.00000000000E+00  0.45593999997E+02  0.45594000000E+02  0.51100000000E-03 0. -1.
         11   -1    0    0    0    0 -0.00000000000E+00 -0.00000000000E+00 -0.45593999997E+02  0.45594000000E+02  0.51100000000E-03 0.  1.
    9900012    2    1    2    0    0 -0.41986060868E+02 -0.77368088897E+01 -0.78062006996E+01  0.47787259357E+02  0.19999946714E+02 0.  0.
        -12    1    1    2    0    0  0.41986060868E+02  0.77368088897E+01  0.78062006996E+01  0.43400740643E+02  0.00000000000E+00 0.  1.
         11    1    3    3    0    0 -0.31802136438E+01  0.42710235458E+01 -0.33119115689E+01  0.62708978185E+01  0.51100000000E-03 0. -1.
        -11    1    3    3    0    0 -0.93317040051E+01 -0.47503398968E+01 -0.38452088908E+01  0.11154911943E+02  0.51100000000E-03 0.  1.
        -12    1    3    3    0    0 -0.29474143219E+02 -0.72574925387E+01 -0.64908023993E+00  0.30361449596E+02  0.00000000000E+00 0.  1.
</event>
<event>
 7    1  0.3884463E-009  0.4778727E+02  0.7816164E-02  0.1312668E+00
        -11   -1    0    0    0    0  0.00000000000E+00  0.00000000000E+00  0.45593999997E+02  0.45594000000E+02  0.51100000000E-03 0.  1.
         11   -1    0    0    0    0 -0.00000000000E+00 -0.00000000000E+00 -0.45593999997E+02  0.45594000000E+02  0.51100000000E-03 0. -1.
    9900012    2    1    2    0    0  0.29738713718E+02  0.30994548240E+02  0.62104797913E+01  0.47787272201E+02  0.20000005274E+02 0.  0.
        -12    1    1    2    0    0 -0.29738713718E+02 -0.30994548240E+02 -0.62104797913E+01  0.43400727799E+02  0.00000000000E+00 0.  1.
         11    1    3    3    0    0  0.39766067713E+01  0.29325004041E+01 -0.24492008835E+01  0.55146663781E+01  0.51100000000E-03 0. -1.
        -11    1    3    3    0    0  0.92715068602E+01  0.53636139257E+00  0.21027827868E+01  0.95220910892E+01  0.51100000000E-03 0.  1.
         12    1    3    3    0    0  0.16490600087E+02  0.27525686444E+02  0.65568978880E+01  0.32750514734E+02  0.00000000000E+00 0. -1.
</event>
<event>
 7    1  0.3884463E-009  0.4778727E+02  0.7816164E-02  0.1312668E+00
        -11   -1    0    0    0    0  0.00000000000E+00  0.00000000000E+00  0.45593999997E+02  0.45594000000E+02  0.51100000000E-03 0. -1.
         11   -1    0    0    0    0 -0.00000000000E+00 -0.00000000000E+00 -0.45593999997E+02  0.45594000000E+02  0.51100000000E-03 0.  1.
    9900012    2    1    2    0    0 -0.42874959723E+02  0.19542413987E+01  0.64453067086E+01  0.47787271789E+02  0.20000003394E+02 0.  0.
        -12    1    1    2    0    0  0.42874959723E+02 -0.19542413987E+01 -0.64453067086E+01  0.43400728211E+02  0.00000000000E+00 0.  1.
         11    1    3    3    0    0 -0.22010987431E+01 -0.24048199464E+01 -0.27098699960E+01  0.42392676617E+01  0.51100000000E-03 0. -1.
        -11    1    3    3    0    0 -0.41126357783E+01  0.14793068241E+01  0.49968152798E+01  0.66385453924E+01  0.51100000000E-03 0.  1.
         12    1    3    3    0    0 -0.36561225202E+02  0.28797545210E+01  0.41583614248E+01  0.36909458735E+02  0.00000000000E+00 0. -1.
</event>
<event>
 7    1  0.3884463E-009  0.4778727E+02  0.7816164E-02  0.1312668E+00
        -11   -1    0    0    0    0  0.00000000000E+00  0.00000000000E+00  0.45593999997E+02  0.45594000000E+02  0.51100000000E-03 0.  1.
         11   -1    0    0    0    0 -0.00000000000E+00 -0.00000000000E+00 -0.45593999997E+02  0.45594000000E+02  0.51100000000E-03 0. -1.
    9900012    2    1    2    0    0  0.68742441125E+01  0.28409323552E+02 -0.32082365607E+02  0.47787273281E+02  0.20000010196E+02 0.  0.
        -12    1    1    2    0    0 -0.68742441125E+01 -0.28409323552E+02  0.32082365607E+02  0.43400726719E+02  0.00000000000E+00 0.  1.
         11    1    3    3    0    0  0.99391250163E+00  0.67394037390E+01 -0.38785307694E+01  0.78390322112E+01  0.51100000000E-03 0. -1.
        -11    1    3    3    0    0  0.55789172298E+01  0.10862073220E+02 -0.30752193874E+01  0.12592296321E+02  0.51100000000E-03 0.  1.
         12    1    3    3    0    0  0.30141438105E+00  0.10807846593E+02 -0.25128615450E+02  0.27355944748E+02  0.00000000000E+00 0. -1.
</event>
<event>
 7    1  0.3884463E-009  0.4778727E+02  0.7816164E-02  0.1312668E+00
        -11   -1    0    0    0    0  0.00000000000E+00  0.00000000000E+00  0.45593999997E+02  0.45594000000E+02  0.51100000000E-03 0.  1.
         11   -1    0    0    0    0 -0.00000000000E+00 -0.00000000000E+00 -0.45593999997E+02  0.45594000000E+02  0.51100000000E-03 0. -1.
    9900012    2    1    2    0    0  0.21400915022E+02  0.14369581021E+02 -0.34916181077E+02  0.47787265864E+02  0.19999976381E+02 0.  0.
        -12    1    1    2    0    0 -0.21400915022E+02 -0.14369581021E+02  0.34916181077E+02  0.43400734136E+02  0.00000000000E+00 0.  1.
         11    1    3    3    0    0  0.67122279466E+01  0.30731803763E+01 -0.19648619068E+02  0.20989680159E+02  0.51100000000E-03 0.  1.
        -11    1    3    3    0    0 -0.19222309841E+01  0.23211553261E+01 -0.31687718229E+01  0.43730823375E+01  0.51100000000E-03 0. -1.
         12    1    3    3    0    0  0.16610918060E+02  0.89752453190E+01 -0.12098790186E+02  0.22424503368E+02  0.00000000000E+00 0. -1.
</event>
<event>
 7    1  0.3884463E-009  0.4778727E+02  0.7816164E-02  0.1312668E+00
        -11   -1    0    0    0    0  0.00000000000E+00  0.00000000000E+00  0.45593999997E+02  0.45594000000E+02  0.51100000000E-03 0.  1.
         11   -1    0    0    0    0 -0.00000000000E+00 -0.00000000000E+00 -0.45593999997E+02  0.45594000000E+02  0.51100000000E-03 0. -1.
    9900012    2    1    2    0    0 -0.27391812756E+02 -0.20811235114E+02 -0.26461377784E+02  0.47787269278E+02  0.19999991944E+02 0.  0.
        -12    1    1    2    0    0  0.27391812756E+02  0.20811235114E+02  0.26461377784E+02  0.43400730722E+02  0.00000000000E+00 0.  1.
         11    1    3    3    0    0 -0.11897949227E+02 -0.15066438583E+02 -0.78009157895E+01  0.20722284015E+02  0.51100000000E-03 0.  1.
        -11    1    3    3    0    0 -0.13458786945E+02 -0.59856477000E+01 -0.91592421343E+01  0.17345277200E+02  0.51100000000E-03 0. -1.
         12    1    3    3    0    0 -0.20350765836E+01  0.24085116875E+00 -0.95012198598E+01  0.97197080621E+01  0.00000000000E+00 0. -1.
</event>
<event>
 7    1  0.3884463E-009  0.4778727E+02  0.7816164E-02  0.1312668E+00
        -11   -1    0    0    0    0  0.00000000000E+00  0.00000000000E+00  0.45593999997E+02  0.45594000000E+02  0.51100000000E-03 0.  1.
         11   -1    0    0    0    0 -0.00000000000E+00 -0.00000000000E+00 -0.45593999997E+02  0.45594000000E+02  0.51100000000E-03 0. -1.
    9900012    2    1    2    0    0 -0.34561551711E+02 -0.25366960829E+02  0.67557183514E+01  0.47787270872E+02  0.19999999216E+02 0.  0.
        -12    1    1    2    0    0  0.34561551711E+02  0.25366960829E+02 -0.67557183514E+01  0.43400729128E+02  0.00000000000E+00 0.  1.
         11    1    3    3    0    0 -0.89252016268E+00 -0.15348304662E+01  0.31062631207E+01  0.35778719425E+01  0.51100000000E-03 0. -1.
        -11    1    3    3    0    0 -0.72124663651E+01 -0.31230052826E+01  0.68947279403E+01  0.10455147378E+02  0.51100000000E-03 0.  1.
         12    1    3    3    0    0 -0.26456565183E+02 -0.20709125080E+02 -0.32452727095E+01  0.33754251552E+02  0.00000000000E+00 0. -1.
</event>
<event>
 7    1  0.3884463E-009  0.4778727E+02  0.7816164E-02  0.1312668E+00
        -11   -1    0    0    0    0  0.00000000000E+00  0.00000000000E+00  0.45593999997E+02  0.45594000000E+02  0.51100000000E-03 0.  1.
         11   -1    0    0    0    0 -0.00000000000E+00 -0.00000000000E+00 -0.45593999997E+02  0.45594000000E+02  0.51100000000E-03 0. -1.
    9900012    2    1    2    0    0  0.36652747539E+02  0.22344582095E+02 -0.63968107797E+01  0.47787269139E+02  0.19999991310E+02 0.  0.
        -12    1    1    2    0    0 -0.36652747539E+02 -0.22344582095E+02  0.63968107797E+01  0.43400730861E+02  0.00000000000E+00 0.  1.
         11    1    3    3    0    0  0.84778526197E+01  0.13201011287E+02 -0.16807344221E+01  0.15778642290E+02  0.51100000000E-03 0. -1.
        -11    1    3    3    0    0  0.20383765720E+02  0.10469464778E+02 -0.22041551750E+00  0.22916286368E+02  0.51100000000E-03 0.  1.
        -12    1    3    3    0    0  0.77911291997E+01 -0.13258939701E+01 -0.44956608401E+01  0.90923404806E+01  0.00000000000E+00 0.  1.
</event>
<event>
 7    1  0.3884463E-009  0.4778727E+02  0.7816164E-02  0.1312668E+00
        -11   -1    0    0    0    0  0.00000000000E+00  0.00000000000E+00  0.45593999997E+02  0.45594000000E+02  0.51100000000E-03 0.  1.
         11   -1    0    0    0    0 -0.00000000000E+00 -0.00000000000E+00 -0.45593999997E+02  0.45594000000E+02  0.51100000000E-03 0. -1.
    9900012    2    1    2    0    0  0.20657779746E+01  0.32379842678E+02 -0.28825366185E+02  0.47787269751E+02  0.19999994102E+02 0.  0.
        -12    1    1    2    0    0 -0.20657779746E+01 -0.32379842678E+02  0.28825366185E+02  0.43400730249E+02  0.00000000000E+00 0.  1.
         11    1    3    3    0    0 -0.11174619887E+01 -0.70243844629E+00  0.27354415648E+00  0.13479494551E+01  0.51100000000E-03 0.  1.
        -11    1    3    3    0    0  0.19489145567E+01  0.21019100406E+02 -0.89614362618E+01  0.22932688241E+02  0.51100000000E-03 0. -1.
         12    1    3    3    0    0  0.12343254065E+01  0.12063180718E+02 -0.20137474080E+02  0.23506632054E+02  0.00000000000E+00 0. -1.
</event>
<event>
 7    1  0.3884463E-009  0.4778727E+02  0.7816164E-02  0.1312668E+00
        -11   -1    0    0    0    0  0.00000000000E+00  0.00000000000E+00  0.45593999997E+02  0.45594000000E+02  0.51100000000E-03 0. -1.
         11   -1    0    0    0    0 -0.00000000000E+00 -0.00000000000E+00 -0.45593999997E+02  0.45594000000E+02  0.51100000000E-03 0.  1.
    9900012    2    1    2    0    0  0.91995465131E+01 -0.33678451140E+02  0.25782816209E+02  0.47787270295E+02  0.19999996582E+02 0.  0.
        -12    1    1    2    0    0 -0.91995465131E+01  0.33678451140E+02 -0.25782816209E+02  0.43400729705E+02  0.00000000000E+00 0.  1.
         11    1    3    3    0    0 -0.12465427361E+01 -0.81684261515E+01  0.13118733508E+02  0.15504135696E+02  0.51100000000E-03 0. -1.
        -11    1    3    3    0    0  0.51647825407E+00 -0.12405585494E+01 -0.18697429426E+01  0.23025364783E+01  0.51100000000E-03 0.  1.
         12    1    3    3    0    0  0.99296109952E+01 -0.24269466440E+02  0.14533825644E+02  0.29980598120E+02  0.00000000000E+00 0. -1.
</event>
<event>
 7    1  0.3884463E-009  0.4778727E+02  0.7816164E-02  0.1312668E+00
        -11   -1    0    0    0    0  0.00000000000E+00  0.00000000000E+00  0.45593999997E+02  0.45594000000E+02  0.51100000000E-03 0. -1.
         11   -1    0    0    0    0 -0.00000000000E+00 -0.00000000000E+00 -0.45593999997E+02  0.45594000000E+02  0.51100000000E-03 0.  1.
    9900012    2    1    2    0    0  0.40944430159E+02 -0.12308281812E+02 -0.74621404330E+01  0.47787266112E+02  0.19999977510E+02 0.  0.
        -12    1    1    2    0    0 -0.40944430159E+02  0.12308281812E+02  0.74621404330E+01  0.43400733888E+02  0.00000000000E+00 0.  1.
         11    1    3    3    0    0  0.23286347081E+02 -0.68908852866E+01 -0.85512136072E+00  0.24299578046E+02  0.51100000000E-03 0. -1.
        -11    1    3    3    0    0  0.53920946173E+01 -0.81347904360E+01 -0.12860397276E+01  0.98439523690E+01  0.51100000000E-03 0.  1.
         12    1    3    3    0    0  0.12265988460E+02  0.27173939107E+01 -0.53209793447E+01  0.13643735697E+02  0.00000000000E+00 0. -1.
</event>
<event>
 7    1  0.3884463E-009  0.4778727E+02  0.7816164E-02  0.1312668E+00
        -11   -1    0    0    0    0  0.00000000000E+00  0.00000000000E+00  0.45593999997E+02  0.45594000000E+02  0.51100000000E-03 0.  1.
         11   -1    0    0    0    0 -0.00000000000E+00 -0.00000000000E+00 -0.45593999997E+02  0.45594000000E+02  0.51100000000E-03 0. -1.
    9900012    2    1    2    0    0  0.36104287909E+01 -0.67238347881E+01 -0.42724442557E+02  0.47787272562E+02  0.20000006920E+02 0.  0.
        -12    1    1    2    0    0 -0.36104287909E+01  0.67238347881E+01  0.42724442557E+02  0.43400727438E+02  0.00000000000E+00 0.  1.
         11    1    3    3    0    0  0.45130695306E+00  0.36783766091E+00 -0.59186797393E+00  0.83023518978E+00  0.51100000000E-03 0. -1.
        -11    1    3    3    0    0  0.63996456222E+01 -0.10974241327E+02 -0.16466513462E+02  0.20797487893E+02  0.51100000000E-03 0.  1.
         12    1    3    3    0    0 -0.32405237844E+01  0.38825688782E+01 -0.25666061121E+02  0.26159549479E+02  0.00000000000E+00 0. -1.
</event>
<event>
 7    1  0.3884463E-009  0.4778727E+02  0.7816164E-02  0.1312668E+00
        -11   -1    0    0    0    0  0.00000000000E+00  0.00000000000E+00  0.45593999997E+02  0.45594000000E+02  0.51100000000E-03 0.  1.
         11   -1    0    0    0    0 -0.00000000000E+00 -0.00000000000E+00 -0.45593999997E+02  0.45594000000E+02  0.51100000000E-03 0. -1.
    9900012    2    1    2    0    0 -0.72575883676E+01 -0.19270752580E+02 -0.38204567354E+02  0.47787268893E+02  0.19999990191E+02 0.  0.
        -12    1    1    2    0    0  0.72575883676E+01  0.19270752580E+02  0.38204567354E+02  0.43400731107E+02  0.00000000000E+00 0.  1.
         11    1    3    3    0    0 -0.99375710715E+01 -0.98701718355E+01 -0.14665634889E+02  0.20279459012E+02  0.51100000000E-03 0. -1.
        -11    1    3    3    0    0  0.71433210558E+00 -0.73747547580E+01 -0.23546884875E+02  0.24685077793E+02  0.51100000000E-03 0.  1.
        -12    1    3    3    0    0  0.19656505983E+01 -0.20258259862E+01  0.79524091311E-02  0.28227320882E+01  0.00000000000E+00 0.  1.
</event>
<event>
 7    1  0.3884463E-009  0.4778728E+02  0.7816164E-02  0.1312668E+00
        -11   -1    0    0    0    0  0.00000000000E+00  0.00000000000E+00  0.45593999997E+02  0.45594000000E+02  0.51100000000E-03 0.  1.
         11   -1    0    0    0    0 -0.00000000000E+00 -0.00000000000E+00 -0.45593999997E+02  0.45594000000E+02  0.51100000000E-03 0. -1.
    9900012    2    1    2    0    0 -0.26443136746E+02  0.83230765012E+01 -0.33393257812E+02  0.47787277071E+02  0.20000027479E+02 0.  0.
        -12    1    1    2    0    0  0.26443136746E+02 -0.83230765012E+01  0.33393257812E+02  0.43400722929E+02  0.00000000000E+00 0.  1.
         11    1    3    3    0    0 -0.21686489806E+01  0.34783459308E+01 -0.39757537025E+01  0.57103893545E+01  0.51100000000E-03 0. -1.
        -11    1    3    3    0    0 -0.41580057378E+01 -0.41619519865E+01 -0.77233741174E+00  0.59335791384E+01  0.51100000000E-03 0.  1.
         12    1    3    3    0    0 -0.20116482028E+02  0.90066825569E+01 -0.28645166698E+02  0.36143308579E+02  0.00000000000E+00 0. -1.
</event>
<event>
 7    1  0.3884463E-009  0.4778727E+02  0.7816164E-02  0.1312668E+00
        -11   -1    0    0    0    0  0.00000000000E+00  0.00000000000E+00  0.45593999997E+02  0.45594000000E+02  0.51100000000E-03 0.  1.
         11   -1    0    0    0    0 -0.00000000000E+00 -0.00000000000E+00 -0.45593999997E+02  0.45594000000E+02  0.51100000000E-03 0. -1.
    9900012    2    1    2    0    0 -0.13284016867E+02  0.24283082381E+02 -0.33428880170E+02  0.47787271625E+02  0.20000002648E+02 0.  0.
        -12    1    1    2    0    0  0.13284016867E+02 -0.24283082381E+02  0.33428880170E+02  0.43400728375E+02  0.00000000000E+00 0.  1.
         11    1    3    3    0    0 -0.66910668274E+01  0.75964286368E+01 -0.91805214557E+01  0.13665945916E+02  0.51100000000E-03 0. -1.
        -11    1    3    3    0    0 -0.97177641490E+01  0.60075063557E+01 -0.64182612229E+01  0.13104165370E+02  0.51100000000E-03 0.  1.
         12    1    3    3    0    0  0.31248141090E+01  0.10679147388E+02 -0.17830097491E+02  0.21017160339E+02  0.00000000000E+00 0. -1.
</event>
<event>
 7    1  0.3884463E-009  0.4778727E+02  0.7816164E-02  0.1312668E+00
        -11   -1    0    0    0    0  0.00000000000E+00  0.00000000000E+00  0.45593999997E+02  0.45594000000E+02  0.51100000000E-03 0.  1.
         11   -1    0    0    0    0 -0.00000000000E+00 -0.00000000000E+00 -0.45593999997E+02  0.45594000000E+02  0.51100000000E-03 0. -1.
    9900012    2    1    2    0    0 -0.97057848637E+01  0.23198545818E+02 -0.35372992011E+02  0.47787270147E+02  0.19999995910E+02 0.  0.
        -12    1    1    2    0    0  0.97057848637E+01 -0.23198545818E+02  0.35372992011E+02  0.43400729853E+02  0.00000000000E+00 0.  1.
         11    1    3    3    0    0 -0.98785169862E+01  0.10593260714E+02 -0.18575541828E+02  0.23555318399E+02  0.51100000000E-03 0.  1.
        -11    1    3    3    0    0  0.47220364188E+01  0.11611693341E+02 -0.14034340891E+02  0.18817326449E+02  0.51100000000E-03 0. -1.
         12    1    3    3    0    0 -0.45493042962E+01  0.99359176242E+00 -0.27631092931E+01  0.54146252996E+01  0.00000000000E+00 0. -1.
</event>
<event>
 7    1  0.3884463E-009  0.4778727E+02  0.7816164E-02  0.1312668E+00
        -11   -1    0    0    0    0  0.00000000000E+00  0.00000000000E+00  0.45593999997E+02  0.45594000000E+02  0.51100000000E-03 0.  1.
         11   -1    0    0    0    0 -0.00000000000E+00 -0.00000000000E+00 -0.45593999997E+02  0.45594000000E+02  0.51100000000E-03 0. -1.
    9900012    2    1    2    0    0 -0.28885353804E+02 -0.17270590716E+02 -0.27404126710E+02  0.47787272716E+02  0.20000007622E+02 0.  0.
        -12    1    1    2    0    0  0.28885353804E+02  0.17270590716E+02  0.27404126710E+02  0.43400727284E+02  0.00000000000E+00 0.  1.
         11    1    3    3    0    0 -0.14007248740E+02 -0.42957230245E+01 -0.57138913973E+01  0.15725927913E+02  0.51100000000E-03 0. -1.
        -11    1    3    3    0    0 -0.12755149920E+02 -0.29077852200E+01 -0.98525964770E+01  0.16377506586E+02  0.51100000000E-03 0.  1.
        -12    1    3    3    0    0 -0.21229551439E+01 -0.10067082472E+02 -0.11837638835E+02  0.15683838217E+02  0.00000000000E+00 0.  1.
</event>
<event>
 7    1  0.3884463E-009  0.4778727E+02  0.7816164E-02  0.1312668E+00
        -11   -1    0    0    0    0  0.00000000000E+00  0.00000000000E+00  0.45593999997E+02  0.45594000000E+02  0.51100000000E-03 0.  1.
         11   -1    0    0    0    0 -0.00000000000E+00 -0.00000000000E+00 -0.45593999997E+02  0.45594000000E+02  0.51100000000E-03 0. -1.
    9900012    2    1    2    0    0 -0.62044404150E+01 -0.42942531680E+02  0.10331333167E+01  0.47787268758E+02  0.19999989573E+02 0.  0.
        -12    1    1    2    0    0  0.62044404150E+01  0.42942531680E+02 -0.10331333167E+01  0.43400731242E+02  0.00000000000E+00 0.  1.
         11    1    3    3    0    0  0.43468173881E+01 -0.53119463356E+01 -0.17519541090E+01  0.70838505588E+01  0.51100000000E-03 0. -1.
        -11    1    3    3    0    0  0.42447229680E-01  0.29491351106E+00 -0.10955869193E+01  0.11353795423E+01  0.51100000000E-03 0.  1.
        -12    1    3    3    0    0 -0.10593705033E+02 -0.37925498855E+02  0.38806743450E+01  0.39568038656E+02  0.00000000000E+00 0.  1.
</event>
<event>
 7    1  0.3884463E-009  0.4778723E+02  0.7816164E-02  0.1312668E+00
        -11   -1    0    0    0    0  0.00000000000E+00  0.00000000000E+00  0.45593999997E+02  0.45594000000E+02  0.51100000000E-03 0.  1.
         11   -1    0    0    0    0 -0.00000000000E+00 -0.00000000000E+00 -0.45593999997E+02  0.45594000000E+02  0.51100000000E-03 0. -1.
    9900012    2    1    2    0    0  0.41551935439E+02 -0.10097731091E+02 -0.74228882209E+01  0.47787230635E+02  0.19999815758E+02 0.  0.
        -12    1    1    2    0    0 -0.41551935439E+02  0.10097731091E+02  0.74228882209E+01  0.43400769365E+02  0.00000000000E+00 0.  1.
         11    1    3    3    0    0  0.78135611358E+01 -0.32180974938E+01 -0.32256625142E+01  0.90450421790E+01  0.51100000000E-03 0. -1.
        -11    1    3    3    0    0  0.41884795935E+01 -0.39130996677E+01 -0.68425823484E+01  0.89261774445E+01  0.51100000000E-03 0.  1.
         12    1    3    3    0    0  0.29549894710E+02 -0.29665339292E+01  0.26453566416E+01  0.29816011012E+02  0.00000000000E+00 0. -1.
</event>
<event>
 7    1  0.3884463E-009  0.4778728E+02  0.7816164E-02  0.1312668E+00
        -11   -1    0    0    0    0  0.00000000000E+00  0.00000000000E+00  0.45593999997E+02  0.45594000000E+02  0.51100000000E-03 0.  1.
         11   -1    0    0    0    0 -0.00000000000E+00 -0.00000000000E+00 -0.45593999997E+02  0.45594000000E+02  0.51100000000E-03 0. -1.
    9900012    2    1    2    0    0 -0.84634948458E+01  0.70926637694E+01 -0.41972444253E+02  0.47787277645E+02  0.20000030094E+02 0.  0.
        -12    1    1    2    0    0  0.84634948458E+01 -0.70926637694E+01  0.41972444253E+02  0.43400722355E+02  0.00000000000E+00 0.  1.
         11    1    3    3    0    0 -0.15999079965E+01  0.29960193569E+01 -0.15767427882E+02  0.16129092345E+02  0.51100000000E-03 0. -1.
        -11    1    3    3    0    0 -0.86969239447E+00  0.81864753137E+01 -0.59923280807E+01  0.10182472146E+02  0.51100000000E-03 0.  1.
        -12    1    3    3    0    0 -0.59938944548E+01 -0.40898309011E+01 -0.20212688290E+02  0.21475713153E+02  0.00000000000E+00 0.  1.
</event>
<event>
 7    1  0.3884463E-009  0.4778725E+02  0.7816164E-02  0.1312668E+00
        -11   -1    0    0    0    0  0.00000000000E+00  0.00000000000E+00  0.45593999997E+02  0.45594000000E+02  0.51100000000E-03 0. -1.
         11   -1    0    0    0    0 -0.00000000000E+00 -0.00000000000E+00 -0.45593999997E+02  0.45594000000E+02  0.51100000000E-03 0.  1.
    9900012    2    1    2    0    0  0.33863250101E+02  0.97170395293E+00  0.27128611073E+02  0.47787245920E+02  0.19999885449E+02 0.  0.
        -12    1    1    2    0    0 -0.33863250101E+02 -0.97170395293E+00 -0.27128611073E+02  0.43400754080E+02  0.00000000000E+00 0.  1.
         11    1    3    3    0    0  0.13150200462E+02  0.49062945734E+01  0.94450353590E+01  0.16917688726E+02  0.51100000000E-03 0. -1.
        -11    1    3    3    0    0  0.81418724359E+01  0.50872382583E+01  0.88216310554E+01  0.13038069435E+02  0.51100000000E-03 0.  1.
        -12    1    3    3    0    0  0.12571177203E+02 -0.90218288787E+01  0.88619446583E+01  0.17831487759E+02  0.00000000000E+00 0.  1.
</event>
<event>
 7    1  0.3884463E-009  0.4778727E+02  0.7816164E-02  0.1312668E+00
        -11   -1    0    0    0    0  0.00000000000E+00  0.00000000000E+00  0.45593999997E+02  0.45594000000E+02  0.51100000000E-03 0. -1.
         11   -1    0    0    0    0 -0.00000000000E+00 -0.00000000000E+00 -0.45593999997E+02  0.45594000000E+02  0.51100000000E-03 0.  1.
    9900012    2    1    2    0    0  0.40526299905E+02  0.15263638158E+02  0.28746504545E+01  0.47787271331E+02  0.20000001305E+02 0.  0.
        -12    1    1    2    0    0 -0.40526299905E+02 -0.15263638158E+02 -0.28746504545E+01  0.43400728669E+02  0.00000000000E+00 0.  1.
         11    1    3    3    0    0  0.26605871300E+02  0.72292624210E+01  0.40626974485E+01  0.27868263914E+02  0.51100000000E-03 0. -1.
        -11    1    3    3    0    0  0.13057520134E+02  0.10154374774E+02  0.12332661047E+01  0.16587076435E+02  0.51100000000E-03 0.  1.
        -12    1    3    3    0    0  0.86290847065E+00 -0.21199990366E+01 -0.24213130988E+01  0.33319309816E+01  0.00000000000E+00 0.  1.
</event>
<event>
 7    1  0.3884463E-009  0.4778727E+02  0.7816164E-02  0.1312668E+00
        -11   -1    0    0    0    0  0.00000000000E+00  0.00000000000E+00  0.45593999997E+02  0.45594000000E+02  0.51100000000E-03 0.  1.
         11   -1    0    0    0    0 -0.00000000000E+00 -0.00000000000E+00 -0.45593999997E+02  0.45594000000E+02  0.51100000000E-03 0. -1.
    9900012    2    1    2    0    0 -0.23205700068E+02 -0.20650478435E+02 -0.30309672890E+02  0.47787273671E+02  0.20000011974E+02 0.  0.
        -12    1    1    2    0    0  0.23205700068E+02  0.20650478435E+02  0.30309672890E+02  0.43400726329E+02  0.00000000000E+00 0.  1.
         11    1    3    3    0    0 -0.25856733768E+02 -0.13939366813E+02 -0.25391201470E+02  0.38827692961E+02  0.51100000000E-03 0. -1.
        -11    1    3    3    0    0  0.85832747494E+00 -0.43708487806E+00 -0.59786223389E+00  0.11336704798E+01  0.51100000000E-03 0.  1.
         12    1    3    3    0    0  0.17927062253E+01 -0.62740267438E+01 -0.43206091855E+01  0.78259102299E+01  0.00000000000E+00 0. -1.
</event>
<event>
 7    1  0.3884463E-009  0.4778727E+02  0.7816164E-02  0.1312668E+00
        -11   -1    0    0    0    0  0.00000000000E+00  0.00000000000E+00  0.45593999997E+02  0.45594000000E+02  0.51100000000E-03 0.  1.
         11   -1    0    0    0    0 -0.00000000000E+00 -0.00000000000E+00 -0.45593999997E+02  0.45594000000E+02  0.51100000000E-03 0. -1.
    9900012    2    1    2    0    0  0.63194371317E+01 -0.42525437413E+02 -0.59392857286E+01  0.47787271575E+02  0.20000002419E+02 0.  0.
        -12    1    1    2    0    0 -0.63194371317E+01  0.42525437413E+02  0.59392857286E+01  0.43400728425E+02  0.00000000000E+00 0.  1.
         11    1    3    3    0    0  0.76208084558E+00 -0.28076169559E+02 -0.30097696930E+01  0.28247314531E+02  0.51100000000E-03 0. -1.
        -11    1    3    3    0    0  0.73822892056E+00  0.16859845236E+01 -0.19358022728E+01  0.26711152078E+01  0.51100000000E-03 0.  1.
         12    1    3    3    0    0  0.48191273656E+01 -0.16135252378E+02 -0.99371376281E+00  0.16868841837E+02  0.00000000000E+00 0. -1.
</event>
<event>
 7    1  0.3884463E-009  0.4778727E+02  0.7816164E-02  0.1312668E+00
        -11   -1    0    0    0    0  0.00000000000E+00  0.00000000000E+00  0.45593999997E+02  0.45594000000E+02  0.51100000000E-03 0.  1.
         11   -1    0    0    0    0 -0.00000000000E+00 -0.00000000000E+00 -0.45593999997E+02  0.45594000000E+02  0.51100000000E-03 0. -1.
    9900012    2    1    2    0    0  0.15239700843E+02  0.36481299216E+02 -0.17902231429E+02  0.47787267698E+02  0.19999984741E+02 0.  0.
        -12    1    1    2    0    0 -0.15239700843E+02 -0.36481299216E+02  0.17902231429E+02  0.43400732302E+02  0.00000000000E+00 0.  1.
         11    1    3    3    0    0  0.53770582467E+01  0.17219222014E+02 -0.18232097586E+02  0.25648074876E+02  0.51100000000E-03 0. -1.
        -11    1    3    3    0    0  0.15186266416E+01  0.65618750782E+00 -0.50859457551E+00  0.17307448181E+01  0.51100000000E-03 0.  1.
         12    1    3    3    0    0  0.83440159547E+01  0.18605889694E+02  0.83846073319E+00  0.20408448004E+02  0.00000000000E+00 0. -1.
</event>
<event>
 7    1  0.3884463E-009  0.4778727E+02  0.7816164E-02  0.1312668E+00
        -11   -1    0    0    0    0  0.00000000000E+00  0.00000000000E+00  0.45593999997E+02  0.45594000000E+02  0.51100000000E-03 0.  1.
         11   -1    0    0    0    0 -0.00000000000E+00 -0.00000000000E+00 -0.45593999997E+02  0.45594000000E+02  0.51100000000E-03 0. -1.
    9900012    2    1    2    0    0 -0.42472658683E+02 -0.43882857876E+01 -0.77742967504E+01  0.47787268696E+02  0.19999989294E+02 0.  0.
        -12    1    1    2    0    0  0.42472658683E+02  0.43882857876E+01  0.77742967504E+01  0.43400731304E+02  0.00000000000E+00 0.  1.
         11    1    3    3    0    0  0.12761395548E+01  0.18881870574E+01 -0.83792944811E-01  0.22805271421E+01  0.51100000000E-03 0. -1.
        -11    1    3    3    0    0 -0.10010788330E+02 -0.33867916053E+01  0.79548232214E+00  0.10598067406E+02  0.51100000000E-03 0.  1.
         12    1    3    3    0    0 -0.33738009908E+02 -0.28896812397E+01 -0.84859861278E+01  0.34908674148E+02  0.00000000000E+00 0. -1.
</event>
<event>
 7    1  0.3884463E-009  0.4778727E+02  0.7816164E-02  0.1312668E+00
        -11   -1    0    0    0    0  0.00000000000E+00  0.00000000000E+00  0.45593999997E+02  0.45594000000E+02  0.51100000000E-03 0.  1.
         11   -1    0    0    0    0 -0.00000000000E+00 -0.00000000000E+00 -0.45593999997E+02  0.45594000000E+02  0.51100000000E-03 0. -1.
    9900012    2    1    2    0    0 -0.32849873417E+02 -0.16110907707E+01 -0.28318078622E+02  0.47787269893E+02  0.19999994751E+02 0.  0.
        -12    1    1    2    0    0  0.32849873417E+02  0.16110907707E+01  0.28318078622E+02  0.43400730107E+02  0.00000000000E+00 0.  1.
         11    1    3    3    0    0 -0.11812730477E+02  0.22434998144E+01 -0.21323139227E+02  0.24479586588E+02  0.51100000000E-03 0. -1.
        -11    1    3    3    0    0 -0.83019808291E+01 -0.15231043131E+01 -0.59335082373E+01  0.10317424713E+02  0.51100000000E-03 0.  1.
        -12    1    3    3    0    0 -0.12735162110E+02 -0.23314862720E+01 -0.10614311578E+01  0.12990258593E+02  0.00000000000E+00 0.  1.
</event>
<event>
 7    1  0.3884463E-009  0.4778727E+02  0.7816164E-02  0.1312668E+00
        -11   -1    0    0    0    0  0.00000000000E+00  0.00000000000E+00  0.45593999997E+02  0.45594000000E+02  0.51100000000E-03 0.  1.
         11   -1    0    0    0    0 -0.00000000000E+00 -0.00000000000E+00 -0.45593999997E+02  0.45594000000E+02  0.51100000000E-03 0. -1.
    9900012    2    1    2    0    0 -0.17708414417E+02  0.38128939777E+02  0.10780514409E+02  0.47787268663E+02  0.19999989140E+02 0.  0.
        -12    1    1    2    0    0  0.17708414417E+02 -0.38128939777E+02 -0.10780514409E+02  0.43400731337E+02  0.00000000000E+00 0.  1.
         11    1    3    3    0    0 -0.98848504382E+01  0.12167462748E+02  0.25102269619E+01  0.15876355299E+02  0.51100000000E-03 0. -1.
        -11    1    3    3    0    0 -0.59772734840E+01  0.13681652581E+01  0.21767661424E+01  0.65067646013E+01  0.51100000000E-03 0.  1.
        -12    1    3    3    0    0 -0.18462904949E+01  0.24593311771E+02  0.60935213049E+01  0.25404148763E+02  0.00000000000E+00 0.  1.
</event>
<event>
 7    1  0.3884463E-009  0.4778727E+02  0.7816164E-02  0.1312668E+00
        -11   -1    0    0    0    0  0.00000000000E+00  0.00000000000E+00  0.45593999997E+02  0.45594000000E+02  0.51100000000E-03 0.  1.
         11   -1    0    0    0    0 -0.00000000000E+00 -0.00000000000E+00 -0.45593999997E+02  0.45594000000E+02  0.51100000000E-03 0. -1.
    9900012    2    1    2    0    0  0.50631908388E+01 -0.42733301872E+02 -0.56437745077E+01  0.47787272114E+02  0.20000004874E+02 0.  0.
        -12    1    1    2    0    0 -0.50631908388E+01  0.42733301872E+02  0.56437745077E+01  0.43400727886E+02  0.00000000000E+00 0.  1.
         11    1    3    3    0    0  0.76774552499E+00 -0.64097548830E+01 -0.58279335503E+01  0.86970800030E+01  0.51100000000E-03 0. -1.
        -11    1    3    3    0    0 -0.15261260531E+01 -0.17820075514E+02 -0.57804391626E+01  0.18796213162E+02  0.51100000000E-03 0.  1.
         12    1    3    3    0    0  0.58215713669E+01 -0.18503471475E+02  0.59645982051E+01  0.20293978948E+02  0.00000000000E+00 0. -1.
</event>
<event>
 7    1  0.3884463E-009  0.4778727E+02  0.7816164E-02  0.1312668E+00
        -11   -1    0    0    0    0  0.00000000000E+00  0.00000000000E+00  0.45593999997E+02  0.45594000000E+02  0.51100000000E-03 0.  1.
         11   -1    0    0    0    0 -0.00000000000E+00 -0.00000000000E+00 -0.45593999997E+02  0.45594000000E+02  0.51100000000E-03 0. -1.
    9900012    2    1    2    0    0  0.96484944549E+01 -0.25197543598E+02 -0.33994325065E+02  0.47787265153E+02  0.19999973140E+02 0.  0.
        -12    1    1    2    0    0 -0.96484944549E+01  0.25197543598E+02  0.33994325065E+02  0.43400734847E+02  0.00000000000E+00 0.  1.
         11    1    3    3    0    0  0.30160459464E+01 -0.20153906636E+02 -0.28774414674E+02  0.35259657201E+02  0.51100000000E-03 0. -1.
        -11    1    3    3    0    0  0.55005454895E+01 -0.61473767957E+01 -0.64929267691E+01  0.10497825510E+02  0.51100000000E-03 0.  1.
        -12    1    3    3    0    0  0.11319030189E+01  0.11037398339E+01  0.12730163779E+01  0.20297824424E+01  0.00000000000E+00 0.  1.
</event>
<event>
 7    1  0.3884463E-009  0.4778728E+02  0.7816164E-02  0.1312668E+00
        -11   -1    0    0    0    0  0.00000000000E+00  0.00000000000E+00  0.45593999997E+02  0.45594000000E+02  0.51100000000E-03 0.  1.
         11   -1    0    0    0    0 -0.00000000000E+00 -0.00000000000E+00 -0.45593999997E+02  0.45594000000E+02  0.51100000000E-03 0. -1.
    9900012    2    1    2    0    0 -0.19159292406E+02  0.31289580690E+02 -0.23184181862E+02  0.47787278418E+02  0.20000033617E+02 0.  0.
        -12    1    1    2    0    0  0.19159292406E+02 -0.31289580690E+02  0.23184181862E+02  0.43400721582E+02  0.00000000000E+00 0.  1.
         11    1    3    3    0    0 -0.80438946183E+01  0.68923642847E+01 -0.86275824788E+01  0.13661775351E+02  0.51100000000E-03 0. -1.
        -11    1    3    3    0    0 -0.14071704732E+02  0.14746384582E+02 -0.71295285426E+01  0.21593955400E+02  0.51100000000E-03 0.  1.
        -12    1    3    3    0    0  0.29563069446E+01  0.96508318234E+01 -0.74270708403E+01  0.12531547666E+02  0.00000000000E+00 0.  1.
</event>
<event>
 7    1  0.3884463E-009  0.4778727E+02  0.7816164E-02  0.1312668E+00
        -11   -1    0    0    0    0  0.00000000000E+00  0.00000000000E+00  0.45593999997E+02  0.45594000000E+02  0.51100000000E-03 0.  1.
         11   -1    0    0    0    0 -0.00000000000E+00 -0.00000000000E+00 -0.45593999997E+02  0.45594000000E+02  0.51100000000E-03 0. -1.
    9900012    2    1    2    0    0  0.38688563263E+02  0.10706251984E+02 -0.16498325228E+02  0.47787268506E+02  0.19999988426E+02 0.  0.
        -12    1    1    2    0    0 -0.38688563263E+02 -0.10706251984E+02  0.16498325228E+02  0.43400731494E+02  0.00000000000E+00 0.  1.
         11    1    3    3    0    0  0.18909865560E+02  0.38733883189E+00 -0.35401039270E+01  0.19242281126E+02  0.51100000000E-03 0. -1.
        -11    1    3    3    0    0  0.20977974449E+01 -0.22478565726E+01  0.35244201641E+00  0.30948067673E+01  0.51100000000E-03 0.  1.
         12    1    3    3    0    0  0.17680900258E+02  0.12566769725E+02 -0.13310663318E+02  0.25450180613E+02  0.00000000000E+00 0. -1.
</event>
<event>
 7    1  0.3884463E-009  0.4778728E+02  0.7816164E-02  0.1312668E+00
        -11   -1    0    0    0    0  0.00000000000E+00  0.00000000000E+00  0.45593999997E+02  0.45594000000E+02  0.51100000000E-03 0.  1.
         11   -1    0    0    0    0 -0.00000000000E+00 -0.00000000000E+00 -0.45593999997E+02  0.45594000000E+02  0.51100000000E-03 0. -1.
    9900012    2    1    2    0    0  0.43160612877E+00 -0.42596831533E+02 -0.83033839353E+01  0.47787279669E+02  0.20000039321E+02 0.  0.
        -12    1    1    2    0    0 -0.43160612877E+00  0.42596831533E+02  0.83033839353E+01  0.43400720331E+02  0.00000000000E+00 0.  1.
         11    1    3    3    0    0 -0.29879373320E+01 -0.13981305870E+02 -0.49639073182E+01  0.15134234684E+02  0.51100000000E-03 0. -1.
        -11    1    3    3    0    0 -0.41491649700E+01 -0.21705860267E+02 -0.36588507385E+01  0.22399712696E+02  0.51100000000E-03 0.  1.
        -12    1    3    3    0    0  0.75687084308E+01 -0.69096653953E+01  0.31937412135E+00  0.10253332288E+02  0.00000000000E+00 0.  1.
</event>
<event>
 7    1  0.3884463E-009  0.4778727E+02  0.7816164E-02  0.1312668E+00
        -11   -1    0    0    0    0  0.00000000000E+00  0.00000000000E+00  0.45593999997E+02  0.45594000000E+02  0.51100000000E-03 0. -1.
         11   -1    0    0    0    0 -0.00000000000E+00 -0.00000000000E+00 -0.45593999997E+02  0.45594000000E+02  0.51100000000E-03 0.  1.
    9900012    2    1    2    0    0  0.17251367051E+02 -0.39690061252E+02  0.32729754873E+01  0.47787274247E+02  0.20000014602E+02 0.  0.
        -12    1    1    2    0    0 -0.17251367051E+02  0.39690061252E+02 -0.32729754873E+01  0.43400725753E+02  0.00000000000E+00 0.  1.
         11    1    3    3    0    0  0.50154949269E+01 -0.11786415992E+02 -0.34259536311E+01  0.13259409860E+02  0.51100000000E-03 0. -1.
        -11    1    3    3    0    0  0.11350285735E+02 -0.22568931918E+02 -0.80885588881E+00  0.25275282833E+02  0.51100000000E-03 0.  1.
        -12    1    3    3    0    0  0.88558638964E+00 -0.53347133421E+01  0.75077850072E+01  0.92525815538E+01  0.00000000000E+00 0.  1.
</event>
<event>
 7    1  0.3884463E-009  0.4778727E+02  0.7816164E-02  0.1312668E+00
        -11   -1    0    0    0    0  0.00000000000E+00  0.00000000000E+00  0.45593999997E+02  0.45594000000E+02  0.51100000000E-03 0.  1.
         11   -1    0    0    0    0 -0.00000000000E+00 -0.00000000000E+00 -0.45593999997E+02  0.45594000000E+02  0.51100000000E-03 0. -1.
    9900012    2    1    2    0    0  0.38029426734E+02  0.18859522396E+02  0.90390448410E+01  0.47787271730E+02  0.20000003128E+02 0.  0.
        -12    1    1    2    0    0 -0.38029426734E+02 -0.18859522396E+02 -0.90390448410E+01  0.43400728270E+02  0.00000000000E+00 0.  1.
         11    1    3    3    0    0  0.86925136864E+01  0.69385541733E+01  0.50041655985E-01  0.11122312378E+02  0.51100000000E-03 0. -1.
        -11    1    3    3    0    0  0.14011421040E+02  0.86820538949E+01  0.12408874026E+02  0.20631968743E+02  0.51100000000E-03 0.  1.
        -12    1    3    3    0    0  0.15325492008E+02  0.32389143274E+01 -0.34198708407E+01  0.16032990609E+02  0.00000000000E+00 0.  1.
</event>
<event>
 7    1  0.3884463E-009  0.4778730E+02  0.7816164E-02  0.1312668E+00
        -11   -1    0    0    0    0  0.00000000000E+00  0.00000000000E+00  0.45593999997E+02  0.45594000000E+02  0.51100000000E-03 0.  1.
         11   -1    0    0    0    0 -0.00000000000E+00 -0.00000000000E+00 -0.45593999997E+02  0.45594000000E+02  0.51100000000E-03 0. -1.
    9900012    2    1    2    0    0  0.15071162586E+02 -0.15233747871E+02 -0.37741407076E+02  0.47787299269E+02  0.20000128684E+02 0.  0.
        -12    1    1    2    0    0 -0.15071162586E+02  0.15233747871E+02  0.37741407076E+02  0.43400700731E+02  0.00000000000E+00 0.  1.
         11    1    3    3    0    0  0.78902578800E+01 -0.41407716914E+01 -0.24944687995E+02  0.26488480875E+02  0.51100000000E-03 0. -1.
        -11    1    3    3    0    0  0.39403428233E+01 -0.96891733078E+01 -0.14081133367E+02  0.17540943479E+02  0.51100000000E-03 0.  1.
        -12    1    3    3    0    0  0.32405618822E+01 -0.14038028723E+01  0.12844142865E+01  0.37578749149E+01  0.00000000000E+00 0.  1.
</event>
<event>
 7    1  0.3884463E-009  0.4778725E+02  0.7816164E-02  0.1312668E+00
        -11   -1    0    0    0    0  0.00000000000E+00  0.00000000000E+00  0.45593999997E+02  0.45594000000E+02  0.51100000000E-03 0.  1.
         11   -1    0    0    0    0 -0.00000000000E+00 -0.00000000000E+00 -0.45593999997E+02  0.45594000000E+02  0.51100000000E-03 0. -1.
    9900012    2    1    2    0    0  0.17616859183E+02  0.10944562947E+02 -0.38124631011E+02  0.47787254899E+02  0.19999926386E+02 0.  0.
        -12    1    1    2    0    0 -0.17616859183E+02 -0.10944562947E+02  0.38124631011E+02  0.43400745101E+02  0.00000000000E+00 0.  1.
         11    1    3    3    0    0  0.63842224670E+01  0.11814032756E+02 -0.29273907034E+02  0.32207006998E+02  0.51100000000E-03 0. -1.
        -11    1    3    3    0    0  0.15108843713E+01  0.12489473881E+01  0.39284472610E+00  0.19992419567E+01  0.51100000000E-03 0.  1.
         12    1    3    3    0    0  0.97217523451E+01 -0.21184171972E+01 -0.92435687036E+01  0.13581005944E+02  0.00000000000E+00 0. -1.
</event>
<event>
 7    1  0.3884463E-009  0.4778727E+02  0.7816164E-02  0.1312668E+00
        -11   -1    0    0    0    0  0.00000000000E+00  0.00000000000E+00  0.45593999997E+02  0.45594000000E+02  0.51100000000E-03 0.  1.
         11   -1    0    0    0    0 -0.00000000000E+00 -0.00000000000E+00 -0.45593999997E+02  0.45594000000E+02  0.51100000000E-03 0. -1.
    9900012    2    1    2    0    0 -0.64337281737E+01 -0.34284783089E+02 -0.25822160590E+02  0.47787272043E+02  0.20000004553E+02 0.  0.
        -12    1    1    2    0    0  0.64337281737E+01  0.34284783089E+02  0.25822160590E+02  0.43400727957E+02  0.00000000000E+00 0.  1.
         11    1    3    3    0    0  0.71900703293E+00 -0.22113332433E+02 -0.20781247654E+02  0.30354187466E+02  0.51100000000E-03 0. -1.
        -11    1    3    3    0    0  0.64071080524E+00 -0.51166082841E+01 -0.46022175331E+01  0.69116276774E+01  0.51100000000E-03 0.  1.
        -12    1    3    3    0    0 -0.77934460118E+01 -0.70548423720E+01 -0.43869540288E+00  0.10521456900E+02  0.00000000000E+00 0.  1.
</event>
<event>
 7    1  0.3884463E-009  0.4778726E+02  0.7816164E-02  0.1312668E+00
        -11   -1    0    0    0    0  0.00000000000E+00  0.00000000000E+00  0.45593999997E+02  0.45594000000E+02  0.51100000000E-03 0.  1.
         11   -1    0    0    0    0 -0.00000000000E+00 -0.00000000000E+00 -0.45593999997E+02  0.45594000000E+02  0.51100000000E-03 0. -1.
    9900012    2    1    2    0    0 -0.32966981672E+02  0.26780084204E+02 -0.89235459934E+01  0.47787257338E+02  0.19999937506E+02 0.  0.
        -12    1    1    2    0    0  0.32966981672E+02 -0.26780084204E+02  0.89235459934E+01  0.43400742662E+02  0.00000000000E+00 0.  1.
         11    1    3    3    0    0 -0.31043906817E+02  0.24766774476E+02 -0.71388230929E+01  0.40349474145E+02  0.51100000000E-03 0. -1.
        -11    1    3    3    0    0 -0.40688887379E+01 -0.27988881435E+00 -0.93579224392E+00  0.41844833247E+01  0.51100000000E-03 0.  1.
         12    1    3    3    0    0  0.21458138824E+01  0.22931985419E+01 -0.84893065655E+00  0.32532998678E+01  0.00000000000E+00 0. -1.
</event>
<event>
 7    1  0.3884463E-009  0.4778726E+02  0.7816164E-02  0.1312668E+00
        -11   -1    0    0    0    0  0.00000000000E+00  0.00000000000E+00  0.45593999997E+02  0.45594000000E+02  0.51100000000E-03 0. -1.
         11   -1    0    0    0    0 -0.00000000000E+00 -0.00000000000E+00 -0.45593999997E+02  0.45594000000E+02  0.51100000000E-03 0.  1.
    9900012    2    1    2    0    0  0.28674053507E+02  0.32313678103E+02  0.41531596957E+01  0.47787264148E+02  0.19999968556E+02 0.  0.
        -12    1    1    2    0    0 -0.28674053507E+02 -0.32313678103E+02 -0.41531596957E+01  0.43400735852E+02  0.00000000000E+00 0.  1.
         11    1    3    3    0    0  0.20070872711E+02  0.10967695079E+02  0.62484329573E+01  0.23710191510E+02  0.51100000000E-03 0. -1.
        -11    1    3    3    0    0 -0.74896132418E+00  0.17588794593E+01  0.99136938944E+00  0.21534654734E+01  0.51100000000E-03 0.  1.
         12    1    3    3    0    0  0.93521421200E+01  0.19587103564E+02 -0.30866426510E+01  0.21923607165E+02  0.00000000000E+00 0. -1.
</event>
<event>
 7    1  0.3884463E-009  0.4778727E+02  0.7816164E-02  0.1312668E+00
        -11   -1    0    0    0    0  0.00000000000E+00  0.00000000000E+00  0.45593999997E+02  0.45594000000E+02  0.51100000000E-03 0. -1.
         11   -1    0    0    0    0 -0.00000000000E+00 -0.00000000000E+00 -0.45593999997E+02  0.45594000000E+02  0.51100000000E-03 0.  1.
    9900012    2    1    2    0    0 -0.20113031933E+02  0.30645634596E+02  0.23236491653E+02  0.47787268235E+02  0.19999987192E+02 0.  0.
        -12    1    1    2    0    0  0.20113031933E+02 -0.30645634596E+02 -0.23236491653E+02  0.43400731765E+02  0.00000000000E+00 0.  1.
         11    1    3    3    0    0 -0.72155155526E+01  0.23304678387E+02  0.17450892471E+02  0.29995088726E+02  0.51100000000E-03 0. -1.
        -11    1    3    3    0    0 -0.45356204825E+01  0.39256089785E+01 -0.15050447993E+01  0.61844497833E+01  0.51100000000E-03 0.  1.
        -12    1    3    3    0    0 -0.83618958979E+01  0.34153472310E+01  0.72906439816E+01  0.11607729726E+02  0.00000000000E+00 0.  1.
</event>
<event>
 7    1  0.3884463E-009  0.4778727E+02  0.7816164E-02  0.1312668E+00
        -11   -1    0    0    0    0  0.00000000000E+00  0.00000000000E+00  0.45593999997E+02  0.45594000000E+02  0.51100000000E-03 0. -1.
         11   -1    0    0    0    0 -0.00000000000E+00 -0.00000000000E+00 -0.45593999997E+02  0.45594000000E+02  0.51100000000E-03 0.  1.
    9900012    2    1    2    0    0 -0.25779480733E+02 -0.31565381542E+02  0.14922075351E+02  0.47787271071E+02  0.20000000123E+02 0.  0.
        -12    1    1    2    0    0  0.25779480733E+02  0.31565381542E+02 -0.14922075351E+02  0.43400728929E+02  0.00000000000E+00 0.  1.
         11    1    3    3    0    0 -0.85574124896E+01 -0.16016074067E+02  0.33458223584E+01  0.18464519072E+02  0.51100000000E-03 0. -1.
        -11    1    3    3    0    0 -0.15626504317E+02 -0.96832068582E+01  0.27241882368E+01  0.18584222718E+02  0.51100000000E-03 0.  1.
         12    1    3    3    0    0 -0.15955639265E+01 -0.58661006168E+01  0.88520647555E+01  0.10738529281E+02  0.00000000000E+00 0. -1.
</event>
<event>
 7    1  0.3884463E-009  0.4778727E+02  0.7816164E-02  0.1312668E+00
        -11   -1    0    0    0    0  0.00000000000E+00  0.00000000000E+00  0.45593999997E+02  0.45594000000E+02  0.51100000000E-03 0. -1.
         11   -1    0    0    0    0 -0.00000000000E+00 -0.00000000000E+00 -0.45593999997E+02  0.45594000000E+02  0.51100000000E-03 0.  1.
    9900012    2    1    2    0    0 -0.14035867424E+02  0.38173189624E+01  0.40890653855E+02  0.47787273381E+02  0.20000010653E+02 0.  0.
        -12    1    1    2    0    0  0.14035867424E+02 -0.38173189624E+01 -0.40890653855E+02  0.43400726619E+02  0.00000000000E+00 0.  1.
         11    1    3    3    0    0 -0.99034086777E+01  0.22564686432E+01  0.20094331841E+02  0.22515579641E+02  0.51100000000E-03 0. -1.
        -11    1    3    3    0    0 -0.57131197195E+01 -0.49808066549E+01  0.12055628206E+02  0.14240307004E+02  0.51100000000E-03 0.  1.
        -12    1    3    3    0    0  0.15806609735E+01  0.65416569740E+01  0.87406938079E+01  0.11031386736E+02  0.00000000000E+00 0.  1.
</event>
<event>
 7    1  0.3884463E-009  0.4778726E+02  0.7816164E-02  0.1312668E+00
        -11   -1    0    0    0    0  0.00000000000E+00  0.00000000000E+00  0.45593999997E+02  0.45594000000E+02  0.51100000000E-03 0. -1.
         11   -1    0    0    0    0 -0.00000000000E+00 -0.00000000000E+00 -0.45593999997E+02  0.45594000000E+02  0.51100000000E-03 0.  1.
    9900012    2    1    2    0    0 -0.21946888808E+02  0.27609738009E+02  0.25291507646E+02  0.47787263597E+02  0.19999966045E+02 0.  0.
        -12    1    1    2    0    0  0.21946888808E+02 -0.27609738009E+02 -0.25291507646E+02  0.43400736403E+02  0.00000000000E+00 0.  1.
         11    1    3    3    0    0 -0.13981103329E+02  0.19520831980E+02  0.94666432842E+01  0.25809910244E+02  0.51100000000E-03 0. -1.
        -11    1    3    3    0    0 -0.10084999967E+02  0.82525214695E+01  0.12685137058E+02  0.18185819678E+02  0.51100000000E-03 0.  1.
        -12    1    3    3    0    0  0.21192144881E+01 -0.16361544060E+00  0.31397273045E+01  0.37915336746E+01  0.00000000000E+00 0.  1.
</event>
<event>
 7    1  0.3884463E-009  0.4778728E+02  0.7816164E-02  0.1312668E+00
        -11   -1    0    0    0    0  0.00000000000E+00  0.00000000000E+00  0.45593999997E+02  0.45594000000E+02  0.51100000000E-03 0.  1.
         11   -1    0    0    0    0 -0.00000000000E+00 -0.00000000000E+00 -0.45593999997E+02  0.45594000000E+02  0.51100000000E-03 0. -1.
    9900012    2    1    2    0    0 -0.19915113834E+02  0.36293823981E+02 -0.13029555433E+02  0.47787277276E+02  0.20000028414E+02 0.  0.
        -12    1    1    2    0    0  0.19915113834E+02 -0.36293823981E+02  0.13029555433E+02  0.43400722724E+02  0.00000000000E+00 0.  1.
         11    1    3    3    0    0 -0.29162306555E+01  0.68124250520E+01  0.30652293645E+01  0.80192996978E+01  0.51100000000E-03 0.  1.
        -11    1    3    3    0    0 -0.13119975259E+02  0.11022341688E+02 -0.48515343217E+01  0.17809075008E+02  0.51100000000E-03 0. -1.
         12    1    3    3    0    0 -0.38789079192E+01  0.18459057240E+02 -0.11243250476E+02  0.21958902571E+02  0.00000000000E+00 0. -1.
</event>
<event>
 7    1  0.3884463E-009  0.4778727E+02  0.7816164E-02  0.1312668E+00
        -11   -1    0    0    0    0  0.00000000000E+00  0.00000000000E+00  0.45593999997E+02  0.45594000000E+02  0.51100000000E-03 0. -1.
         11   -1    0    0    0    0 -0.00000000000E+00 -0.00000000000E+00 -0.45593999997E+02  0.45594000000E+02  0.51100000000E-03 0.  1.
    9900012    2    1    2    0    0  0.12961700599E+02 -0.20929327946E+02  0.35743267654E+02  0.47787266904E+02  0.19999981121E+02 0.  0.
        -12    1    1    2    0    0 -0.12961700599E+02  0.20929327946E+02 -0.35743267654E+02  0.43400733096E+02  0.00000000000E+00 0.  1.
         11    1    3    3    0    0  0.11452840899E+02 -0.10615275571E+02  0.14631728994E+02  0.21399512465E+02  0.51100000000E-03 0. -1.
        -11    1    3    3    0    0  0.55121108707E+01 -0.75634996281E+01  0.76856543971E+01  0.12110292179E+02  0.51100000000E-03 0.  1.
        -12    1    3    3    0    0 -0.40032511709E+01 -0.27505527468E+01  0.13425884263E+02  0.14277462260E+02  0.00000000000E+00 0.  1.
</event>
<event>
 7    1  0.3884463E-009  0.4778727E+02  0.7816164E-02  0.1312668E+00
        -11   -1    0    0    0    0  0.00000000000E+00  0.00000000000E+00  0.45593999997E+02  0.45594000000E+02  0.51100000000E-03 0.  1.
         11   -1    0    0    0    0 -0.00000000000E+00 -0.00000000000E+00 -0.45593999997E+02  0.45594000000E+02  0.51100000000E-03 0. -1.
    9900012    2    1    2    0    0  0.30603782619E+02 -0.22453888096E+02 -0.21044114106E+02  0.47787270286E+02  0.19999996541E+02 0.  0.
        -12    1    1    2    0    0 -0.30603782619E+02  0.22453888096E+02  0.21044114106E+02  0.43400729714E+02  0.00000000000E+00 0.  1.
         11    1    3    3    0    0  0.36964057257E+01 -0.14686661954E+01 -0.40697668369E+01  0.56906412688E+01  0.51100000000E-03 0. -1.
        -11    1    3    3    0    0  0.10025398292E+02 -0.32048803343E+01  0.24616726665E+01  0.10809241484E+02  0.51100000000E-03 0.  1.
        -12    1    3    3    0    0  0.16881978601E+02 -0.17780341567E+02 -0.19436019936E+02  0.31287387533E+02  0.00000000000E+00 0.  1.
</event>
<event>
 7    1  0.3884463E-009  0.4778727E+02  0.7816164E-02  0.1312668E+00
        -11   -1    0    0    0    0  0.00000000000E+00  0.00000000000E+00  0.45593999997E+02  0.45594000000E+02  0.51100000000E-03 0. -1.
         11   -1    0    0    0    0 -0.00000000000E+00 -0.00000000000E+00 -0.45593999997E+02  0.45594000000E+02  0.51100000000E-03 0.  1.
    9900012    2    1    2    0    0  0.31001309503E+02 -0.25234341810E+02  0.16904737157E+02  0.47787270331E+02  0.19999996747E+02 0.  0.
        -12    1    1    2    0    0 -0.31001309503E+02  0.25234341810E+02 -0.16904737157E+02  0.43400729669E+02  0.00000000000E+00 0.  1.
         11    1    3    3    0    0  0.17002922872E+02 -0.15980977857E+02  0.11943245081E+02  0.26213205504E+02  0.51100000000E-03 0. -1.
        -11    1    3    3    0    0  0.22151741073E+01 -0.48214430172E+01  0.70388609651E+01  0.88146964237E+01  0.51100000000E-03 0.  1.
        -12    1    3    3    0    0  0.11783212524E+02 -0.44319209352E+01 -0.20773688890E+01  0.12759368404E+02  0.00000000000E+00 0.  1.
</event>
<event>
 7    1  0.3884463E-009  0.4778727E+02  0.7816164E-02  0.1312668E+00
        -11   -1    0    0    0    0  0.00000000000E+00  0.00000000000E+00  0.45593999997E+02  0.45594000000E+02  0.51100000000E-03 0.  1.
         11   -1    0    0    0    0 -0.00000000000E+00 -0.00000000000E+00 -0.45593999997E+02  0.45594000000E+02  0.51100000000E-03 0. -1.
    9900012    2    1    2    0    0  0.37095233693E+02  0.17896274139E+02 -0.13685407557E+02  0.47787269928E+02  0.19999994911E+02 0.  0.
        -12    1    1    2    0    0 -0.37095233693E+02 -0.17896274139E+02  0.13685407557E+02  0.43400730072E+02  0.00000000000E+00 0.  1.
         11    1    3    3    0    0  0.86694354677E+01  0.13884675728E+02 -0.79391415693E+01  0.18192671615E+02  0.51100000000E-03 0. -1.
        -11    1    3    3    0    0  0.37781745518E+01  0.27204731796E+00  0.68339835666E+00  0.38491098012E+01  0.51100000000E-03 0.  1.
         12    1    3    3    0    0  0.24647623673E+02  0.37395510931E+01 -0.64296643449E+01  0.25745488512E+02  0.00000000000E+00 0. -1.
</event>
<event>
 7    1  0.3884463E-009  0.4778727E+02  0.7816164E-02  0.1312668E+00
        -11   -1    0    0    0    0  0.00000000000E+00  0.00000000000E+00  0.45593999997E+02  0.45594000000E+02  0.51100000000E-03 0.  1.
         11   -1    0    0    0    0 -0.00000000000E+00 -0.00000000000E+00 -0.45593999997E+02  0.45594000000E+02  0.51100000000E-03 0. -1.
    9900012    2    1    2    0    0  0.33396932101E+02 -0.21758779464E+02 -0.17170428571E+02  0.47787272186E+02  0.20000005203E+02 0.  0.
        -12    1    1    2    0    0 -0.33396932101E+02  0.21758779464E+02  0.17170428571E+02  0.43400727814E+02  0.00000000000E+00 0.  1.
         11    1    3    3    0    0  0.12750601069E+02 -0.92894705487E+01 -0.16098593845E+02  0.22539672020E+02  0.51100000000E-03 0. -1.
        -11    1    3    3    0    0  0.13109324310E+02 -0.59676051620E+01 -0.38575416834E+01  0.14911315279E+02  0.51100000000E-03 0.  1.
        -12    1    3    3    0    0  0.75370067216E+01 -0.65017037535E+01  0.27857069579E+01  0.10336284888E+02  0.00000000000E+00 0.  1.
</event>
<event>
 7    1  0.3884463E-009  0.4778727E+02  0.7816164E-02  0.1312668E+00
        -11   -1    0    0    0    0  0.00000000000E+00  0.00000000000E+00  0.45593999997E+02  0.45594000000E+02  0.51100000000E-03 0.  1.
         11   -1    0    0    0    0 -0.00000000000E+00 -0.00000000000E+00 -0.45593999997E+02  0.45594000000E+02  0.51100000000E-03 0. -1.
    9900012    2    1    2    0    0 -0.63075936417E+01 -0.13825649341E+02 -0.40653274833E+02  0.47787273371E+02  0.20000010609E+02 0.  0.
        -12    1    1    2    0    0  0.63075936417E+01  0.13825649341E+02  0.40653274833E+02  0.43400726629E+02  0.00000000000E+00 0.  1.
         11    1    3    3    0    0  0.10887123873E+01 -0.10981687527E+02 -0.13515929956E+02  0.17448871552E+02  0.51100000000E-03 0. -1.
        -11    1    3    3    0    0 -0.39013637788E+01 -0.62539071717E+01 -0.94234193575E+01  0.11963813226E+02  0.51100000000E-03 0.  1.
        -12    1    3    3    0    0 -0.34949422502E+01  0.34099453577E+01 -0.17713925520E+02  0.18374588594E+02  0.00000000000E+00 0.  1.
</event>
<event>
 7    1  0.3884463E-009  0.4778727E+02  0.7816164E-02  0.1312668E+00
        -11   -1    0    0    0    0  0.00000000000E+00  0.00000000000E+00  0.45593999997E+02  0.45594000000E+02  0.51100000000E-03 0.  1.
         11   -1    0    0    0    0 -0.00000000000E+00 -0.00000000000E+00 -0.45593999997E+02  0.45594000000E+02  0.51100000000E-03 0. -1.
    9900012    2    1    2    0    0 -0.35926825748E+02  0.58121970657E+01 -0.23645395431E+02  0.47787272262E+02  0.20000005553E+02 0.  0.
        -12    1    1    2    0    0  0.35926825748E+02 -0.58121970657E+01  0.23645395431E+02  0.43400727738E+02  0.00000000000E+00 0.  1.
         11    1    3    3    0    0 -0.63504238213E+01 -0.27904377333E+01 -0.13571156677E+02  0.15241086552E+02  0.51100000000E-03 0. -1.
        -11    1    3    3    0    0 -0.68612424728E+01  0.28641079763E+01 -0.34662314549E+01  0.82033239318E+01  0.51100000000E-03 0.  1.
         12    1    3    3    0    0 -0.22715159454E+02  0.57385268227E+01 -0.66080072986E+01  0.24342861779E+02  0.00000000000E+00 0. -1.
</event>
<event>
 7    1  0.3884463E-009  0.4778727E+02  0.7816164E-02  0.1312668E+00
        -11   -1    0    0    0    0  0.00000000000E+00  0.00000000000E+00  0.45593999997E+02  0.45594000000E+02  0.51100000000E-03 0.  1.
         11   -1    0    0    0    0 -0.00000000000E+00 -0.00000000000E+00 -0.45593999997E+02  0.45594000000E+02  0.51100000000E-03 0. -1.
    9900012    2    1    2    0    0 -0.31176911341E+02  0.13252654734E+02 -0.27129144100E+02  0.47787272842E+02  0.20000008198E+02 0.  0.
        -12    1    1    2    0    0  0.31176911341E+02 -0.13252654734E+02  0.27129144100E+02  0.43400727158E+02  0.00000000000E+00 0.  1.
         11    1    3    3    0    0 -0.76889649304E+01  0.87483869623E+01 -0.64075062592E+01  0.13293253660E+02  0.51100000000E-03 0. -1.
        -11    1    3    3    0    0 -0.21641222682E+02  0.82081290561E+01 -0.15612614769E+02  0.27918983541E+02  0.51100000000E-03 0.  1.
        -12    1    3    3    0    0 -0.18467237280E+01 -0.37038612846E+01 -0.51090230717E+01  0.65750356418E+01  0.00000000000E+00 0.  1.
</event>
<event>
 7    1  0.3884463E-009  0.4778727E+02  0.7816164E-02  0.1312668E+00
        -11   -1    0    0    0    0  0.00000000000E+00  0.00000000000E+00  0.45593999997E+02  0.45594000000E+02  0.51100000000E-03 0. -1.
         11   -1    0    0    0    0 -0.00000000000E+00 -0.00000000000E+00 -0.45593999997E+02  0.45594000000E+02  0.51100000000E-03 0.  1.
    9900012    2    1    2    0    0 -0.20854174235E+02  0.19673075498E+02  0.32583688050E+02  0.47787271786E+02  0.20000003380E+02 0.  0.
        -12    1    1    2    0    0  0.20854174235E+02 -0.19673075498E+02 -0.32583688050E+02  0.43400728214E+02  0.00000000000E+00 0.  1.
         11    1    3    3    0    0 -0.13990689183E+02  0.11710264058E+02  0.23030934157E+02  0.29381858289E+02  0.51100000000E-03 0. -1.
        -11    1    3    3    0    0 -0.68495534647E+01 -0.67010279372E+00  0.57662515043E+01  0.89785899278E+01  0.51100000000E-03 0.  1.
        -12    1    3    3    0    0 -0.13931587423E-01  0.86329142336E+01  0.37865023885E+01  0.94268235685E+01  0.00000000000E+00 0.  1.
</event>
<event>
 7    1  0.3884463E-009  0.4778727E+02  0.7816164E-02  0.1312668E+00
        -11   -1    0    0    0    0  0.00000000000E+00  0.00000000000E+00  0.45593999997E+02  0.45594000000E+02  0.51100000000E-03 0.  1.
         11   -1    0    0    0    0 -0.00000000000E+00 -0.00000000000E+00 -0.45593999997E+02  0.45594000000E+02  0.51100000000E-03 0. -1.
    9900012    2    1    2    0    0  0.33484414210E+02  0.19966815163E+02 -0.19072066352E+02  0.47787269388E+02  0.19999992447E+02 0.  0.
        -12    1    1    2    0    0 -0.33484414210E+02 -0.19966815163E+02  0.19072066352E+02  0.43400730612E+02  0.00000000000E+00 0.  1.
         11    1    3    3    0    0  0.36466040016E+01  0.53296521126E+01 -0.96337666981E+01  0.11597946949E+02  0.51100000000E-03 0. -1.
        -11    1    3    3    0    0  0.17601703830E+02  0.89558775489E+01 -0.11004315426E+02  0.22608022440E+02  0.51100000000E-03 0.  1.
        -12    1    3    3    0    0  0.12236106378E+02  0.56812855015E+01  0.15660157723E+01  0.13581299998E+02  0.00000000000E+00 0.  1.
</event>
<event>
 7    1  0.3884463E-009  0.4778728E+02  0.7816164E-02  0.1312668E+00
        -11   -1    0    0    0    0  0.00000000000E+00  0.00000000000E+00  0.45593999997E+02  0.45594000000E+02  0.51100000000E-03 0.  1.
         11   -1    0    0    0    0 -0.00000000000E+00 -0.00000000000E+00 -0.45593999997E+02  0.45594000000E+02  0.51100000000E-03 0. -1.
    9900012    2    1    2    0    0  0.30531849952E+02  0.19897134410E+02  0.23569738967E+02  0.47787280948E+02  0.20000045155E+02 0.  0.
        -12    1    1    2    0    0 -0.30531849952E+02 -0.19897134410E+02 -0.23569738967E+02  0.43400719052E+02  0.00000000000E+00 0.  1.
         11    1    3    3    0    0  0.34168606361E+00  0.40633834946E+01  0.70700558023E+01  0.81617108562E+01  0.51100000000E-03 0.  1.
        -11    1    3    3    0    0  0.45592770327E+01  0.98678842322E+00  0.72007536980E+01  0.85797210056E+01  0.51100000000E-03 0. -1.
         12    1    3    3    0    0  0.25630886856E+02  0.14846962493E+02  0.92989294669E+01  0.31045849086E+02  0.00000000000E+00 0. -1.
</event>
<event>
 7    1  0.3884463E-009  0.4778728E+02  0.7816164E-02  0.1312668E+00
        -11   -1    0    0    0    0  0.00000000000E+00  0.00000000000E+00  0.45593999997E+02  0.45594000000E+02  0.51100000000E-03 0.  1.
         11   -1    0    0    0    0 -0.00000000000E+00 -0.00000000000E+00 -0.45593999997E+02  0.45594000000E+02  0.51100000000E-03 0. -1.
    9900012    2    1    2    0    0 -0.82066715507E+01 -0.13556813899E+02 -0.40404033119E+02  0.47787279345E+02  0.20000037848E+02 0.  0.
        -12    1    1    2    0    0  0.82066715507E+01  0.13556813899E+02  0.40404033119E+02  0.43400720655E+02  0.00000000000E+00 0.  1.
         11    1    3    3    0    0 -0.69851827865E+01 -0.81515868469E+01 -0.13924988909E+02  0.17582561334E+02  0.51100000000E-03 0. -1.
        -11    1    3    3    0    0 -0.36331288672E+01 -0.69397530115E+01 -0.26184555183E+02  0.27331131108E+02  0.51100000000E-03 0.  1.
        -12    1    3    3    0    0  0.24116401029E+01  0.15345259592E+01 -0.29448902658E+00  0.28735869035E+01  0.00000000000E+00 0.  1.
</event>
<event>
 7    1  0.3884463E-009  0.4778727E+02  0.7816164E-02  0.1312668E+00
        -11   -1    0    0    0    0  0.00000000000E+00  0.00000000000E+00  0.45593999997E+02  0.45594000000E+02  0.51100000000E-03 0. -1.
         11   -1    0    0    0    0 -0.00000000000E+00 -0.00000000000E+00 -0.45593999997E+02  0.45594000000E+02  0.51100000000E-03 0.  1.
    9900012    2    1    2    0    0 -0.16918799415E+02  0.31967020405E+02  0.23989313194E+02  0.47787270573E+02  0.19999997852E+02 0.  0.
        -12    1    1    2    0    0  0.16918799415E+02 -0.31967020405E+02 -0.23989313194E+02  0.43400729427E+02  0.00000000000E+00 0.  1.
         11    1    3    3    0    0 -0.30893182012E+01  0.84462366876E+01  0.18999476361E+01  0.91919857709E+01  0.51100000000E-03 0. -1.
        -11    1    3    3    0    0 -0.14347379325E+02  0.93990728125E+01  0.14998752652E+02  0.22784917042E+02  0.51100000000E-03 0.  1.
         12    1    3    3    0    0  0.51789811104E+00  0.14121710905E+02  0.70906129062E+01  0.15810367761E+02  0.00000000000E+00 0. -1.
</event>
<event>
 7    1  0.3884463E-009  0.4778728E+02  0.7816164E-02  0.1312668E+00
        -11   -1    0    0    0    0  0.00000000000E+00  0.00000000000E+00  0.45593999997E+02  0.45594000000E+02  0.51100000000E-03 0.  1.
         11   -1    0    0    0    0 -0.00000000000E+00 -0.00000000000E+00 -0.45593999997E+02  0.45594000000E+02  0.51100000000E-03 0. -1.
    9900012    2    1    2    0    0 -0.36719833455E+02 -0.11112862390E+02 -0.20292379598E+02  0.47787279393E+02  0.20000038062E+02 0.  0.
        -12    1    1    2    0    0  0.36719833455E+02  0.11112862390E+02  0.20292379598E+02  0.43400720607E+02  0.00000000000E+00 0.  1.
         11    1    3    3    0    0 -0.14847484327E+02 -0.56085779784E+01 -0.10592593993E+02  0.19081587606E+02  0.51100000000E-03 0. -1.
        -11    1    3    3    0    0 -0.14692317609E+02 -0.10681540891E+02 -0.64391675776E+01  0.19272321913E+02  0.51100000000E-03 0.  1.
        -12    1    3    3    0    0 -0.71800315185E+01  0.51772564796E+01 -0.32606180274E+01  0.94333698742E+01  0.00000000000E+00 0.  1.
</event>
<event>
 7    1  0.3884463E-009  0.4778727E+02  0.7816164E-02  0.1312668E+00
        -11   -1    0    0    0    0  0.00000000000E+00  0.00000000000E+00  0.45593999997E+02  0.45594000000E+02  0.51100000000E-03 0.  1.
         11   -1    0    0    0    0 -0.00000000000E+00 -0.00000000000E+00 -0.45593999997E+02  0.45594000000E+02  0.51100000000E-03 0. -1.
    9900012    2    1    2    0    0 -0.21050053380E+02 -0.19019605242E+02 -0.32844678277E+02  0.47787273946E+02  0.20000013231E+02 0.  0.
        -12    1    1    2    0    0  0.21050053380E+02  0.19019605242E+02  0.32844678277E+02  0.43400726054E+02  0.00000000000E+00 0.  1.
         11    1    3    3    0    0 -0.32913942124E+00 -0.17490932289E+01 -0.47072190038E+01  0.50324517775E+01  0.51100000000E-03 0. -1.
        -11    1    3    3    0    0 -0.75726431190E+00 -0.11186200084E+02 -0.81856289532E+01  0.13881968275E+02  0.51100000000E-03 0.  1.
         12    1    3    3    0    0 -0.19963649647E+02 -0.60843119290E+01 -0.19951830320E+02  0.28872853894E+02  0.00000000000E+00 0. -1.
</event>
<event>
 7    1  0.3884463E-009  0.4778727E+02  0.7816164E-02  0.1312668E+00
        -11   -1    0    0    0    0  0.00000000000E+00  0.00000000000E+00  0.45593999997E+02  0.45594000000E+02  0.51100000000E-03 0.  1.
         11   -1    0    0    0    0 -0.00000000000E+00 -0.00000000000E+00 -0.45593999997E+02  0.45594000000E+02  0.51100000000E-03 0. -1.
    9900012    2    1    2    0    0  0.14650555624E+02  0.19807258139E+02 -0.35730336987E+02  0.47787271477E+02  0.20000001973E+02 0.  0.
        -12    1    1    2    0    0 -0.14650555624E+02 -0.19807258139E+02  0.35730336987E+02  0.43400728523E+02  0.00000000000E+00 0.  1.
         11    1    3    3    0    0 -0.11066982379E+01  0.25439465719E+01 -0.32761490433E+01  0.42929707623E+01  0.51100000000E-03 0. -1.
        -11    1    3    3    0    0  0.41420224828E+01  0.25350058168E+00  0.94369704043E+00  0.42557228714E+01  0.51100000000E-03 0.  1.
         12    1    3    3    0    0  0.11615231380E+02  0.17009810986E+02 -0.33397884984E+02  0.39238577844E+02  0.00000000000E+00 0. -1.
</event>
<event>
 7    1  0.3884463E-009  0.4778728E+02  0.7816164E-02  0.1312668E+00
        -11   -1    0    0    0    0  0.00000000000E+00  0.00000000000E+00  0.45593999997E+02  0.45594000000E+02  0.51100000000E-03 0. -1.
         11   -1    0    0    0    0 -0.00000000000E+00 -0.00000000000E+00 -0.45593999997E+02  0.45594000000E+02  0.51100000000E-03 0.  1.
    9900012    2    1    2    0    0  0.25763857382E+01  0.12323985693E+02  0.41534374830E+02  0.47787277893E+02  0.20000031227E+02 0.  0.
        -12    1    1    2    0    0 -0.25763857382E+01 -0.12323985693E+02 -0.41534374830E+02  0.43400722107E+02  0.00000000000E+00 0.  1.
         11    1    3    3    0    0  0.21795087148E+01  0.20786684517E+01  0.21253483678E+01  0.36862211974E+01  0.51100000000E-03 0. -1.
        -11    1    3    3    0    0 -0.57714352378E+01 -0.14387168089E+01  0.75537935169E+01  0.96145289806E+01  0.51100000000E-03 0.  1.
         12    1    3    3    0    0  0.61683122612E+01  0.11684034051E+02  0.31855232946E+02  0.34486527715E+02  0.00000000000E+00 0. -1.
</event>
<event>
 7    1  0.3884463E-009  0.4778727E+02  0.7816164E-02  0.1312668E+00
        -11   -1    0    0    0    0  0.00000000000E+00  0.00000000000E+00  0.45593999997E+02  0.45594000000E+02  0.51100000000E-03 0.  1.
         11   -1    0    0    0    0 -0.00000000000E+00 -0.00000000000E+00 -0.45593999997E+02  0.45594000000E+02  0.51100000000E-03 0. -1.
    9900012    2    1    2    0    0 -0.59338181962E+01  0.40978209949E+02 -0.13007677437E+02  0.47787267733E+02  0.19999984900E+02 0.  0.
        -12    1    1    2    0    0  0.59338181962E+01 -0.40978209949E+02  0.13007677437E+02  0.43400732267E+02  0.00000000000E+00 0.  1.
         11    1    3    3    0    0 -0.56579140773E+00  0.13888271837E+02  0.31451287804E+01  0.14251177139E+02  0.51100000000E-03 0. -1.
        -11    1    3    3    0    0 -0.61594431111E+01  0.80772865018E+01 -0.37806605448E+01  0.10838574218E+02  0.51100000000E-03 0.  1.
         12    1    3    3    0    0  0.79141632271E+00  0.19012651610E+02 -0.12372145673E+02  0.22697516375E+02  0.00000000000E+00 0. -1.
</event>
<event>
 7    1  0.3884463E-009  0.4778726E+02  0.7816164E-02  0.1312668E+00
        -11   -1    0    0    0    0  0.00000000000E+00  0.00000000000E+00  0.45593999997E+02  0.45594000000E+02  0.51100000000E-03 0. -1.
         11   -1    0    0    0    0 -0.00000000000E+00 -0.00000000000E+00 -0.45593999997E+02  0.45594000000E+02  0.51100000000E-03 0.  1.
    9900012    2    1    2    0    0 -0.21877364327E+01  0.37109450277E+02  0.22399260252E+02  0.47787258642E+02  0.19999943453E+02 0.  0.
        -12    1    1    2    0    0  0.21877364327E+01 -0.37109450277E+02 -0.22399260252E+02  0.43400741358E+02  0.00000000000E+00 0.  1.
         11    1    3    3    0    0 -0.18440837108E+01  0.16507354909E+01 -0.76427373831E+00  0.25903063528E+01  0.51100000000E-03 0. -1.
        -11    1    3    3    0    0 -0.64381274933E+01  0.77858067814E+01  0.34406520648E+01  0.10672692245E+02  0.51100000000E-03 0.  1.
         12    1    3    3    0    0  0.60944747714E+01  0.27672908005E+02  0.19722881926E+02  0.34524260045E+02  0.00000000000E+00 0. -1.
</event>
<event>
 7    1  0.3884463E-009  0.4778727E+02  0.7816164E-02  0.1312668E+00
        -11   -1    0    0    0    0  0.00000000000E+00  0.00000000000E+00  0.45593999997E+02  0.45594000000E+02  0.51100000000E-03 0.  1.
         11   -1    0    0    0    0 -0.00000000000E+00 -0.00000000000E+00 -0.45593999997E+02  0.45594000000E+02  0.51100000000E-03 0. -1.
    9900012    2    1    2    0    0  0.52060663714E+01 -0.30113936312E+02 -0.30816732707E+02  0.47787270720E+02  0.19999998521E+02 0.  0.
        -12    1    1    2    0    0 -0.52060663714E+01  0.30113936312E+02  0.30816732707E+02  0.43400729280E+02  0.00000000000E+00 0.  1.
         11    1    3    3    0    0  0.49736950789E+01 -0.26196651039E+02 -0.19682962597E+02  0.33142437829E+02  0.51100000000E-03 0. -1.
        -11    1    3    3    0    0 -0.22023225140E+01 -0.56496554242E+01 -0.94119297478E+01  0.11196126683E+02  0.51100000000E-03 0.  1.
        -12    1    3    3    0    0  0.24346938064E+01  0.17323701513E+01 -0.17218403622E+01  0.34487062074E+01  0.00000000000E+00 0.  1.
</event>
<event>
 7    1  0.3884463E-009  0.4778727E+02  0.7816164E-02  0.1312668E+00
        -11   -1    0    0    0    0  0.00000000000E+00  0.00000000000E+00  0.45593999997E+02  0.45594000000E+02  0.51100000000E-03 0.  1.
         11   -1    0    0    0    0 -0.00000000000E+00 -0.00000000000E+00 -0.45593999997E+02  0.45594000000E+02  0.51100000000E-03 0. -1.
    9900012    2    1    2    0    0  0.36015999049E+02 -0.10119065519E+02  0.22001723146E+02  0.47787268487E+02  0.19999988339E+02 0.  0.
        -12    1    1    2    0    0 -0.36015999049E+02  0.10119065519E+02 -0.22001723146E+02  0.43400731513E+02  0.00000000000E+00 0.  1.
         11    1    3    3    0    0  0.79072834367E+00 -0.56108520519E+00 -0.34247009566E+00  0.10282771749E+01  0.51100000000E-03 0. -1.
        -11    1    3    3    0    0  0.11322208393E+02  0.12624234790E+00  0.16992227123E+02  0.20419209654E+02  0.51100000000E-03 0.  1.
         12    1    3    3    0    0  0.23903062312E+02 -0.96842226612E+01  0.53519661189E+01  0.26339781658E+02  0.00000000000E+00 0. -1.
</event>
<event>
 7    1  0.3884463E-009  0.4778727E+02  0.7816164E-02  0.1312668E+00
        -11   -1    0    0    0    0  0.00000000000E+00  0.00000000000E+00  0.45593999997E+02  0.45594000000E+02  0.51100000000E-03 0.  1.
         11   -1    0    0    0    0 -0.00000000000E+00 -0.00000000000E+00 -0.45593999997E+02  0.45594000000E+02  0.51100000000E-03 0. -1.
    9900012    2    1    2    0    0 -0.21716915032E+02 -0.23350628530E+02 -0.29440573372E+02  0.47787267153E+02  0.19999982255E+02 0.  0.
        -12    1    1    2    0    0  0.21716915032E+02  0.23350628530E+02  0.29440573372E+02  0.43400732847E+02  0.00000000000E+00 0.  1.
         11    1    3    3    0    0 -0.75429016824E+01 -0.12280383822E+02 -0.20378010883E+02  0.24959297274E+02  0.51100000000E-03 0. -1.
        -11    1    3    3    0    0 -0.63466570996E+01 -0.52287797020E+00 -0.71170716738E+01  0.95501919972E+01  0.51100000000E-03 0.  1.
         12    1    3    3    0    0 -0.78273562496E+01 -0.10547366737E+02 -0.19454908152E+01  0.13277777881E+02  0.00000000000E+00 0. -1.
</event>
<event>
 7    1  0.3884463E-009  0.4778727E+02  0.7816164E-02  0.1312668E+00
        -11   -1    0    0    0    0  0.00000000000E+00  0.00000000000E+00  0.45593999997E+02  0.45594000000E+02  0.51100000000E-03 0.  1.
         11   -1    0    0    0    0 -0.00000000000E+00 -0.00000000000E+00 -0.45593999997E+02  0.45594000000E+02  0.51100000000E-03 0. -1.
    9900012    2    1    2    0    0  0.23224889225E+02 -0.25833193038E+02 -0.26016798611E+02  0.47787272448E+02  0.20000006401E+02 0.  0.
        -12    1    1    2    0    0 -0.23224889225E+02  0.25833193038E+02  0.26016798611E+02  0.43400727552E+02  0.00000000000E+00 0.  1.
         11    1    3    3    0    0  0.26222786730E+00 -0.60871544146E+01 -0.19195793226E+01  0.63880354850E+01  0.51100000000E-03 0. -1.
        -11    1    3    3    0    0  0.14255324554E+02 -0.17239408941E+02 -0.96874377051E+01  0.24377406514E+02  0.51100000000E-03 0.  1.
         12    1    3    3    0    0  0.87073368043E+01 -0.25066296818E+01 -0.14409781583E+02  0.17021830450E+02  0.00000000000E+00 0. -1.
</event>
<event>
 7    1  0.3884463E-009  0.4778726E+02  0.7816164E-02  0.1312668E+00
        -11   -1    0    0    0    0  0.00000000000E+00  0.00000000000E+00  0.45593999997E+02  0.45594000000E+02  0.51100000000E-03 0.  1.
         11   -1    0    0    0    0 -0.00000000000E+00 -0.00000000000E+00 -0.45593999997E+02  0.45594000000E+02  0.51100000000E-03 0. -1.
    9900012    2    1    2    0    0 -0.31441009466E+02 -0.15702693020E+02 -0.25465901971E+02  0.47787264897E+02  0.19999971971E+02 0.  0.
        -12    1    1    2    0    0  0.31441009466E+02  0.15702693020E+02  0.25465901971E+02  0.43400735103E+02  0.00000000000E+00 0.  1.
         11    1    3    3    0    0 -0.14133574142E+02 -0.54044821905E+01 -0.15263324867E+02  0.21492683221E+02  0.51100000000E-03 0.  1.
        -11    1    3    3    0    0 -0.15861232721E+02 -0.10651627129E+02 -0.13011382234E+02  0.23115620948E+02  0.51100000000E-03 0. -1.
         12    1    3    3    0    0 -0.14462026035E+01  0.35341629955E+00  0.28088051303E+01  0.31789607282E+01  0.00000000000E+00 0. -1.
</event>
<event>
 7    1  0.3884463E-009  0.4778727E+02  0.7816164E-02  0.1312668E+00
        -11   -1    0    0    0    0  0.00000000000E+00  0.00000000000E+00  0.45593999997E+02  0.45594000000E+02  0.51100000000E-03 0. -1.
         11   -1    0    0    0    0 -0.00000000000E+00 -0.00000000000E+00 -0.45593999997E+02  0.45594000000E+02  0.51100000000E-03 0.  1.
    9900012    2    1    2    0    0 -0.81580687635E+01  0.42310356565E+02 -0.51868210390E+01  0.47787268773E+02  0.19999989642E+02 0.  0.
        -12    1    1    2    0    0  0.81580687635E+01 -0.42310356565E+02  0.51868210390E+01  0.43400731227E+02  0.00000000000E+00 0.  1.
         11    1    3    3    0    0 -0.83999359639E+00  0.79906510266E+01  0.45276449652E+01  0.92225626733E+01  0.51100000000E-03 0. -1.
        -11    1    3    3    0    0 -0.34004332147E+01  0.31747880648E+01  0.19945276479E+01  0.50616564584E+01  0.51100000000E-03 0.  1.
        -12    1    3    3    0    0 -0.39176419524E+01  0.31144917473E+02 -0.11708993652E+02  0.33503049641E+02  0.00000000000E+00 0.  1.
</event>
<event>
 7    1  0.3884463E-009  0.4778727E+02  0.7816164E-02  0.1312668E+00
        -11   -1    0    0    0    0  0.00000000000E+00  0.00000000000E+00  0.45593999997E+02  0.45594000000E+02  0.51100000000E-03 0. -1.
         11   -1    0    0    0    0 -0.00000000000E+00 -0.00000000000E+00 -0.45593999997E+02  0.45594000000E+02  0.51100000000E-03 0.  1.
    9900012    2    1    2    0    0  0.21651739558E+02 -0.16963695186E+02  0.33571687578E+02  0.47787274349E+02  0.20000015067E+02 0.  0.
        -12    1    1    2    0    0 -0.21651739558E+02  0.16963695186E+02 -0.33571687578E+02  0.43400725651E+02  0.00000000000E+00 0.  1.
         11    1    3    3    0    0  0.46591559181E+01 -0.13309701056E+02  0.17031564110E+02  0.22111762760E+02  0.51100000000E-03 0. -1.
        -11    1    3    3    0    0 -0.32421644546E+00 -0.22309653646E+01  0.16633108110E+01  0.28015934531E+01  0.51100000000E-03 0.  1.
        -12    1    3    3    0    0  0.17316800085E+02 -0.14230287648E+01  0.14876812657E+02  0.22873918136E+02  0.00000000000E+00 0.  1.
</event>
<event>
 7    1  0.3884463E-009  0.4778727E+02  0.7816164E-02  0.1312668E+00
        -11   -1    0    0    0    0  0.00000000000E+00  0.00000000000E+00  0.45593999997E+02  0.45594000000E+02  0.51100000000E-03 0. -1.
         11   -1    0    0    0    0 -0.00000000000E+00 -0.00000000000E+00 -0.45593999997E+02  0.45594000000E+02  0.51100000000E-03 0.  1.
    9900012    2    1    2    0    0  0.98351249160E+01 -0.26183676032E+02  0.33185970211E+02  0.47787271994E+02  0.20000004328E+02 0.  0.
        -12    1    1    2    0    0 -0.98351249160E+01  0.26183676032E+02 -0.33185970211E+02  0.43400728006E+02  0.00000000000E+00 0.  1.
         11    1    3    3    0    0  0.11617729579E+02 -0.16592030397E+02  0.21967585850E+02  0.29880460867E+02  0.51100000000E-03 0. -1.
        -11    1    3    3    0    0 -0.34261862438E+00 -0.11265417112E+02  0.10894243102E+02  0.15675188779E+02  0.51100000000E-03 0.  1.
         12    1    3    3    0    0 -0.14399860383E+01  0.16737714771E+01  0.32414125828E+00  0.22316223479E+01  0.00000000000E+00 0. -1.
</event>
<event>
 7    1  0.3884463E-009  0.4778727E+02  0.7816164E-02  0.1312668E+00
        -11   -1    0    0    0    0  0.00000000000E+00  0.00000000000E+00  0.45593999997E+02  0.45594000000E+02  0.51100000000E-03 0.  1.
         11   -1    0    0    0    0 -0.00000000000E+00 -0.00000000000E+00 -0.45593999997E+02  0.45594000000E+02  0.51100000000E-03 0. -1.
    9900012    2    1    2    0    0 -0.12125162028E+02 -0.23667707689E+02 -0.34299326610E+02  0.47787265590E+02  0.19999975129E+02 0.  0.
        -12    1    1    2    0    0  0.12125162028E+02  0.23667707689E+02  0.34299326610E+02  0.43400734410E+02  0.00000000000E+00 0.  1.
         11    1    3    3    0    0  0.21793273449E+01 -0.66376486497E+01 -0.83990965671E+01  0.10924864790E+02  0.51100000000E-03 0. -1.
        -11    1    3    3    0    0  0.18170124338E+01 -0.60365403031E+01 -0.37171243243E+01  0.73183581847E+01  0.51100000000E-03 0.  1.
        -12    1    3    3    0    0 -0.16121501807E+02 -0.10993518736E+02 -0.22183105719E+02  0.29544042615E+02  0.00000000000E+00 0.  1.
</event>
<event>
 7    1  0.3884463E-009  0.4778727E+02  0.7816164E-02  0.1312668E+00
        -11   -1    0    0    0    0  0.00000000000E+00  0.00000000000E+00  0.45593999997E+02  0.45594000000E+02  0.51100000000E-03 0.  1.
         11   -1    0    0    0    0 -0.00000000000E+00 -0.00000000000E+00 -0.45593999997E+02  0.45594000000E+02  0.51100000000E-03 0. -1.
    9900012    2    1    2    0    0  0.38316222269E+01  0.28073300499E+02 -0.32876003897E+02  0.47787272333E+02  0.20000005875E+02 0.  0.
        -12    1    1    2    0    0 -0.38316222269E+01 -0.28073300499E+02  0.32876003897E+02  0.43400727667E+02  0.00000000000E+00 0.  1.
         11    1    3    3    0    0 -0.94183563111E+00  0.22865521756E+02 -0.12879693832E+02  0.26260343734E+02  0.51100000000E-03 0. -1.
        -11    1    3    3    0    0  0.16869757862E+01  0.25696509460E+00 -0.21128292544E+01  0.27158729872E+01  0.51100000000E-03 0.  1.
         12    1    3    3    0    0  0.30864820718E+01  0.49508136485E+01 -0.17883480810E+02  0.18811055612E+02  0.00000000000E+00 0. -1.
</event>
<event>
 7    1  0.3884463E-009  0.4778727E+02  0.7816164E-02  0.1312668E+00
        -11   -1    0    0    0    0  0.00000000000E+00  0.00000000000E+00  0.45593999997E+02  0.45594000000E+02  0.51100000000E-03 0.  1.
         11   -1    0    0    0    0 -0.00000000000E+00 -0.00000000000E+00 -0.45593999997E+02  0.45594000000E+02  0.51100000000E-03 0. -1.
    9900012    2    1    2    0    0 -0.42857549979E+02  0.37846046196E+00 -0.68344948863E+01  0.47787272553E+02  0.20000006880E+02 0.  0.
        -12    1    1    2    0    0  0.42857549979E+02 -0.37846046196E+00  0.68344948863E+01  0.43400727447E+02  0.00000000000E+00 0.  1.
         11    1    3    3    0    0 -0.14700622334E+01  0.22213301922E-01 -0.39735939231E+01  0.42368650353E+01  0.51100000000E-03 0. -1.
        -11    1    3    3    0    0 -0.27453229480E+02 -0.15617207395E+01 -0.78990635412E+01  0.28609683424E+02  0.51100000000E-03 0.  1.
        -12    1    3    3    0    0 -0.13934258266E+02  0.19179678996E+01  0.50381625781E+01  0.14940724094E+02  0.00000000000E+00 0.  1.
</event>
<event>
 7    1  0.3884463E-009  0.4778728E+02  0.7816164E-02  0.1312668E+00
        -11   -1    0    0    0    0  0.00000000000E+00  0.00000000000E+00  0.45593999997E+02  0.45594000000E+02  0.51100000000E-03 0.  1.
         11   -1    0    0    0    0 -0.00000000000E+00 -0.00000000000E+00 -0.45593999997E+02  0.45594000000E+02  0.51100000000E-03 0. -1.
    9900012    2    1    2    0    0  0.56145278804E+01  0.40535892800E+02 -0.14454789208E+02  0.47787280427E+02  0.20000042780E+02 0.  0.
        -12    1    1    2    0    0 -0.56145278804E+01 -0.40535892800E+02  0.14454789208E+02  0.43400719573E+02  0.00000000000E+00 0.  1.
         11    1    3    3    0    0  0.37406892650E+01  0.25215377978E+02 -0.48726325323E+01  0.25952853230E+02  0.51100000000E-03 0. -1.
        -11    1    3    3    0    0 -0.32750801124E+00  0.11537298093E+02 -0.27026073752E+00  0.11545109350E+02  0.51100000000E-03 0.  1.
         12    1    3    3    0    0  0.22013466267E+01  0.37832167293E+01 -0.93118959382E+01  0.10289317847E+02  0.00000000000E+00 0. -1.
</event>
<event>
 7    1  0.3884463E-009  0.4778726E+02  0.7816164E-02  0.1312668E+00
        -11   -1    0    0    0    0  0.00000000000E+00  0.00000000000E+00  0.45593999997E+02  0.45594000000E+02  0.51100000000E-03 0. -1.
         11   -1    0    0    0    0 -0.00000000000E+00 -0.00000000000E+00 -0.45593999997E+02  0.45594000000E+02  0.51100000000E-03 0.  1.
    9900012    2    1    2    0    0 -0.27033839713E+02  0.31039611346E+02  0.13760011156E+02  0.47787264186E+02  0.19999968731E+02 0.  0.
        -12    1    1    2    0    0  0.27033839713E+02 -0.31039611346E+02 -0.13760011156E+02  0.43400735814E+02  0.00000000000E+00 0.  1.
         11    1    3    3    0    0 -0.11792927985E+02  0.14877698078E+02  0.89440191296E+01  0.20986055585E+02  0.51100000000E-03 0.  1.
        -11    1    3    3    0    0 -0.16349752694E+02  0.85446930772E+01  0.49573897386E+01  0.19102405770E+02  0.51100000000E-03 0. -1.
        -12    1    3    3    0    0  0.11088409658E+01  0.76172201903E+01 -0.14139771190E+00  0.76988028308E+01  0.00000000000E+00 0.  1.
</event>
<event>
 7    1  0.3884463E-009  0.4778727E+02  0.7816164E-02  0.1312668E+00
        -11   -1    0    0    0    0  0.00000000000E+00  0.00000000000E+00  0.45593999997E+02  0.45594000000E+02  0.51100000000E-03 0.  1.
         11   -1    0    0    0    0 -0.00000000000E+00 -0.00000000000E+00 -0.45593999997E+02  0.45594000000E+02  0.51100000000E-03 0. -1.
    9900012    2    1    2    0    0  0.36877685321E+02 -0.13500630616E+02 -0.18476811577E+02  0.47787271115E+02  0.20000000323E+02 0.  0.
        -12    1    1    2    0    0 -0.36877685321E+02  0.13500630616E+02  0.18476811577E+02  0.43400728885E+02  0.00000000000E+00 0.  1.
         11    1    3    3    0    0  0.20254657030E+02 -0.88207342855E+01 -0.13171146323E+02  0.25720333988E+02  0.51100000000E-03 0. -1.
        -11    1    3    3    0    0  0.45799175794E+01 -0.76853864279E+01 -0.30431167233E+01  0.94499401708E+01  0.51100000000E-03 0.  1.
         12    1    3    3    0    0  0.12043110712E+02  0.30054900973E+01 -0.22625485306E+01  0.12616996956E+02  0.00000000000E+00 0. -1.
</event>
<event>
 7    1  0.3884463E-009  0.4778728E+02  0.7816164E-02  0.1312668E+00
        -11   -1    0    0    0    0  0.00000000000E+00  0.00000000000E+00  0.45593999997E+02  0.45594000000E+02  0.51100000000E-03 0.  1.
         11   -1    0    0    0    0 -0.00000000000E+00 -0.00000000000E+00 -0.45593999997E+02  0.45594000000E+02  0.51100000000E-03 0. -1.
    9900012    2    1    2    0    0  0.51775364155E+01  0.40159767497E+02 -0.15620775541E+02  0.47787280682E+02  0.20000043944E+02 0.  0.
        -12    1    1    2    0    0 -0.51775364155E+01 -0.40159767497E+02  0.15620775541E+02  0.43400719318E+02  0.00000000000E+00 0.  1.
         11    1    3    3    0    0  0.27491830975E+00  0.17947370498E+02 -0.80443860092E+01  0.19669667877E+02  0.51100000000E-03 0. -1.
        -11    1    3    3    0    0  0.79414170082E+01  0.22625390464E+02 -0.62743469055E+01  0.24785919937E+02  0.51100000000E-03 0.  1.
        -12    1    3    3    0    0 -0.30387989024E+01 -0.41299346477E+00 -0.13020426267E+01  0.33316928689E+01  0.00000000000E+00 0.  1.
</event>
<event>
 7    1  0.3884463E-009  0.4778727E+02  0.7816164E-02  0.1312668E+00
        -11   -1    0    0    0    0  0.00000000000E+00  0.00000000000E+00  0.45593999997E+02  0.45594000000E+02  0.51100000000E-03 0. -1.
         11   -1    0    0    0    0 -0.00000000000E+00 -0.00000000000E+00 -0.45593999997E+02  0.45594000000E+02  0.51100000000E-03 0.  1.
    9900012    2    1    2    0    0  0.53255897856E+01 -0.22697570696E+02  0.36607132852E+02  0.47787265009E+02  0.19999972483E+02 0.  0.
        -12    1    1    2    0    0 -0.53255897856E+01  0.22697570696E+02 -0.36607132852E+02  0.43400734991E+02  0.00000000000E+00 0.  1.
         11    1    3    3    0    0 -0.71078085947E+00 -0.60924317333E+01  0.49076960507E+01  0.78554703642E+01  0.51100000000E-03 0. -1.
        -11    1    3    3    0    0  0.10425392672E+02 -0.44917119316E+01  0.13602935899E+02  0.17717340483E+02  0.51100000000E-03 0.  1.
        -12    1    3    3    0    0 -0.43890220274E+01 -0.12113427032E+02  0.18096500902E+02  0.22214454162E+02  0.00000000000E+00 0.  1.
</event>
<event>
 7    1  0.3884463E-009  0.4778728E+02  0.7816164E-02  0.1312668E+00
        -11   -1    0    0    0    0  0.00000000000E+00  0.00000000000E+00  0.45593999997E+02  0.45594000000E+02  0.51100000000E-03 0.  1.
         11   -1    0    0    0    0 -0.00000000000E+00 -0.00000000000E+00 -0.45593999997E+02  0.45594000000E+02  0.51100000000E-03 0. -1.
    9900012    2    1    2    0    0  0.34899525900E+01 -0.25278713293E+02 -0.35105978846E+02  0.47787275749E+02  0.20000021448E+02 0.  0.
        -12    1    1    2    0    0 -0.34899525900E+01  0.25278713293E+02  0.35105978846E+02  0.43400724251E+02  0.00000000000E+00 0.  1.
         11    1    3    3    0    0 -0.63383017645E+01 -0.28131464445E+01 -0.66888520223E+01  0.96347601845E+01  0.51100000000E-03 0. -1.
        -11    1    3    3    0    0  0.13822951683E+01 -0.32877127998E+01 -0.11174364602E+01  0.37374402858E+01  0.51100000000E-03 0.  1.
         12    1    3    3    0    0  0.84459591861E+01 -0.19177854049E+02 -0.27299690363E+02  0.34415075278E+02  0.00000000000E+00 0. -1.
</event>
<event>
 7    1  0.3884463E-009  0.4778727E+02  0.7816164E-02  0.1312668E+00
        -11   -1    0    0    0    0  0.00000000000E+00  0.00000000000E+00  0.45593999997E+02  0.45594000000E+02  0.51100000000E-03 0.  1.
         11   -1    0    0    0    0 -0.00000000000E+00 -0.00000000000E+00 -0.45593999997E+02  0.45594000000E+02  0.51100000000E-03 0. -1.
    9900012    2    1    2    0    0 -0.12395951470E+02 -0.41551742390E+01 -0.41384759848E+02  0.47787269205E+02  0.19999991615E+02 0.  0.
        -12    1    1    2    0    0  0.12395951470E+02  0.41551742390E+01  0.41384759848E+02  0.43400730795E+02  0.00000000000E+00 0.  1.
         11    1    3    3    0    0 -0.56893492786E+01 -0.11581732170E+01 -0.66184687102E+01  0.88042142605E+01  0.51100000000E-03 0. -1.
        -11    1    3    3    0    0 -0.54149378744E+01  0.25056349387E+01 -0.29267697287E+01  0.66457309557E+01  0.51100000000E-03 0.  1.
         12    1    3    3    0    0 -0.12916643174E+01 -0.55026359607E+01 -0.31839521409E+02  0.32337323989E+02  0.00000000000E+00 0. -1.
</event>
<event>
 7    1  0.3884463E-009  0.4778727E+02  0.7816164E-02  0.1312668E+00
        -11   -1    0    0    0    0  0.00000000000E+00  0.00000000000E+00  0.45593999997E+02  0.45594000000E+02  0.51100000000E-03 0.  1.
         11   -1    0    0    0    0 -0.00000000000E+00 -0.00000000000E+00 -0.45593999997E+02  0.45594000000E+02  0.51100000000E-03 0. -1.
    9900012    2    1    2    0    0 -0.38819543089E+02  0.19385861816E+02  0.92443346522E+00  0.47787272573E+02  0.20000006970E+02 0.  0.
        -12    1    1    2    0    0  0.38819543089E+02 -0.19385861816E+02 -0.92443346522E+00  0.43400727427E+02  0.00000000000E+00 0.  1.
         11    1    3    3    0    0 -0.15051556991E+01  0.38216454869E+01 -0.12467026381E+01  0.42924044119E+01  0.51100000000E-03 0. -1.
        -11    1    3    3    0    0  0.14759111632E+01 -0.33454013514E+00 -0.48225789937E-01  0.15141191669E+01  0.51100000000E-03 0.  1.
        -12    1    3    3    0    0 -0.38790298553E+02  0.15898756464E+02  0.22193618932E+01  0.41980748994E+02  0.00000000000E+00 0.  1.
</event>
<event>
 7    1  0.3884463E-009  0.4778727E+02  0.7816164E-02  0.1312668E+00
        -11   -1    0    0    0    0  0.00000000000E+00  0.00000000000E+00  0.45593999997E+02  0.45594000000E+02  0.51100000000E-03 0.  1.
         11   -1    0    0    0    0 -0.00000000000E+00 -0.00000000000E+00 -0.45593999997E+02  0.45594000000E+02  0.51100000000E-03 0. -1.
    9900012    2    1    2    0    0  0.84547960095E+01 -0.24734370737E+02 -0.34646075727E+02  0.47787271497E+02  0.20000002063E+02 0.  0.
        -12    1    1    2    0    0 -0.84547960095E+01  0.24734370737E+02  0.34646075727E+02  0.43400728503E+02  0.00000000000E+00 0.  1.
         11    1    3    3    0    0 -0.20783256204E+01 -0.32100268290E+01 -0.37565684643E+00  0.38425028243E+01  0.51100000000E-03 0. -1.
        -11    1    3    3    0    0 -0.31353368959E+00  0.66737366764E+00 -0.74370768619E+01  0.74735402252E+01  0.51100000000E-03 0.  1.
         12    1    3    3    0    0  0.10846655320E+02 -0.22191717576E+02 -0.26833342019E+02  0.36471228447E+02  0.00000000000E+00 0. -1.
</event>
<event>
 7    1  0.3884463E-009  0.4778723E+02  0.7816164E-02  0.1312668E+00
        -11   -1    0    0    0    0  0.00000000000E+00  0.00000000000E+00  0.45593999997E+02  0.45594000000E+02  0.51100000000E-03 0. -1.
         11   -1    0    0    0    0 -0.00000000000E+00 -0.00000000000E+00 -0.45593999997E+02  0.45594000000E+02  0.51100000000E-03 0.  1.
    9900012    2    1    2    0    0 -0.85256918877E+01 -0.12554809285E+02  0.40660989117E+02  0.47787231639E+02  0.19999820333E+02 0.  0.
        -12    1    1    2    0    0  0.85256918877E+01  0.12554809285E+02 -0.40660989117E+02  0.43400768361E+02  0.00000000000E+00 0.  1.
         11    1    3    3    0    0 -0.95005932466E+01 -0.27923960019E+01  0.19441594407E+02  0.21818211219E+02  0.51100000000E-03 0. -1.
        -11    1    3    3    0    0  0.14517368713E+01  0.22278104723E+01  0.20669265192E+01  0.33679170032E+01  0.51100000000E-03 0.  1.
         12    1    3    3    0    0 -0.47683551241E+00 -0.11990223755E+02  0.19152468192E+02  0.22601103416E+02  0.00000000000E+00 0. -1.
</event>
<event>
 7    1  0.3884463E-009  0.4778728E+02  0.7816164E-02  0.1312668E+00
        -11   -1    0    0    0    0  0.00000000000E+00  0.00000000000E+00  0.45593999997E+02  0.45594000000E+02  0.51100000000E-03 0.  1.
         11   -1    0    0    0    0 -0.00000000000E+00 -0.00000000000E+00 -0.45593999997E+02  0.45594000000E+02  0.51100000000E-03 0. -1.
    9900012    2    1    2    0    0 -0.13844246854E+02 -0.15402725085E+02 -0.38140736766E+02  0.47787275213E+02  0.20000019007E+02 0.  0.
        -12    1    1    2    0    0  0.13844246854E+02  0.15402725085E+02  0.38140736766E+02  0.43400724787E+02  0.00000000000E+00 0.  1.
         11    1    3    3    0    0 -0.75613230814E+01 -0.10879055508E+02 -0.16218384037E+02  0.20941906230E+02  0.51100000000E-03 0. -1.
        -11    1    3    3    0    0  0.24025453012E+01 -0.51507372780E+01 -0.40956892458E+01  0.70054970623E+01  0.51100000000E-03 0.  1.
        -12    1    3    3    0    0 -0.86854690739E+01  0.62706770109E+00 -0.17826663482E+02  0.19839871921E+02  0.00000000000E+00 0.  1.
</event>
<event>
 7    1  0.3884463E-009  0.4778727E+02  0.7816164E-02  0.1312668E+00
        -11   -1    0    0    0    0  0.00000000000E+00  0.00000000000E+00  0.45593999997E+02  0.45594000000E+02  0.51100000000E-03 0.  1.
         11   -1    0    0    0    0 -0.00000000000E+00 -0.00000000000E+00 -0.45593999997E+02  0.45594000000E+02  0.51100000000E-03 0. -1.
    9900012    2    1    2    0    0 -0.36715452070E+02 -0.20818469574E+02  0.10108924695E+02  0.47787268962E+02  0.19999990507E+02 0.  0.
        -12    1    1    2    0    0  0.36715452070E+02  0.20818469574E+02 -0.10108924695E+02  0.43400731038E+02  0.00000000000E+00 0.  1.
         11    1    3    3    0    0 -0.91756914686E+01 -0.27062175401E+01 -0.26711083950E+00  0.95701763705E+01  0.51100000000E-03 0. -1.
        -11    1    3    3    0    0 -0.16752436606E+02 -0.25947779719E+01  0.65494073471E+00  0.16964844608E+02  0.51100000000E-03 0.  1.
        -12    1    3    3    0    0 -0.10787323996E+02 -0.15517474062E+02  0.97210947998E+01  0.21252247984E+02  0.00000000000E+00 0.  1.
</event>
<event>
 7    1  0.3884463E-009  0.4778727E+02  0.7816164E-02  0.1312668E+00
        -11   -1    0    0    0    0  0.00000000000E+00  0.00000000000E+00  0.45593999997E+02  0.45594000000E+02  0.51100000000E-03 0.  1.
         11   -1    0    0    0    0 -0.00000000000E+00 -0.00000000000E+00 -0.45593999997E+02  0.45594000000E+02  0.51100000000E-03 0. -1.
    9900012    2    1    2    0    0  0.31345477523E+02  0.24276894545E+02 -0.17655497219E+02  0.47787272450E+02  0.20000006407E+02 0.  0.
        -12    1    1    2    0    0 -0.31345477523E+02 -0.24276894545E+02  0.17655497219E+02  0.43400727550E+02  0.00000000000E+00 0.  1.
         11    1    3    3    0    0  0.13163207127E+02  0.13803870199E+02 -0.11820954769E+02  0.22439960478E+02  0.51100000000E-03 0. -1.
        -11    1    3    3    0    0  0.12633350998E+02  0.13014680213E+02 -0.63618530440E+01  0.19221254717E+02  0.51100000000E-03 0.  1.
        -12    1    3    3    0    0  0.55489193968E+01 -0.25416558669E+01  0.52731059468E+00  0.61260572541E+01  0.00000000000E+00 0.  1.
</event>
<event>
 7    1  0.3884463E-009  0.4778728E+02  0.7816164E-02  0.1312668E+00
        -11   -1    0    0    0    0  0.00000000000E+00  0.00000000000E+00  0.45593999997E+02  0.45594000000E+02  0.51100000000E-03 0.  1.
         11   -1    0    0    0    0 -0.00000000000E+00 -0.00000000000E+00 -0.45593999997E+02  0.45594000000E+02  0.51100000000E-03 0. -1.
    9900012    2    1    2    0    0 -0.25231651688E+02  0.29815710474E+02 -0.18921148488E+02  0.47787277678E+02  0.20000030244E+02 0.  0.
        -12    1    1    2    0    0  0.25231651688E+02 -0.29815710474E+02  0.18921148488E+02  0.43400722322E+02  0.00000000000E+00 0.  1.
         11    1    3    3    0    0 -0.14296362983E+02  0.15224644679E+02 -0.39197026566E+01  0.21249467506E+02  0.51100000000E-03 0. -1.
        -11    1    3    3    0    0 -0.22008280769E+01  0.10002603225E+02 -0.23748590540E+01  0.10513594594E+02  0.51100000000E-03 0.  1.
         12    1    3    3    0    0 -0.87344606285E+01  0.45884625708E+01 -0.12626586778E+02  0.16024215578E+02  0.00000000000E+00 0. -1.
</event>
<event>
 7    1  0.3884463E-009  0.4778728E+02  0.7816164E-02  0.1312668E+00
        -11   -1    0    0    0    0  0.00000000000E+00  0.00000000000E+00  0.45593999997E+02  0.45594000000E+02  0.51100000000E-03 0. -1.
         11   -1    0    0    0    0 -0.00000000000E+00 -0.00000000000E+00 -0.45593999997E+02  0.45594000000E+02  0.51100000000E-03 0.  1.
    9900012    2    1    2    0    0  0.97896070539E+01 -0.30371208693E+02  0.29417275543E+02  0.47787276226E+02  0.20000023623E+02 0.  0.
        -12    1    1    2    0    0 -0.97896070539E+01  0.30371208693E+02 -0.29417275543E+02  0.43400723774E+02  0.00000000000E+00 0.  1.
         11    1    3    3    0    0 -0.97354328853E+00 -0.99651619590E+01  0.10014735019E+02  0.14161467338E+02  0.51100000000E-03 0. -1.
        -11    1    3    3    0    0 -0.19368591160E+01  0.10226293226E+01  0.33143702125E+01  0.39726872685E+01  0.51100000000E-03 0.  1.
         12    1    3    3    0    0  0.12700009458E+02 -0.21428676057E+02  0.16088170312E+02  0.29653121619E+02  0.00000000000E+00 0. -1.
</event>
<event>
 7    1  0.3884463E-009  0.4778727E+02  0.7816164E-02  0.1312668E+00
        -11   -1    0    0    0    0  0.00000000000E+00  0.00000000000E+00  0.45593999997E+02  0.45594000000E+02  0.51100000000E-03 0. -1.
         11   -1    0    0    0    0 -0.00000000000E+00 -0.00000000000E+00 -0.45593999997E+02  0.45594000000E+02  0.51100000000E-03 0.  1.
    9900012    2    1    2    0    0 -0.38303021098E+02 -0.16086956784E+02 -0.12558341226E+02  0.47787267999E+02  0.19999986116E+02 0.  0.
        -12    1    1    2    0    0  0.38303021098E+02  0.16086956784E+02  0.12558341226E+02  0.43400732001E+02  0.00000000000E+00 0.  1.
         11    1    3    3    0    0 -0.23596173813E+02 -0.52320677300E+01 -0.11318605715E+02  0.26688289323E+02  0.51100000000E-03 0. -1.
        -11    1    3    3    0    0 -0.15284353060E+01 -0.37262797700E+01 -0.42080602048E+01  0.58248644927E+01  0.51100000000E-03 0.  1.
        -12    1    3    3    0    0 -0.13178411979E+02 -0.71286092844E+01  0.29683246939E+01  0.15274114184E+02  0.00000000000E+00 0.  1.
</event>
<event>
 7    1  0.3884463E-009  0.4778725E+02  0.7816164E-02  0.1312668E+00
        -11   -1    0    0    0    0  0.00000000000E+00  0.00000000000E+00  0.45593999997E+02  0.45594000000E+02  0.51100000000E-03 0. -1.
         11   -1    0    0    0    0 -0.00000000000E+00 -0.00000000000E+00 -0.45593999997E+02  0.45594000000E+02  0.51100000000E-03 0.  1.
    9900012    2    1    2    0    0 -0.37813258021E+02 -0.10503334822E+02  0.18532752455E+02  0.47787246111E+02  0.19999886318E+02 0.  0.
        -12    1    1    2    0    0  0.37813258021E+02  0.10503334822E+02 -0.18532752455E+02  0.43400753889E+02  0.00000000000E+00 0.  1.
         11    1    3    3    0    0 -0.13030589697E+02 -0.37774229347E+01  0.88764241227E+01  0.16212837424E+02  0.51100000000E-03 0. -1.
        -11    1    3    3    0    0  0.17946073521E+01 -0.17028494866E+01  0.26678756855E+01  0.36383887721E+01  0.51100000000E-03 0.  1.
        -12    1    3    3    0    0 -0.26577275677E+02 -0.50230624011E+01  0.69884526468E+01  0.27936019915E+02  0.00000000000E+00 0.  1.
</event>
<event>
 7    1  0.3884463E-009  0.4778727E+02  0.7816164E-02  0.1312668E+00
        -11   -1    0    0    0    0  0.00000000000E+00  0.00000000000E+00  0.45593999997E+02  0.45594000000E+02  0.51100000000E-03 0.  1.
         11   -1    0    0    0    0 -0.00000000000E+00 -0.00000000000E+00 -0.45593999997E+02  0.45594000000E+02  0.51100000000E-03 0. -1.
    9900012    2    1    2    0    0  0.20225446887E+02 -0.36660160744E+02 -0.11427470130E+02  0.47787272344E+02  0.20000005923E+02 0.  0.
        -12    1    1    2    0    0 -0.20225446887E+02  0.36660160744E+02  0.11427470130E+02  0.43400727656E+02  0.00000000000E+00 0.  1.
         11    1    3    3    0    0  0.42593887222E+00 -0.17156139439E+02 -0.57820787904E+01  0.18109306441E+02  0.51100000000E-03 0. -1.
        -11    1    3    3    0    0  0.71135314605E+01 -0.12197280262E+02 -0.51497114183E+01  0.15029820478E+02  0.51100000000E-03 0.  1.
        -12    1    3    3    0    0  0.12685976554E+02 -0.73067410418E+01 -0.49567992152E+00  0.14648145424E+02  0.00000000000E+00 0.  1.
</event>
<event>
 7    1  0.3884463E-009  0.4778727E+02  0.7816164E-02  0.1312668E+00
        -11   -1    0    0    0    0  0.00000000000E+00  0.00000000000E+00  0.45593999997E+02  0.45594000000E+02  0.51100000000E-03 0. -1.
         11   -1    0    0    0    0 -0.00000000000E+00 -0.00000000000E+00 -0.45593999997E+02  0.45594000000E+02  0.51100000000E-03 0.  1.
    9900012    2    1    2    0    0  0.81669649671E+01 -0.39324208718E+02  0.16447812628E+02  0.47787271339E+02  0.20000001344E+02 0.  0.
        -12    1    1    2    0    0 -0.81669649671E+01  0.39324208718E+02 -0.16447812628E+02  0.43400728661E+02  0.00000000000E+00 0.  1.
         11    1    3    3    0    0 -0.27000096197E+00 -0.16099431714E+02  0.80759009679E+01  0.18013461043E+02  0.51100000000E-03 0. -1.
        -11    1    3    3    0    0  0.42186298341E+01 -0.21291181317E+02  0.18695661518E+01  0.21785465737E+02  0.51100000000E-03 0.  1.
         12    1    3    3    0    0  0.42183360950E+01 -0.19335956869E+01  0.65023455080E+01  0.79883445592E+01  0.00000000000E+00 0. -1.
</event>
<event>
 7    1  0.3884463E-009  0.4778728E+02  0.7816164E-02  0.1312668E+00
        -11   -1    0    0    0    0  0.00000000000E+00  0.00000000000E+00  0.45593999997E+02  0.45594000000E+02  0.51100000000E-03 0.  1.
         11   -1    0    0    0    0 -0.00000000000E+00 -0.00000000000E+00 -0.45593999997E+02  0.45594000000E+02  0.51100000000E-03 0. -1.
    9900012    2    1    2    0    0  0.29673025030E+01 -0.37278778259E+02  0.22025222238E+02  0.47787278724E+02  0.20000035015E+02 0.  0.
        -12    1    1    2    0    0 -0.29673025030E+01  0.37278778259E+02 -0.22025222238E+02  0.43400721276E+02  0.00000000000E+00 0.  1.
         11    1    3    3    0    0 -0.28991486339E+01 -0.13193285576E+02  0.35829335113E+01  0.13975165828E+02  0.51100000000E-03 0. -1.
        -11    1    3    3    0    0 -0.10855364684E+01  0.98033485591E+00 -0.59379162379E+00  0.15786179422E+01  0.51100000000E-03 0.  1.
        -12    1    3    3    0    0  0.69519876053E+01 -0.25065827539E+02  0.19036080351E+02  0.32233494954E+02  0.00000000000E+00 0.  1.
</event>
<event>
 7    1  0.3884463E-009  0.4778727E+02  0.7816164E-02  0.1312668E+00
        -11   -1    0    0    0    0  0.00000000000E+00  0.00000000000E+00  0.45593999997E+02  0.45594000000E+02  0.51100000000E-03 0. -1.
         11   -1    0    0    0    0 -0.00000000000E+00 -0.00000000000E+00 -0.45593999997E+02  0.45594000000E+02  0.51100000000E-03 0.  1.
    9900012    2    1    2    0    0 -0.33316623848E+02  0.13618363251E+02  0.24252131713E+02  0.47787272645E+02  0.20000007299E+02 0.  0.
        -12    1    1    2    0    0  0.33316623848E+02 -0.13618363251E+02 -0.24252131713E+02  0.43400727355E+02  0.00000000000E+00 0.  1.
         11    1    3    3    0    0 -0.11107433573E+02  0.51318331268E+01  0.68409998854E+01  0.14018205003E+02  0.51100000000E-03 0. -1.
        -11    1    3    3    0    0 -0.24553900179E+02  0.56358530278E+01  0.14492897078E+02  0.29063738908E+02  0.51100000000E-03 0.  1.
         12    1    3    3    0    0  0.23447099036E+01  0.28506770960E+01  0.29182347498E+01  0.47053287338E+01  0.00000000000E+00 0. -1.
</event>
<event>
 7    1  0.3884463E-009  0.4778727E+02  0.7816164E-02  0.1312668E+00
        -11   -1    0    0    0    0  0.00000000000E+00  0.00000000000E+00  0.45593999997E+02  0.45594000000E+02  0.51100000000E-03 0.  1.
         11   -1    0    0    0    0 -0.00000000000E+00 -0.00000000000E+00 -0.45593999997E+02  0.45594000000E+02  0.51100000000E-03 0. -1.
    9900012    2    1    2    0    0 -0.20241552068E+02 -0.17415343693E+02 -0.34214157082E+02  0.47787272231E+02  0.20000005411E+02 0.  0.
        -12    1    1    2    0    0  0.20241552068E+02  0.17415343693E+02  0.34214157082E+02  0.43400727769E+02  0.00000000000E+00 0.  1.
         11    1    3    3    0    0 -0.81853026210E+01 -0.21995769119E+01 -0.50816366869E+01  0.98823250942E+01  0.51100000000E-03 0. -1.
        -11    1    3    3    0    0 -0.73015533427E+01 -0.18114968354E+01 -0.28953623541E+01  0.80608514081E+01  0.51100000000E-03 0.  1.
         12    1    3    3    0    0 -0.47546961041E+01 -0.13404269945E+02 -0.26237158041E+02  0.29844095729E+02  0.00000000000E+00 0. -1.
</event>
<event>
 7    1  0.3884463E-009  0.4778727E+02  0.7816164E-02  0.1312668E+00
        -11   -1    0    0    0    0  0.00000000000E+00  0.00000000000E+00  0.45593999997E+02  0.45594000000E+02  0.51100000000E-03 0.  1.
         11   -1    0    0    0    0 -0.00000000000E+00 -0.00000000000E+00 -0.45593999997E+02  0.45594000000E+02  0.51100000000E-03 0. -1.
    9900012    2    1    2    0    0  0.32698595778E+02 -0.23784718281E+02 -0.15770618175E+02  0.47787269739E+02  0.19999994050E+02 0.  0.
        -12    1    1    2    0    0 -0.32698595778E+02  0.23784718281E+02  0.15770618175E+02  0.43400730261E+02  0.00000000000E+00 0.  1.
         11    1    3    3    0    0  0.23508145278E+02 -0.11635693593E+02 -0.56263917769E+01  0.26826825092E+02  0.51100000000E-03 0. -1.
        -11    1    3    3    0    0  0.13704813994E+01 -0.25304206542E+00  0.18700667800E+01  0.23322520395E+01  0.51100000000E-03 0.  1.
         12    1    3    3    0    0  0.78199691000E+01 -0.11895982623E+02 -0.12014293178E+02  0.18628192608E+02  0.00000000000E+00 0. -1.
</event>
<event>
 7    1  0.3884463E-009  0.4778727E+02  0.7816164E-02  0.1312668E+00
        -11   -1    0    0    0    0  0.00000000000E+00  0.00000000000E+00  0.45593999997E+02  0.45594000000E+02  0.51100000000E-03 0.  1.
         11   -1    0    0    0    0 -0.00000000000E+00 -0.00000000000E+00 -0.45593999997E+02  0.45594000000E+02  0.51100000000E-03 0. -1.
    9900012    2    1    2    0    0  0.51166552090E+00  0.13826048080E+02 -0.41136382873E+02  0.47787269557E+02  0.19999993218E+02 0.  0.
        -12    1    1    2    0    0 -0.51166552090E+00 -0.13826048080E+02  0.41136382873E+02  0.43400730443E+02  0.00000000000E+00 0.  1.
         11    1    3    3    0    0  0.21530695224E+01 -0.30487906224E+01 -0.10760203520E+02  0.11389153290E+02  0.51100000000E-03 0. -1.
        -11    1    3    3    0    0  0.37263840849E+00  0.32047589401E+01 -0.22814178051E+00  0.32344069288E+01  0.51100000000E-03 0.  1.
        -12    1    3    3    0    0 -0.20140424100E+01  0.13670079762E+02 -0.30148037573E+02  0.33163709338E+02  0.00000000000E+00 0.  1.
</event>
<event>
 7    1  0.3884463E-009  0.4778727E+02  0.7816164E-02  0.1312668E+00
        -11   -1    0    0    0    0  0.00000000000E+00  0.00000000000E+00  0.45593999997E+02  0.45594000000E+02  0.51100000000E-03 0.  1.
         11   -1    0    0    0    0 -0.00000000000E+00 -0.00000000000E+00 -0.45593999997E+02  0.45594000000E+02  0.51100000000E-03 0. -1.
    9900012    2    1    2    0    0 -0.18725378011E+02  0.14721504520E+02 -0.36280306146E+02  0.47787273151E+02  0.20000009605E+02 0.  0.
        -12    1    1    2    0    0  0.18725378011E+02 -0.14721504520E+02  0.36280306146E+02  0.43400726849E+02  0.00000000000E+00 0.  1.
         11    1    3    3    0    0 -0.45798227207E+01 -0.47094271022E+00 -0.99279768826E+01  0.10943550084E+02  0.51100000000E-03 0. -1.
        -11    1    3    3    0    0  0.17156271597E+01  0.76148675530E+01 -0.53866630191E+01  0.94839719075E+01  0.51100000000E-03 0.  1.
        -12    1    3    3    0    0 -0.15861182450E+02  0.75775796769E+01 -0.20965666244E+02  0.27359751160E+02  0.00000000000E+00 0.  1.
</event>
<event>
 7    1  0.3884463E-009  0.4778727E+02  0.7816164E-02  0.1312668E+00
        -11   -1    0    0    0    0  0.00000000000E+00  0.00000000000E+00  0.45593999997E+02  0.45594000000E+02  0.51100000000E-03 0. -1.
         11   -1    0    0    0    0 -0.00000000000E+00 -0.00000000000E+00 -0.45593999997E+02  0.45594000000E+02  0.51100000000E-03 0.  1.
    9900012    2    1    2    0    0  0.22116953004E+02 -0.32767131061E+02  0.17910305497E+02  0.47787268081E+02  0.19999986486E+02 0.  0.
        -12    1    1    2    0    0 -0.22116953004E+02  0.32767131061E+02 -0.17910305497E+02  0.43400731919E+02  0.00000000000E+00 0.  1.
         11    1    3    3    0    0 -0.76162605245E-01 -0.17428021582E+01  0.27926473563E+01  0.32927252577E+01  0.51100000000E-03 0. -1.
        -11    1    3    3    0    0  0.10824542265E+02 -0.18216521473E+02 -0.67235423977E+00  0.21200576179E+02  0.51100000000E-03 0.  1.
         12    1    3    3    0    0  0.11368573344E+02 -0.12807807430E+02  0.15790012380E+02  0.23293966644E+02  0.00000000000E+00 0. -1.
</event>
<event>
 7    1  0.3884463E-009  0.4778727E+02  0.7816164E-02  0.1312668E+00
        -11   -1    0    0    0    0  0.00000000000E+00  0.00000000000E+00  0.45593999997E+02  0.45594000000E+02  0.51100000000E-03 0. -1.
         11   -1    0    0    0    0 -0.00000000000E+00 -0.00000000000E+00 -0.45593999997E+02  0.45594000000E+02  0.51100000000E-03 0.  1.
    9900012    2    1    2    0    0  0.36516529983E+02  0.20781792674E+02  0.10875802423E+02  0.47787274809E+02  0.20000017163E+02 0.  0.
        -12    1    1    2    0    0 -0.36516529983E+02 -0.20781792674E+02 -0.10875802423E+02  0.43400725191E+02  0.00000000000E+00 0.  1.
         11    1    3    3    0    0  0.18346010304E+02  0.10417079445E+02  0.56087263792E+01  0.21830012600E+02  0.51100000000E-03 0. -1.
        -11    1    3    3    0    0  0.15836907929E+02  0.11165983439E+02 -0.81412861291E+00  0.19394577710E+02  0.51100000000E-03 0.  1.
         12    1    3    3    0    0  0.23336117499E+01 -0.80127021000E+00  0.60812046564E+01  0.65626844982E+01  0.00000000000E+00 0. -1.
</event>
<event>
 7    1  0.3884463E-009  0.4778727E+02  0.7816164E-02  0.1312668E+00
        -11   -1    0    0    0    0  0.00000000000E+00  0.00000000000E+00  0.45593999997E+02  0.45594000000E+02  0.51100000000E-03 0.  1.
         11   -1    0    0    0    0 -0.00000000000E+00 -0.00000000000E+00 -0.45593999997E+02  0.45594000000E+02  0.51100000000E-03 0. -1.
    9900012    2    1    2    0    0 -0.70548247766E+01  0.27214735750E+01 -0.42736944940E+02  0.47787269201E+02  0.19999991595E+02 0.  0.
        -12    1    1    2    0    0  0.70548247766E+01 -0.27214735750E+01  0.42736944940E+02  0.43400730799E+02  0.00000000000E+00 0.  1.
         11    1    3    3    0    0 -0.78459847764E+01 -0.30855961664E+01 -0.25413430830E+02  0.26775414986E+02  0.51100000000E-03 0. -1.
        -11    1    3    3    0    0  0.97797777645E+00 -0.25182830164E+01 -0.14009919788E+01  0.30431839688E+01  0.51100000000E-03 0.  1.
        -12    1    3    3    0    0 -0.18681777668E+00  0.83253527578E+01 -0.15922522131E+02  0.17968670247E+02  0.00000000000E+00 0.  1.
</event>
<event>
 7    1  0.3884463E-009  0.4778727E+02  0.7816164E-02  0.1312668E+00
        -11   -1    0    0    0    0  0.00000000000E+00  0.00000000000E+00  0.45593999997E+02  0.45594000000E+02  0.51100000000E-03 0. -1.
         11   -1    0    0    0    0 -0.00000000000E+00 -0.00000000000E+00 -0.45593999997E+02  0.45594000000E+02  0.51100000000E-03 0.  1.
    9900012    2    1    2    0    0  0.33773674974E+02 -0.15398989502E+01  0.27213804345E+02  0.47787267783E+02  0.19999985132E+02 0.  0.
        -12    1    1    2    0    0 -0.33773674974E+02  0.15398989502E+01 -0.27213804345E+02  0.43400732217E+02  0.00000000000E+00 0.  1.
         11    1    3    3    0    0  0.26649442506E+01  0.38067144451E+01  0.56129391852E+00  0.46806040048E+01  0.51100000000E-03 0. -1.
        -11    1    3    3    0    0  0.18616701882E+02  0.13219774817E+00  0.86728792822E+01  0.20538205874E+02  0.51100000000E-03 0.  1.
         12    1    3    3    0    0  0.12492028841E+02 -0.54788111434E+01  0.17979631145E+02  0.22568457905E+02  0.00000000000E+00 0. -1.
</event>
<event>
 7    1  0.3884463E-009  0.4778728E+02  0.7816164E-02  0.1312668E+00
        -11   -1    0    0    0    0  0.00000000000E+00  0.00000000000E+00  0.45593999997E+02  0.45594000000E+02  0.51100000000E-03 0.  1.
         11   -1    0    0    0    0 -0.00000000000E+00 -0.00000000000E+00 -0.45593999997E+02  0.45594000000E+02  0.51100000000E-03 0. -1.
    9900012    2    1    2    0    0  0.15665788365E+02 -0.34160571710E+02 -0.21708552975E+02  0.47787275848E+02  0.20000021900E+02 0.  0.
        -12    1    1    2    0    0 -0.15665788365E+02  0.34160571710E+02  0.21708552975E+02  0.43400724152E+02  0.00000000000E+00 0.  1.
         11    1    3    3    0    0  0.18396641012E+02 -0.27827653010E+02 -0.16024522827E+02  0.37008107283E+02  0.51100000000E-03 0. -1.
        -11    1    3    3    0    0  0.24252614964E+00 -0.29502265910E+01  0.62707682279E+00  0.30258687140E+01  0.51100000000E-03 0.  1.
         12    1    3    3    0    0 -0.29733787971E+01 -0.33826921089E+01 -0.63111069707E+01  0.77532998504E+01  0.00000000000E+00 0. -1.
</event>
<event>
 7    1  0.3884463E-009  0.4778727E+02  0.7816164E-02  0.1312668E+00
        -11   -1    0    0    0    0  0.00000000000E+00  0.00000000000E+00  0.45593999997E+02  0.45594000000E+02  0.51100000000E-03 0.  1.
         11   -1    0    0    0    0 -0.00000000000E+00 -0.00000000000E+00 -0.45593999997E+02  0.45594000000E+02  0.51100000000E-03 0. -1.
    9900012    2    1    2    0    0  0.95150402133E+01  0.24175640739E+02 -0.34765295303E+02  0.47787270134E+02  0.19999995849E+02 0.  0.
        -12    1    1    2    0    0 -0.95150402133E+01 -0.24175640739E+02  0.34765295303E+02  0.43400729866E+02  0.00000000000E+00 0.  1.
         11    1    3    3    0    0  0.35673618134E+01  0.11574754809E+02 -0.53728444467E+01  0.13250225541E+02  0.51100000000E-03 0.  1.
        -11    1    3    3    0    0  0.74915134624E+01  0.72290839592E+01 -0.10306182552E+02  0.14649226188E+02  0.51100000000E-03 0. -1.
        -12    1    3    3    0    0 -0.15438350625E+01  0.53718019709E+01 -0.19086268304E+02  0.19887818405E+02  0.00000000000E+00 0.  1.
</event>
<event>
 7    1  0.3884463E-009  0.4778727E+02  0.7816164E-02  0.1312668E+00
        -11   -1    0    0    0    0  0.00000000000E+00  0.00000000000E+00  0.45593999997E+02  0.45594000000E+02  0.51100000000E-03 0. -1.
         11   -1    0    0    0    0 -0.00000000000E+00 -0.00000000000E+00 -0.45593999997E+02  0.45594000000E+02  0.51100000000E-03 0.  1.
    9900012    2    1    2    0    0  0.14596524927E+01  0.20946582834E+02  0.37983329565E+02  0.47787271403E+02  0.20000001637E+02 0.  0.
        -12    1    1    2    0    0 -0.14596524927E+01 -0.20946582834E+02 -0.37983329565E+02  0.43400728597E+02  0.00000000000E+00 0.  1.
         11    1    3    3    0    0  0.21545610661E+01  0.13575589519E+02  0.16550469731E+02  0.21514107296E+02  0.51100000000E-03 0. -1.
        -11    1    3    3    0    0  0.27937906436E+01  0.10158995570E+02  0.13025728872E+02  0.16753509187E+02  0.51100000000E-03 0.  1.
        -12    1    3    3    0    0 -0.34886992170E+01 -0.27880022543E+01  0.84071309620E+01  0.95196549207E+01  0.00000000000E+00 0.  1.
</event>
<event>
 7    1  0.3884463E-009  0.4778727E+02  0.7816164E-02  0.1312668E+00
        -11   -1    0    0    0    0  0.00000000000E+00  0.00000000000E+00  0.45593999997E+02  0.45594000000E+02  0.51100000000E-03 0. -1.
         11   -1    0    0    0    0 -0.00000000000E+00 -0.00000000000E+00 -0.45593999997E+02  0.45594000000E+02  0.51100000000E-03 0.  1.
    9900012    2    1    2    0    0 -0.48509250923E+01  0.33402344443E+02  0.27283240446E+02  0.47787270768E+02  0.19999998742E+02 0.  0.
        -12    1    1    2    0    0  0.48509250923E+01 -0.33402344443E+02 -0.27283240446E+02  0.43400729232E+02  0.00000000000E+00 0.  1.
         11    1    3    3    0    0 -0.13133654943E+01  0.12175638221E+02  0.11859309823E+01  0.12303557517E+02  0.51100000000E-03 0. -1.
        -11    1    3    3    0    0  0.35624004977E+01  0.37742854375E+01  0.52050362809E+01  0.73503966435E+01  0.51100000000E-03 0.  1.
         12    1    3    3    0    0 -0.70999600958E+01  0.17452420785E+02  0.20892273183E+02  0.28133316608E+02  0.00000000000E+00 0. -1.
</event>
<event>
 7    1  0.3884463E-009  0.4778727E+02  0.7816164E-02  0.1312668E+00
        -11   -1    0    0    0    0  0.00000000000E+00  0.00000000000E+00  0.45593999997E+02  0.45594000000E+02  0.51100000000E-03 0. -1.
         11   -1    0    0    0    0 -0.00000000000E+00 -0.00000000000E+00 -0.45593999997E+02  0.45594000000E+02  0.51100000000E-03 0.  1.
    9900012    2    1    2    0    0  0.26929195756E+02  0.33997481834E+02 -0.16165055268E+01  0.47787269071E+02  0.19999991000E+02 0.  0.
        -12    1    1    2    0    0 -0.26929195756E+02 -0.33997481834E+02  0.16165055268E+01  0.43400730929E+02  0.00000000000E+00 0.  1.
         11    1    3    3    0    0 -0.74261736179E-01 -0.59323635217E+00  0.63655180660E+00  0.87329413064E+00  0.51100000000E-03 0.  1.
        -11    1    3    3    0    0 -0.12777791530E+01 -0.83713646586E+00 -0.11479228777E+00  0.15318924756E+01  0.51100000000E-03 0. -1.
         12    1    3    3    0    0  0.28281236645E+02  0.35427854652E+02 -0.21382650456E+01  0.45382082464E+02  0.00000000000E+00 0. -1.
</event>
<event>
 7    1  0.3884463E-009  0.4778727E+02  0.7816164E-02  0.1312668E+00
        -11   -1    0    0    0    0  0.00000000000E+00  0.00000000000E+00  0.45593999997E+02  0.45594000000E+02  0.51100000000E-03 0.  1.
         11   -1    0    0    0    0 -0.00000000000E+00 -0.00000000000E+00 -0.45593999997E+02  0.45594000000E+02  0.51100000000E-03 0. -1.
    9900012    2    1    2    0    0  0.11870920858E+02 -0.30601733229E+02 -0.28394340951E+02  0.47787269169E+02  0.19999991449E+02 0.  0.
        -12    1    1    2    0    0 -0.11870920858E+02  0.30601733229E+02  0.28394340951E+02  0.43400730831E+02  0.00000000000E+00 0.  1.
         11    1    3    3    0    0  0.21385524451E+01  0.13169289601E+01 -0.11517117698E+01  0.27629963279E+01  0.51100000000E-03 0. -1.
        -11    1    3    3    0    0 -0.87821128262E-01  0.75033466162E+00  0.62098756046E+00  0.97792661604E+00  0.51100000000E-03 0.  1.
         12    1    3    3    0    0  0.98201895408E+01 -0.32668996850E+02 -0.27863616742E+02  0.44046346225E+02  0.00000000000E+00 0. -1.
</event>
<event>
 7    1  0.3884463E-009  0.4778727E+02  0.7816164E-02  0.1312668E+00
        -11   -1    0    0    0    0  0.00000000000E+00  0.00000000000E+00  0.45593999997E+02  0.45594000000E+02  0.51100000000E-03 0. -1.
         11   -1    0    0    0    0 -0.00000000000E+00 -0.00000000000E+00 -0.45593999997E+02  0.45594000000E+02  0.51100000000E-03 0.  1.
    9900012    2    1    2    0    0 -0.29170102765E+02  0.81511885940E+01  0.31085151240E+02  0.47787269610E+02  0.19999993458E+02 0.  0.
        -12    1    1    2    0    0  0.29170102765E+02 -0.81511885940E+01 -0.31085151240E+02  0.43400730390E+02  0.00000000000E+00 0.  1.
         11    1    3    3    0    0  0.33881282330E+00 -0.28486879920E+00 -0.98659189882E+00  0.10813455497E+01  0.51100000000E-03 0.  1.
        -11    1    3    3    0    0 -0.13363725869E+02  0.11345871360E+02  0.17322651471E+02  0.24645328569E+02  0.51100000000E-03 0. -1.
         12    1    3    3    0    0 -0.16145189720E+02 -0.29098139671E+01  0.14749091667E+02  0.22060595491E+02  0.00000000000E+00 0. -1.
</event>
<event>
 7    1  0.3884463E-009  0.4778727E+02  0.7816164E-02  0.1312668E+00
        -11   -1    0    0    0    0  0.00000000000E+00  0.00000000000E+00  0.45593999997E+02  0.45594000000E+02  0.51100000000E-03 0.  1.
         11   -1    0    0    0    0 -0.00000000000E+00 -0.00000000000E+00 -0.45593999997E+02  0.45594000000E+02  0.51100000000E-03 0. -1.
    9900012    2    1    2    0    0  0.30405996222E+02  0.29860680658E+02 -0.82120886572E+01  0.47787271254E+02  0.20000000954E+02 0.  0.
        -12    1    1    2    0    0 -0.30405996222E+02 -0.29860680658E+02  0.82120886572E+01  0.43400728746E+02  0.00000000000E+00 0.  1.
         11    1    3    3    0    0  0.88680305109E+01  0.17494922484E+02 -0.44839612118E+01  0.20120143793E+02  0.51100000000E-03 0. -1.
        -11    1    3    3    0    0 -0.39884767679E+00  0.11518027823E+00  0.18782207788E+01  0.19235538778E+01  0.51100000000E-03 0.  1.
         12    1    3    3    0    0  0.21936813388E+02  0.12250577896E+02 -0.56063482242E+01  0.25743573582E+02  0.00000000000E+00 0. -1.
</event>
<event>
 7    1  0.3884463E-009  0.4778727E+02  0.7816164E-02  0.1312668E+00
        -11   -1    0    0    0    0  0.00000000000E+00  0.00000000000E+00  0.45593999997E+02  0.45594000000E+02  0.51100000000E-03 0. -1.
         11   -1    0    0    0    0 -0.00000000000E+00 -0.00000000000E+00 -0.45593999997E+02  0.45594000000E+02  0.51100000000E-03 0.  1.
    9900012    2    1    2    0    0  0.15498577203E+02 -0.13521179268E+02  0.38217732516E+02  0.47787271172E+02  0.20000000582E+02 0.  0.
        -12    1    1    2    0    0 -0.15498577203E+02  0.13521179268E+02 -0.38217732516E+02  0.43400728828E+02  0.00000000000E+00 0.  1.
         11    1    3    3    0    0  0.66605601348E+01 -0.81816339556E+01  0.98731773607E+01  0.14449284652E+02  0.51100000000E-03 0. -1.
        -11    1    3    3    0    0  0.52890907548E+00  0.25103993036E+01  0.17142227007E+02  0.17333141565E+02  0.51100000000E-03 0.  1.
        -12    1    3    3    0    0  0.83091079929E+01 -0.78499446163E+01  0.11202328148E+02  0.16004844956E+02  0.00000000000E+00 0.  1.
</event>
<event>
 7    1  0.3884463E-009  0.4778727E+02  0.7816164E-02  0.1312668E+00
        -11   -1    0    0    0    0  0.00000000000E+00  0.00000000000E+00  0.45593999997E+02  0.45594000000E+02  0.51100000000E-03 0.  1.
         11   -1    0    0    0    0 -0.00000000000E+00 -0.00000000000E+00 -0.45593999997E+02  0.45594000000E+02  0.51100000000E-03 0. -1.
    9900012    2    1    2    0    0  0.75609896824E+01  0.63107640417E+01 -0.42268531505E+02  0.47787273470E+02  0.20000011060E+02 0.  0.
        -12    1    1    2    0    0 -0.75609896824E+01 -0.63107640417E+01  0.42268531505E+02  0.43400726530E+02  0.00000000000E+00 0.  1.
         11    1    3    3    0    0  0.29578742653E+01 -0.18000765431E+01 -0.86208646250E+01  0.92902423474E+01  0.51100000000E-03 0. -1.
        -11    1    3    3    0    0  0.49091171719E+00 -0.45732828655E+01 -0.44553541610E+01  0.64035998815E+01  0.51100000000E-03 0.  1.
         12    1    3    3    0    0  0.41122037000E+01  0.12684123450E+02 -0.29192312719E+02  0.32093431241E+02  0.00000000000E+00 0. -1.
</event>
<event>
 7    1  0.3884463E-009  0.4778728E+02  0.7816164E-02  0.1312668E+00
        -11   -1    0    0    0    0  0.00000000000E+00  0.00000000000E+00  0.45593999997E+02  0.45594000000E+02  0.51100000000E-03 0.  1.
         11   -1    0    0    0    0 -0.00000000000E+00 -0.00000000000E+00 -0.45593999997E+02  0.45594000000E+02  0.51100000000E-03 0. -1.
    9900012    2    1    2    0    0 -0.16173063581E+01 -0.48375794790E+01 -0.43099942430E+02  0.47787275438E+02  0.20000020031E+02 0.  0.
        -12    1    1    2    0    0  0.16173063581E+01  0.48375794790E+01  0.43099942430E+02  0.43400724562E+02  0.00000000000E+00 0.  1.
         11    1    3    3    0    0  0.54151963118E+00 -0.86113418822E+01 -0.16711204870E+02  0.18807254477E+02  0.51100000000E-03 0. -1.
        -11    1    3    3    0    0  0.39969120693E+01 -0.89977947851E+00 -0.70492283475E+01  0.81533140352E+01  0.51100000000E-03 0.  1.
         12    1    3    3    0    0 -0.61557380587E+01  0.46735418817E+01 -0.19339509213E+02  0.20826706925E+02  0.00000000000E+00 0. -1.
</event>
<event>
 7    1  0.3884463E-009  0.4778728E+02  0.7816164E-02  0.1312668E+00
        -11   -1    0    0    0    0  0.00000000000E+00  0.00000000000E+00  0.45593999997E+02  0.45594000000E+02  0.51100000000E-03 0. -1.
         11   -1    0    0    0    0 -0.00000000000E+00 -0.00000000000E+00 -0.45593999997E+02  0.45594000000E+02  0.51100000000E-03 0.  1.
    9900012    2    1    2    0    0  0.36661914370E+02  0.23197199441E+02 -0.11900620732E+01  0.47787282553E+02  0.20000052473E+02 0.  0.
        -12    1    1    2    0    0 -0.36661914370E+02 -0.23197199441E+02  0.11900620732E+01  0.43400717447E+02  0.00000000000E+00 0.  1.
         11    1    3    3    0    0  0.19622519112E+02  0.62512695269E+01  0.26455561391E+01  0.20763443706E+02  0.51100000000E-03 0. -1.
        -11    1    3    3    0    0  0.35207910827E+01 -0.10510802120E+01  0.13691579608E+01  0.39211392787E+01  0.51100000000E-03 0.  1.
        -12    1    3    3    0    0  0.13518604175E+02  0.17997010126E+02 -0.52047761730E+01  0.23102699568E+02  0.00000000000E+00 0.  1.
</event>
<event>
 7    1  0.3884463E-009  0.4778727E+02  0.7816164E-02  0.1312668E+00
        -11   -1    0    0    0    0  0.00000000000E+00  0.00000000000E+00  0.45593999997E+02  0.45594000000E+02  0.51100000000E-03 0.  1.
         11   -1    0    0    0    0 -0.00000000000E+00 -0.00000000000E+00 -0.45593999997E+02  0.45594000000E+02  0.51100000000E-03 0. -1.
    9900012    2    1    2    0    0 -0.29275291760E+02 -0.25509719092E+01 -0.31938580580E+02  0.47787273108E+02  0.20000009408E+02 0.  0.
        -12    1    1    2    0    0  0.29275291760E+02  0.25509719092E+01  0.31938580580E+02  0.43400726892E+02  0.00000000000E+00 0.  1.
         11    1    3    3    0    0 -0.22659583915E+02 -0.35216619557E+01 -0.29488525024E+02  0.37355480916E+02  0.51100000000E-03 0. -1.
        -11    1    3    3    0    0 -0.73293040098E+00  0.35437966226E+01 -0.15931671560E+01  0.39539680478E+01  0.51100000000E-03 0.  1.
        -12    1    3    3    0    0 -0.58827774445E+01 -0.25731065761E+01 -0.85688839968E+00  0.64778241442E+01  0.00000000000E+00 0.  1.
</event>
<event>
 7    1  0.3884463E-009  0.4778727E+02  0.7816164E-02  0.1312668E+00
        -11   -1    0    0    0    0  0.00000000000E+00  0.00000000000E+00  0.45593999997E+02  0.45594000000E+02  0.51100000000E-03 0.  1.
         11   -1    0    0    0    0 -0.00000000000E+00 -0.00000000000E+00 -0.45593999997E+02  0.45594000000E+02  0.51100000000E-03 0. -1.
    9900012    2    1    2    0    0 -0.36974011962E+02  0.29558992478E+01 -0.22534604622E+02  0.47787270669E+02  0.19999998290E+02 0.  0.
        -12    1    1    2    0    0  0.36974011962E+02 -0.29558992478E+01  0.22534604622E+02  0.43400729331E+02  0.00000000000E+00 0.  1.
         11    1    3    3    0    0 -0.47185649410E+01  0.13300397007E+01 -0.42746328859E+01  0.65043329618E+01  0.51100000000E-03 0. -1.
        -11    1    3    3    0    0 -0.30048190794E+02  0.60710243049E+01 -0.11166804241E+02  0.32625888851E+02  0.51100000000E-03 0.  1.
        -12    1    3    3    0    0 -0.22072562269E+01 -0.44451647578E+01 -0.70931674957E+01  0.86570488561E+01  0.00000000000E+00 0.  1.
</event>
<event>
 7    1  0.3884463E-009  0.4778727E+02  0.7816164E-02  0.1312668E+00
        -11   -1    0    0    0    0  0.00000000000E+00  0.00000000000E+00  0.45593999997E+02  0.45594000000E+02  0.51100000000E-03 0. -1.
         11   -1    0    0    0    0 -0.00000000000E+00 -0.00000000000E+00 -0.45593999997E+02  0.45594000000E+02  0.51100000000E-03 0.  1.
    9900012    2    1    2    0    0 -0.12419417240E+02  0.21630012209E+02  0.35517943068E+02  0.47787266912E+02  0.19999981160E+02 0.  0.
        -12    1    1    2    0    0  0.12419417240E+02 -0.21630012209E+02 -0.35517943068E+02  0.43400733088E+02  0.00000000000E+00 0.  1.
         11    1    3    3    0    0 -0.40997845560E+01  0.12306817270E+01  0.86115736732E+01  0.96167568499E+01  0.51100000000E-03 0. -1.
        -11    1    3    3    0    0 -0.60068949332E+01  0.21866900212E+02  0.27203078058E+02  0.35415414267E+02  0.51100000000E-03 0.  1.
        -12    1    3    3    0    0 -0.23127377503E+01 -0.14675697294E+01 -0.29670866279E+00  0.27550957956E+01  0.00000000000E+00 0.  1.
</event>
<event>
 7    1  0.3884463E-009  0.4778727E+02  0.7816164E-02  0.1312668E+00
        -11   -1    0    0    0    0  0.00000000000E+00  0.00000000000E+00  0.45593999997E+02  0.45594000000E+02  0.51100000000E-03 0.  1.
         11   -1    0    0    0    0 -0.00000000000E+00 -0.00000000000E+00 -0.45593999997E+02  0.45594000000E+02  0.51100000000E-03 0. -1.
    9900012    2    1    2    0    0  0.39423409790E+02  0.36168446764E-01 -0.18149840866E+02  0.47787271077E+02  0.20000000147E+02 0.  0.
        -12    1    1    2    0    0 -0.39423409790E+02 -0.36168446764E-01  0.18149840866E+02  0.43400728923E+02  0.00000000000E+00 0.  1.
         11    1    3    3    0    0  0.75244860353E+01 -0.17336658114E+01  0.84044067941E+00  0.77672278219E+01  0.51100000000E-03 0. -1.
        -11    1    3    3    0    0  0.14926022138E+02 -0.24514953080E+01 -0.13615183703E+01  0.15187155712E+02  0.51100000000E-03 0.  1.
         12    1    3    3    0    0  0.16972901617E+02  0.42213295662E+01 -0.17628763175E+02  0.24832887542E+02  0.00000000000E+00 0. -1.
</event>
<event>
 7    1  0.3884463E-009  0.4778727E+02  0.7816164E-02  0.1312668E+00
        -11   -1    0    0    0    0  0.00000000000E+00  0.00000000000E+00  0.45593999997E+02  0.45594000000E+02  0.51100000000E-03 0. -1.
         11   -1    0    0    0    0 -0.00000000000E+00 -0.00000000000E+00 -0.45593999997E+02  0.45594000000E+02  0.51100000000E-03 0.  1.
    9900012    2    1    2    0    0  0.18789290383E+02 -0.35556515847E+02  0.16319305369E+02  0.47787274430E+02  0.20000015438E+02 0.  0.
        -12    1    1    2    0    0 -0.18789290383E+02  0.35556515847E+02 -0.16319305369E+02  0.43400725570E+02  0.00000000000E+00 0.  1.
         11    1    3    3    0    0  0.15904537971E+01 -0.48557543968E+01  0.35054806187E+01  0.61964738902E+01  0.51100000000E-03 0. -1.
        -11    1    3    3    0    0  0.98114142887E+01 -0.20587498019E+02 -0.11481320662E+01  0.22834779012E+02  0.51100000000E-03 0.  1.
         12    1    3    3    0    0  0.73874222975E+01 -0.10113263431E+02  0.13961956816E+02  0.18756021528E+02  0.00000000000E+00 0. -1.
</event>
<event>
 7    1  0.3884463E-009  0.4778727E+02  0.7816164E-02  0.1312668E+00
        -11   -1    0    0    0    0  0.00000000000E+00  0.00000000000E+00  0.45593999997E+02  0.45594000000E+02  0.51100000000E-03 0. -1.
         11   -1    0    0    0    0 -0.00000000000E+00 -0.00000000000E+00 -0.45593999997E+02  0.45594000000E+02  0.51100000000E-03 0.  1.
    9900012    2    1    2    0    0  0.24339796098E+02  0.13441665859E+02  0.33324454162E+02  0.47787270739E+02  0.19999998609E+02 0.  0.
        -12    1    1    2    0    0 -0.24339796098E+02 -0.13441665859E+02 -0.33324454162E+02  0.43400729261E+02  0.00000000000E+00 0.  1.
         11    1    3    3    0    0  0.10644640586E+02  0.53051532903E+01  0.13168845969E+02  0.17744619721E+02  0.51100000000E-03 0. -1.
        -11    1    3    3    0    0  0.54087280158E+01  0.11361678292E+02  0.77468103534E+01  0.14776844835E+02  0.51100000000E-03 0.  1.
         12    1    3    3    0    0  0.82864274965E+01 -0.32251657231E+01  0.12408797840E+02  0.15265806183E+02  0.00000000000E+00 0. -1.
</event>
<event>
 7    1  0.3884463E-009  0.4778727E+02  0.7816164E-02  0.1312668E+00
        -11   -1    0    0    0    0  0.00000000000E+00  0.00000000000E+00  0.45593999997E+02  0.45594000000E+02  0.51100000000E-03 0.  1.
         11   -1    0    0    0    0 -0.00000000000E+00 -0.00000000000E+00 -0.45593999997E+02  0.45594000000E+02  0.51100000000E-03 0. -1.
    9900012    2    1    2    0    0  0.29510429270E+02 -0.29870065255E+02 -0.10978955232E+02  0.47787266227E+02  0.19999978034E+02 0.  0.
        -12    1    1    2    0    0 -0.29510429270E+02  0.29870065255E+02  0.10978955232E+02  0.43400733773E+02  0.00000000000E+00 0.  1.
         11    1    3    3    0    0  0.47370564450E+01 -0.15257172558E+02 -0.50111746514E+01  0.16743144563E+02  0.51100000000E-03 0. -1.
        -11    1    3    3    0    0  0.19381081935E+01 -0.51256419108E+01 -0.26760141970E+01  0.60983211305E+01  0.51100000000E-03 0.  1.
        -12    1    3    3    0    0  0.22835264632E+02 -0.94872507865E+01 -0.32917663837E+01  0.24945800533E+02  0.00000000000E+00 0.  1.
</event>
<event>
 7    1  0.3884463E-009  0.4778727E+02  0.7816164E-02  0.1312668E+00
        -11   -1    0    0    0    0  0.00000000000E+00  0.00000000000E+00  0.45593999997E+02  0.45594000000E+02  0.51100000000E-03 0.  1.
         11   -1    0    0    0    0 -0.00000000000E+00 -0.00000000000E+00 -0.45593999997E+02  0.45594000000E+02  0.51100000000E-03 0. -1.
    9900012    2    1    2    0    0  0.32297726849E+02 -0.55162137624E+01 -0.28461402111E+02  0.47787272080E+02  0.20000004721E+02 0.  0.
        -12    1    1    2    0    0 -0.32297726849E+02  0.55162137624E+01  0.28461402111E+02  0.43400727920E+02  0.00000000000E+00 0.  1.
         11    1    3    3    0    0  0.89253330973E-02 -0.23229519560E+01 -0.17025965577E+01  0.28801077672E+01  0.51100000000E-03 0. -1.
        -11    1    3    3    0    0  0.15532202452E+02 -0.79221380782E+01 -0.76041390632E+01  0.19021895697E+02  0.51100000000E-03 0.  1.
         12    1    3    3    0    0  0.16756599064E+02  0.47288762718E+01 -0.19154666490E+02  0.25885268616E+02  0.00000000000E+00 0. -1.
</event>
<event>
 7    1  0.3884463E-009  0.4778727E+02  0.7816164E-02  0.1312668E+00
        -11   -1    0    0    0    0  0.00000000000E+00  0.00000000000E+00  0.45593999997E+02  0.45594000000E+02  0.51100000000E-03 0. -1.
         11   -1    0    0    0    0 -0.00000000000E+00 -0.00000000000E+00 -0.45593999997E+02  0.45594000000E+02  0.51100000000E-03 0.  1.
    9900012    2    1    2    0    0 -0.33622669875E+02 -0.26534794126E+02  0.70031416168E+01  0.47787271650E+02  0.20000002761E+02 0.  0.
        -12    1    1    2    0    0  0.33622669875E+02  0.26534794126E+02 -0.70031416168E+01  0.43400728350E+02  0.00000000000E+00 0.  1.
         11    1    3    3    0    0 -0.23549070948E+02 -0.16274118587E+02 -0.15256491332E+01  0.28665890599E+02  0.51100000000E-03 0. -1.
        -11    1    3    3    0    0 -0.16346747289E+01  0.13131676543E+01 -0.54372552014E+00  0.21661506088E+01  0.51100000000E-03 0.  1.
         12    1    3    3    0    0 -0.84389241984E+01 -0.11573843193E+02  0.90725162702E+01  0.16955230442E+02  0.00000000000E+00 0. -1.
</event>
<event>
 7    1  0.3884463E-009  0.4778727E+02  0.7816164E-02  0.1312668E+00
        -11   -1    0    0    0    0  0.00000000000E+00  0.00000000000E+00  0.45593999997E+02  0.45594000000E+02  0.51100000000E-03 0.  1.
         11   -1    0    0    0    0 -0.00000000000E+00 -0.00000000000E+00 -0.45593999997E+02  0.45594000000E+02  0.51100000000E-03 0. -1.
    9900012    2    1    2    0    0 -0.49821483063E+01  0.32154041079E+02 -0.28721402257E+02  0.47787272966E+02  0.20000008763E+02 0.  0.
        -12    1    1    2    0    0  0.49821483063E+01 -0.32154041079E+02  0.28721402257E+02  0.43400727034E+02  0.00000000000E+00 0.  1.
         11    1    3    3    0    0 -0.58898825196E+01  0.94346350730E+01 -0.13215407150E+02  0.17272812204E+02  0.51100000000E-03 0. -1.
        -11    1    3    3    0    0  0.25722918793E+01 -0.80358784572E+00 -0.17617302997E+01  0.32196479385E+01  0.51100000000E-03 0.  1.
        -12    1    3    3    0    0 -0.16645576660E+01  0.23522993852E+02 -0.13744264807E+02  0.27294812824E+02  0.00000000000E+00 0.  1.
</event>
<event>
 7    1  0.3884463E-009  0.4778727E+02  0.7816164E-02  0.1312668E+00
        -11   -1    0    0    0    0  0.00000000000E+00  0.00000000000E+00  0.45593999997E+02  0.45594000000E+02  0.51100000000E-03 0.  1.
         11   -1    0    0    0    0 -0.00000000000E+00 -0.00000000000E+00 -0.45593999997E+02  0.45594000000E+02  0.51100000000E-03 0. -1.
    9900012    2    1    2    0    0  0.61720539661E+01 -0.87017396110E+01 -0.42069093715E+02  0.47787272260E+02  0.20000005541E+02 0.  0.
        -12    1    1    2    0    0 -0.61720539661E+01  0.87017396110E+01  0.42069093715E+02  0.43400727740E+02  0.00000000000E+00 0.  1.
         11    1    3    3    0    0  0.54316888753E+01  0.25899092502E-02 -0.32258547790E+02  0.32712645208E+02  0.51100000000E-03 0. -1.
        -11    1    3    3    0    0 -0.23189499594E+01 -0.10596314661E+01 -0.41768671741E+00  0.25835654072E+01  0.51100000000E-03 0.  1.
        -12    1    3    3    0    0  0.30593150502E+01 -0.76446980541E+01 -0.93928592077E+01  0.12491061645E+02  0.00000000000E+00 0.  1.
</event>
<event>
 7    1  0.3884463E-009  0.4778727E+02  0.7816164E-02  0.1312668E+00
        -11   -1    0    0    0    0  0.00000000000E+00  0.00000000000E+00  0.45593999997E+02  0.45594000000E+02  0.51100000000E-03 0. -1.
         11   -1    0    0    0    0 -0.00000000000E+00 -0.00000000000E+00 -0.45593999997E+02  0.45594000000E+02  0.51100000000E-03 0.  1.
    9900012    2    1    2    0    0 -0.37789432467E+01 -0.83824644186E+01  0.42415530593E+02  0.47787270083E+02  0.19999995618E+02 0.  0.
        -12    1    1    2    0    0  0.37789432467E+01  0.83824644186E+01 -0.42415530593E+02  0.43400729917E+02  0.00000000000E+00 0.  1.
         11    1    3    3    0    0 -0.53794632211E+01 -0.64139846916E+01  0.26727876978E+02  0.28008163670E+02  0.51100000000E-03 0. -1.
        -11    1    3    3    0    0 -0.41491305182E+01 -0.41728796432E+01  0.79163879687E+01  0.98639448146E+01  0.51100000000E-03 0.  1.
        -12    1    3    3    0    0  0.57496504925E+01  0.22043999161E+01  0.77712656465E+01  0.99151615985E+01  0.00000000000E+00 0.  1.
</event>
<event>
 7    1  0.3884463E-009  0.4778727E+02  0.7816164E-02  0.1312668E+00
        -11   -1    0    0    0    0  0.00000000000E+00  0.00000000000E+00  0.45593999997E+02  0.45594000000E+02  0.51100000000E-03 0.  1.
         11   -1    0    0    0    0 -0.00000000000E+00 -0.00000000000E+00 -0.45593999997E+02  0.45594000000E+02  0.51100000000E-03 0. -1.
    9900012    2    1    2    0    0 -0.37036066827E+02 -0.65316004144E+01  0.21663133631E+02  0.47787269491E+02  0.19999992918E+02 0.  0.
        -12    1    1    2    0    0  0.37036066827E+02  0.65316004144E+01 -0.21663133631E+02  0.43400730509E+02  0.00000000000E+00 0.  1.
         11    1    3    3    0    0 -0.95318996718E+01  0.37131769108E+01  0.38421039932E+01  0.10927330757E+02  0.51100000000E-03 0. -1.
        -11    1    3    3    0    0  0.13909224486E+01 -0.21801199455E+00  0.19409217685E+01  0.23977848236E+01  0.51100000000E-03 0.  1.
         12    1    3    3    0    0 -0.28895089603E+02 -0.10026765331E+02  0.15880107870E+02  0.34462153910E+02  0.00000000000E+00 0. -1.
</event>
<event>
 7    1  0.3884463E-009  0.4778726E+02  0.7816164E-02  0.1312668E+00
        -11   -1    0    0    0    0  0.00000000000E+00  0.00000000000E+00  0.45593999997E+02  0.45594000000E+02  0.51100000000E-03 0.  1.
         11   -1    0    0    0    0 -0.00000000000E+00 -0.00000000000E+00 -0.45593999997E+02  0.45594000000E+02  0.51100000000E-03 0. -1.
    9900012    2    1    2    0    0  0.15563183368E+01  0.43268232496E+02 -0.30103775132E+01  0.47787257577E+02  0.19999938596E+02 0.  0.
        -12    1    1    2    0    0 -0.15563183368E+01 -0.43268232496E+02  0.30103775132E+01  0.43400742423E+02  0.00000000000E+00 0.  1.
         11    1    3    3    0    0 -0.26470035396E+01  0.13904562943E+02 -0.19265115783E+01  0.14284780205E+02  0.51100000000E-03 0. -1.
        -11    1    3    3    0    0 -0.16129198188E+01  0.24815585890E+01  0.45493941467E+01  0.54273963128E+01  0.51100000000E-03 0.  1.
         12    1    3    3    0    0  0.58162416952E+01  0.26882110964E+02 -0.56332600816E+01  0.28075081059E+02  0.00000000000E+00 0. -1.
</event>
<event>
 7    1  0.3884463E-009  0.4778727E+02  0.7816164E-02  0.1312668E+00
        -11   -1    0    0    0    0  0.00000000000E+00  0.00000000000E+00  0.45593999997E+02  0.45594000000E+02  0.51100000000E-03 0.  1.
         11   -1    0    0    0    0 -0.00000000000E+00 -0.00000000000E+00 -0.45593999997E+02  0.45594000000E+02  0.51100000000E-03 0. -1.
    9900012    2    1    2    0    0 -0.29242115875E+02 -0.32017923717E+02  0.18369303342E+01  0.47787273127E+02  0.20000009497E+02 0.  0.
        -12    1    1    2    0    0  0.29242115875E+02  0.32017923717E+02 -0.18369303342E+01  0.43400726873E+02  0.00000000000E+00 0.  1.
         11    1    3    3    0    0 -0.12534063640E+02 -0.10717785569E+02 -0.20220905705E+01  0.16615129532E+02  0.51100000000E-03 0. -1.
        -11    1    3    3    0    0 -0.10990329899E+02 -0.16340888170E+02 -0.41790106634E+01  0.20131470584E+02  0.51100000000E-03 0.  1.
        -12    1    3    3    0    0 -0.57177223365E+01 -0.49592499779E+01  0.80380315681E+01  0.11040673012E+02  0.00000000000E+00 0.  1.
</event>
<event>
 7    1  0.3884463E-009  0.4778727E+02  0.7816164E-02  0.1312668E+00
        -11   -1    0    0    0    0  0.00000000000E+00  0.00000000000E+00  0.45593999997E+02  0.45594000000E+02  0.51100000000E-03 0.  1.
         11   -1    0    0    0    0 -0.00000000000E+00 -0.00000000000E+00 -0.45593999997E+02  0.45594000000E+02  0.51100000000E-03 0. -1.
    9900012    2    1    2    0    0  0.24141702072E+01 -0.34971547954E+02 -0.25588787445E+02  0.47787269280E+02  0.19999991955E+02 0.  0.
        -12    1    1    2    0    0 -0.24141702072E+01  0.34971547954E+02  0.25588787445E+02  0.43400730720E+02  0.00000000000E+00 0.  1.
         11    1    3    3    0    0  0.22463567049E+01 -0.37316807992E+01 -0.77195185053E+01  0.88635504313E+01  0.51100000000E-03 0. -1.
        -11    1    3    3    0    0  0.73755261266E+01 -0.13905186604E+02 -0.93491018592E+01  0.18307329296E+02  0.51100000000E-03 0.  1.
         12    1    3    3    0    0 -0.72077126242E+01 -0.17334680551E+02 -0.85201670806E+01  0.20616389552E+02  0.00000000000E+00 0. -1.
</event>
<event>
 7    1  0.3884463E-009  0.4778727E+02  0.7816164E-02  0.1312668E+00
        -11   -1    0    0    0    0  0.00000000000E+00  0.00000000000E+00  0.45593999997E+02  0.45594000000E+02  0.51100000000E-03 0.  1.
         11   -1    0    0    0    0 -0.00000000000E+00 -0.00000000000E+00 -0.45593999997E+02  0.45594000000E+02  0.51100000000E-03 0. -1.
    9900012    2    1    2    0    0 -0.29524278485E+02  0.31705073160E+02 -0.25939253958E+01  0.47787272667E+02  0.20000007396E+02 0.  0.
        -12    1    1    2    0    0  0.29524278485E+02 -0.31705073160E+02  0.25939253958E+01  0.43400727333E+02  0.00000000000E+00 0.  1.
         11    1    3    3    0    0 -0.13312492319E+02  0.19040847873E+02  0.26285798761E+01  0.23381312450E+02  0.51100000000E-03 0.  1.
        -11    1    3    3    0    0 -0.12534566502E+02  0.96209791600E+01  0.18121596089E+01  0.15904795506E+02  0.51100000000E-03 0. -1.
        -12    1    3    3    0    0 -0.36772196641E+01  0.30432461271E+01 -0.70346648808E+01  0.85011647104E+01  0.00000000000E+00 0.  1.
</event>
<event>
 7    1  0.3884463E-009  0.4778728E+02  0.7816164E-02  0.1312668E+00
        -11   -1    0    0    0    0  0.00000000000E+00  0.00000000000E+00  0.45593999997E+02  0.45594000000E+02  0.51100000000E-03 0.  1.
         11   -1    0    0    0    0 -0.00000000000E+00 -0.00000000000E+00 -0.45593999997E+02  0.45594000000E+02  0.51100000000E-03 0. -1.
    9900012    2    1    2    0    0 -0.16405674957E+02 -0.24297848599E+02 -0.32001421785E+02  0.47787278651E+02  0.20000034683E+02 0.  0.
        -12    1    1    2    0    0  0.16405674957E+02  0.24297848599E+02  0.32001421785E+02  0.43400721349E+02  0.00000000000E+00 0.  1.
         11    1    3    3    0    0  0.26518506453E+01 -0.81616561042E+01 -0.11572898196E+02  0.14407529806E+02  0.51100000000E-03 0.  1.
        -11    1    3    3    0    0 -0.46049388903E+00 -0.28822559514E+01 -0.50980338511E+01  0.58744704782E+01  0.51100000000E-03 0. -1.
        -12    1    3    3    0    0 -0.18597031713E+02 -0.13253936543E+02 -0.15330489738E+02  0.27505278367E+02  0.00000000000E+00 0.  1.
</event>
<event>
 7    1  0.3884463E-009  0.4778727E+02  0.7816164E-02  0.1312668E+00
        -11   -1    0    0    0    0  0.00000000000E+00  0.00000000000E+00  0.45593999997E+02  0.45594000000E+02  0.51100000000E-03 0. -1.
         11   -1    0    0    0    0 -0.00000000000E+00 -0.00000000000E+00 -0.45593999997E+02  0.45594000000E+02  0.51100000000E-03 0.  1.
    9900012    2    1    2    0    0 -0.33750336763E+01 -0.30132366554E+01  0.43164255451E+02  0.47787269636E+02  0.19999993580E+02 0.  0.
        -12    1    1    2    0    0  0.33750336763E+01  0.30132366554E+01 -0.43164255451E+02  0.43400730364E+02  0.00000000000E+00 0.  1.
         11    1    3    3    0    0 -0.28188395041E+01 -0.45259935608E+01  0.22342661554E+02  0.22970089234E+02  0.51100000000E-03 0.  1.
        -11    1    3    3    0    0  0.14039834540E+01 -0.17913416323E+01  0.20851426747E+02  0.20975272871E+02  0.51100000000E-03 0. -1.
        -12    1    3    3    0    0 -0.19601776262E+01  0.33040985377E+01 -0.29832849883E-01  0.38419075304E+01  0.00000000000E+00 0.  1.
</event>
<event>
 7    1  0.3884463E-009  0.4778727E+02  0.7816164E-02  0.1312668E+00
        -11   -1    0    0    0    0  0.00000000000E+00  0.00000000000E+00  0.45593999997E+02  0.45594000000E+02  0.51100000000E-03 0. -1.
         11   -1    0    0    0    0 -0.00000000000E+00 -0.00000000000E+00 -0.45593999997E+02  0.45594000000E+02  0.51100000000E-03 0.  1.
    9900012    2    1    2    0    0 -0.31526855339E+02 -0.24794697992E+02 -0.16580217675E+02  0.47787271040E+02  0.19999999981E+02 0.  0.
        -12    1    1    2    0    0  0.31526855339E+02  0.24794697992E+02  0.16580217675E+02  0.43400728960E+02  0.00000000000E+00 0.  1.
         11    1    3    3    0    0 -0.12245480695E+02 -0.14287316566E+02 -0.48997157242E+01  0.19444444619E+02  0.51100000000E-03 0. -1.
        -11    1    3    3    0    0  0.17600755427E+01 -0.26235714978E+01 -0.35228276410E+00  0.31788514792E+01  0.51100000000E-03 0.  1.
         12    1    3    3    0    0 -0.21041450187E+02 -0.78838099284E+01 -0.11328219187E+02  0.25163974942E+02  0.00000000000E+00 0. -1.
</event>
<event>
 7    1  0.3884463E-009  0.4778726E+02  0.7816164E-02  0.1312668E+00
        -11   -1    0    0    0    0  0.00000000000E+00  0.00000000000E+00  0.45593999997E+02  0.45594000000E+02  0.51100000000E-03 0.  1.
         11   -1    0    0    0    0 -0.00000000000E+00 -0.00000000000E+00 -0.45593999997E+02  0.45594000000E+02  0.51100000000E-03 0. -1.
    9900012    2    1    2    0    0 -0.17983554906E+02 -0.10834536681E+02 -0.37984583240E+02  0.47787262724E+02  0.19999962065E+02 0.  0.
        -12    1    1    2    0    0  0.17983554906E+02  0.10834536681E+02  0.37984583240E+02  0.43400737276E+02  0.00000000000E+00 0.  1.
         11    1    3    3    0    0 -0.47395428547E+01 -0.14299328583E+01 -0.78643631809E+01  0.92928027502E+01  0.51100000000E-03 0. -1.
        -11    1    3    3    0    0  0.30746793095E+01  0.10453398247E+00 -0.16351728257E+00  0.30807983336E+01  0.51100000000E-03 0.  1.
        -12    1    3    3    0    0 -0.16318691361E+02 -0.95091378052E+01 -0.29956702777E+02  0.35413661640E+02  0.00000000000E+00 0.  1.
</event>
<event>
 7    1  0.3884463E-009  0.4778727E+02  0.7816164E-02  0.1312668E+00
        -11   -1    0    0    0    0  0.00000000000E+00  0.00000000000E+00  0.45593999997E+02  0.45594000000E+02  0.51100000000E-03 0. -1.
         11   -1    0    0    0    0 -0.00000000000E+00 -0.00000000000E+00 -0.45593999997E+02  0.45594000000E+02  0.51100000000E-03 0.  1.
    9900012    2    1    2    0    0  0.14681551120E+02 -0.76169736933E+01  0.40125516296E+02  0.47787270864E+02  0.19999999175E+02 0.  0.
        -12    1    1    2    0    0 -0.14681551120E+02  0.76169736933E+01 -0.40125516296E+02  0.43400729136E+02  0.00000000000E+00 0.  1.
         11    1    3    3    0    0  0.94114565052E+01 -0.17558293509E+01  0.10511565459E+02  0.14217997712E+02  0.51100000000E-03 0. -1.
        -11    1    3    3    0    0  0.66571809200E+01 -0.25626933891E+01  0.50353303340E+01  0.87315523844E+01  0.51100000000E-03 0.  1.
         12    1    3    3    0    0 -0.13870863050E+01 -0.32984509533E+01  0.24578620503E+02  0.24837720768E+02  0.00000000000E+00 0. -1.
</event>
<event>
 7    1  0.3884463E-009  0.4778727E+02  0.7816164E-02  0.1312668E+00
        -11   -1    0    0    0    0  0.00000000000E+00  0.00000000000E+00  0.45593999997E+02  0.45594000000E+02  0.51100000000E-03 0.  1.
         11   -1    0    0    0    0 -0.00000000000E+00 -0.00000000000E+00 -0.45593999997E+02  0.45594000000E+02  0.51100000000E-03 0. -1.
    9900012    2    1    2    0    0  0.12564719820E+02  0.41276616845E+02 -0.46895620987E+01  0.47787271031E+02  0.19999999940E+02 0.  0.
        -12    1    1    2    0    0 -0.12564719820E+02 -0.41276616845E+02  0.46895620987E+01  0.43400728969E+02  0.00000000000E+00 0.  1.
         11    1    3    3    0    0  0.10026595846E+02  0.65078023513E+01 -0.73678663341E+00  0.11976099971E+02  0.51100000000E-03 0. -1.
        -11    1    3    3    0    0  0.14322876523E+01  0.49845888797E+01  0.17345290800E+01  0.54686529977E+01  0.51100000000E-03 0.  1.
         12    1    3    3    0    0  0.11058363216E+01  0.29784225614E+02 -0.56873045453E+01  0.30342518063E+02  0.00000000000E+00 0. -1.
</event>
<event>
 7    1  0.3884463E-009  0.4778727E+02  0.7816164E-02  0.1312668E+00
        -11   -1    0    0    0    0  0.00000000000E+00  0.00000000000E+00  0.45593999997E+02  0.45594000000E+02  0.51100000000E-03 0. -1.
         11   -1    0    0    0    0 -0.00000000000E+00 -0.00000000000E+00 -0.45593999997E+02  0.45594000000E+02  0.51100000000E-03 0.  1.
    9900012    2    1    2    0    0  0.42218326276E+02 -0.73206378898E+01  0.69024876643E+01  0.47787272488E+02  0.20000006580E+02 0.  0.
        -12    1    1    2    0    0 -0.42218326276E+02  0.73206378898E+01 -0.69024876643E+01  0.43400727512E+02  0.00000000000E+00 0.  1.
         11    1    3    3    0    0  0.11854963417E+02  0.11002485447E+01  0.39467332162E+01  0.12543022276E+02  0.51100000000E-03 0. -1.
        -11    1    3    3    0    0  0.16276722348E+02  0.32709093203E+01  0.33347636834E+01  0.16933729278E+02  0.51100000000E-03 0.  1.
        -12    1    3    3    0    0  0.14086640512E+02 -0.11691795755E+02 -0.37900923537E+00  0.18310520934E+02  0.00000000000E+00 0.  1.
</event>
<event>
 7    1  0.3884463E-009  0.4778727E+02  0.7816164E-02  0.1312668E+00
        -11   -1    0    0    0    0  0.00000000000E+00  0.00000000000E+00  0.45593999997E+02  0.45594000000E+02  0.51100000000E-03 0.  1.
         11   -1    0    0    0    0 -0.00000000000E+00 -0.00000000000E+00 -0.45593999997E+02  0.45594000000E+02  0.51100000000E-03 0. -1.
    9900012    2    1    2    0    0  0.12756022579E+02  0.40939441769E+02 -0.66984460094E+01  0.47787272087E+02  0.20000004755E+02 0.  0.
        -12    1    1    2    0    0 -0.12756022579E+02 -0.40939441769E+02  0.66984460094E+01  0.43400727913E+02  0.00000000000E+00 0.  1.
         11    1    3    3    0    0  0.21453664003E+01  0.13177646206E+02 -0.84315654123E+01  0.15790638115E+02  0.51100000000E-03 0. -1.
        -11    1    3    3    0    0  0.86399779320E+01  0.14612914567E+02 -0.41211160136E+01  0.17469118131E+02  0.51100000000E-03 0.  1.
        -12    1    3    3    0    0  0.19706782465E+01  0.13148880997E+02  0.58542354165E+01  0.14527515842E+02  0.00000000000E+00 0.  1.
</event>
<event>
 7    1  0.3884463E-009  0.4778727E+02  0.7816164E-02  0.1312668E+00
        -11   -1    0    0    0    0  0.00000000000E+00  0.00000000000E+00  0.45593999997E+02  0.45594000000E+02  0.51100000000E-03 0. -1.
         11   -1    0    0    0    0 -0.00000000000E+00 -0.00000000000E+00 -0.45593999997E+02  0.45594000000E+02  0.51100000000E-03 0.  1.
    9900012    2    1    2    0    0  0.11643155529E+02  0.38096835943E+02  0.17224728361E+02  0.47787271358E+02  0.20000001432E+02 0.  0.
        -12    1    1    2    0    0 -0.11643155529E+02 -0.38096835943E+02 -0.17224728361E+02  0.43400728642E+02  0.00000000000E+00 0.  1.
         11    1    3    3    0    0  0.12628550346E+01  0.76195484078E+00 -0.16519134954E+01  0.22145420464E+01  0.51100000000E-03 0.  1.
        -11    1    3    3    0    0 -0.48704903951E+00 -0.10684492956E+01  0.18278994438E+01  0.21725600802E+01  0.51100000000E-03 0. -1.
         12    1    3    3    0    0  0.10867349534E+02  0.38403330398E+02  0.17048742412E+02  0.43400169232E+02  0.00000000000E+00 0. -1.
</event>
<event>
 7    1  0.3884463E-009  0.4778727E+02  0.7816164E-02  0.1312668E+00
        -11   -1    0    0    0    0  0.00000000000E+00  0.00000000000E+00  0.45593999997E+02  0.45594000000E+02  0.51100000000E-03 0.  1.
         11   -1    0    0    0    0 -0.00000000000E+00 -0.00000000000E+00 -0.45593999997E+02  0.45594000000E+02  0.51100000000E-03 0. -1.
    9900012    2    1    2    0    0 -0.40749652191E+01 -0.14938738073E+02 -0.40544444761E+02  0.47787271460E+02  0.20000001897E+02 0.  0.
        -12    1    1    2    0    0  0.40749652191E+01  0.14938738073E+02  0.40544444761E+02  0.43400728540E+02  0.00000000000E+00 0.  1.
         11    1    3    3    0    0  0.30386309965E+01 -0.99408880298E+01 -0.24983222693E+02  0.27059489085E+02  0.51100000000E-03 0. -1.
        -11    1    3    3    0    0 -0.51158791291E+01 -0.74755736166E+01 -0.14959901041E+02  0.17488712348E+02  0.51100000000E-03 0.  1.
        -12    1    3    3    0    0 -0.19977170865E+01  0.24777235735E+01 -0.60132102679E+00  0.32390700273E+01  0.00000000000E+00 0.  1.
</event>
<event>
 7    1  0.3884463E-009  0.4778727E+02  0.7816164E-02  0.1312668E+00
        -11   -1    0    0    0    0  0.00000000000E+00  0.00000000000E+00  0.45593999997E+02  0.45594000000E+02  0.51100000000E-03 0.  1.
         11   -1    0    0    0    0 -0.00000000000E+00 -0.00000000000E+00 -0.45593999997E+02  0.45594000000E+02  0.51100000000E-03 0. -1.
    9900012    2    1    2    0    0  0.32220061314E+02  0.60015468250E+01 -0.28451236046E+02  0.47787265583E+02  0.19999975100E+02 0.  0.
        -12    1    1    2    0    0 -0.32220061314E+02 -0.60015468250E+01  0.28451236046E+02  0.43400734417E+02  0.00000000000E+00 0.  1.
         11    1    3    3    0    0  0.69118469652E+01  0.62552024417E+00 -0.23868107139E+01  0.73390578204E+01  0.51100000000E-03 0. -1.
        -11    1    3    3    0    0  0.15899092997E+01 -0.41887474081E+01 -0.90093289668E+00  0.45700215290E+01  0.51100000000E-03 0.  1.
         12    1    3    3    0    0  0.23718305049E+02  0.95647739889E+01 -0.25163492436E+02  0.35878186234E+02  0.00000000000E+00 0. -1.
</event>
<event>
 7    1  0.3884463E-009  0.4778727E+02  0.7816164E-02  0.1312668E+00
        -11   -1    0    0    0    0  0.00000000000E+00  0.00000000000E+00  0.45593999997E+02  0.45594000000E+02  0.51100000000E-03 0.  1.
         11   -1    0    0    0    0 -0.00000000000E+00 -0.00000000000E+00 -0.45593999997E+02  0.45594000000E+02  0.51100000000E-03 0. -1.
    9900012    2    1    2    0    0 -0.92277498998E+01 -0.42093385832E+02 -0.51593448362E+01  0.47787270304E+02  0.19999996625E+02 0.  0.
        -12    1    1    2    0    0  0.92277498998E+01  0.42093385832E+02  0.51593448362E+01  0.43400729696E+02  0.00000000000E+00 0.  1.
         11    1    3    3    0    0 -0.56463759444E+01 -0.21000855262E+02 -0.11424234961E+00  0.21746966101E+02  0.51100000000E-03 0. -1.
        -11    1    3    3    0    0 -0.28440587962E+01 -0.12557486310E+02  0.40969481204E+01  0.13511628956E+02  0.51100000000E-03 0.  1.
        -12    1    3    3    0    0 -0.73731515917E+00 -0.85350442597E+01 -0.91420506070E+01  0.12528675248E+02  0.00000000000E+00 0.  1.
</event>
<event>
 7    1  0.3884463E-009  0.4778728E+02  0.7816164E-02  0.1312668E+00
        -11   -1    0    0    0    0  0.00000000000E+00  0.00000000000E+00  0.45593999997E+02  0.45594000000E+02  0.51100000000E-03 0.  1.
         11   -1    0    0    0    0 -0.00000000000E+00 -0.00000000000E+00 -0.45593999997E+02  0.45594000000E+02  0.51100000000E-03 0. -1.
    9900012    2    1    2    0    0  0.31421863419E+02  0.14130768079E+02 -0.26393382905E+02  0.47787276868E+02  0.20000026551E+02 0.  0.
        -12    1    1    2    0    0 -0.31421863419E+02 -0.14130768079E+02  0.26393382905E+02  0.43400723132E+02  0.00000000000E+00 0.  1.
         11    1    3    3    0    0  0.88200474301E+00  0.68888081706E+00 -0.49543315513E+01  0.50791623845E+01  0.51100000000E-03 0. -1.
        -11    1    3    3    0    0  0.81732583874E+01 -0.51594749765E+00 -0.12354531530E+02  0.14822375116E+02  0.51100000000E-03 0.  1.
         12    1    3    3    0    0  0.22366600288E+02  0.13957834759E+02 -0.90845198240E+01  0.27885739367E+02  0.00000000000E+00 0. -1.
</event>
<event>
 7    1  0.3884463E-009  0.4778727E+02  0.7816164E-02  0.1312668E+00
        -11   -1    0    0    0    0  0.00000000000E+00  0.00000000000E+00  0.45593999997E+02  0.45594000000E+02  0.51100000000E-03 0.  1.
         11   -1    0    0    0    0 -0.00000000000E+00 -0.00000000000E+00 -0.45593999997E+02  0.45594000000E+02  0.51100000000E-03 0. -1.
    9900012    2    1    2    0    0  0.13098993418E+02  0.41292812646E+02 -0.26349934450E+01  0.47787271951E+02  0.20000004133E+02 0.  0.
        -12    1    1    2    0    0 -0.13098993418E+02 -0.41292812646E+02  0.26349934450E+01  0.43400728049E+02  0.00000000000E+00 0.  1.
         11    1    3    3    0    0  0.31550493268E+00  0.61269236972E+01 -0.37856662305E+01  0.72090225706E+01  0.51100000000E-03 0. -1.
        -11    1    3    3    0    0 -0.19887228249E+01  0.91403616959E+01  0.46543435882E+01  0.10448164667E+02  0.51100000000E-03 0.  1.
         12    1    3    3    0    0  0.14772211310E+02  0.26025527252E+02 -0.35036708026E+01  0.30130084714E+02  0.00000000000E+00 0. -1.
</event>
<event>
 7    1  0.3884463E-009  0.4778726E+02  0.7816164E-02  0.1312668E+00
        -11   -1    0    0    0    0  0.00000000000E+00  0.00000000000E+00  0.45593999997E+02  0.45594000000E+02  0.51100000000E-03 0.  1.
         11   -1    0    0    0    0 -0.00000000000E+00 -0.00000000000E+00 -0.45593999997E+02  0.45594000000E+02  0.51100000000E-03 0. -1.
    9900012    2    1    2    0    0  0.36558094267E+01  0.12289271233E+02 -0.41463637631E+02  0.47787258352E+02  0.19999942129E+02 0.  0.
        -12    1    1    2    0    0 -0.36558094267E+01 -0.12289271233E+02  0.41463637631E+02  0.43400741648E+02  0.00000000000E+00 0.  1.
         11    1    3    3    0    0  0.29511170171E+01  0.36406353345E+01 -0.39283818275E+01  0.61151861241E+01  0.51100000000E-03 0. -1.
        -11    1    3    3    0    0  0.27312167561E+01  0.11456591050E+02 -0.36011958896E+02  0.37888972106E+02  0.51100000000E-03 0.  1.
        -12    1    3    3    0    0 -0.20265243466E+01 -0.28079551516E+01 -0.15232969076E+01  0.37831001216E+01  0.00000000000E+00 0.  1.
</event>
<event>
 7    1  0.3884463E-009  0.4778727E+02  0.7816164E-02  0.1312668E+00
        -11   -1    0    0    0    0  0.00000000000E+00  0.00000000000E+00  0.45593999997E+02  0.45594000000E+02  0.51100000000E-03 0.  1.
         11   -1    0    0    0    0 -0.00000000000E+00 -0.00000000000E+00 -0.45593999997E+02  0.45594000000E+02  0.51100000000E-03 0. -1.
    9900012    2    1    2    0    0 -0.89766140623E+01 -0.18672016041E+02 -0.38136592414E+02  0.47787268854E+02  0.19999990013E+02 0.  0.
        -12    1    1    2    0    0  0.89766140623E+01  0.18672016041E+02  0.38136592414E+02  0.43400731146E+02  0.00000000000E+00 0.  1.
         11    1    3    3    0    0 -0.57845014697E+01 -0.72087631841E+01 -0.14546980108E+02  0.17234887712E+02  0.51100000000E-03 0. -1.
        -11    1    3    3    0    0 -0.66664158721E+01 -0.12069315421E+02 -0.11485969816E+02  0.17945388772E+02  0.51100000000E-03 0.  1.
         12    1    3    3    0    0  0.34743032795E+01  0.60606256374E+00 -0.12103642489E+02  0.12606992370E+02  0.00000000000E+00 0. -1.
</event>
<event>
 7    1  0.3884463E-009  0.4778726E+02  0.7816164E-02  0.1312668E+00
        -11   -1    0    0    0    0  0.00000000000E+00  0.00000000000E+00  0.45593999997E+02  0.45594000000E+02  0.51100000000E-03 0.  1.
         11   -1    0    0    0    0 -0.00000000000E+00 -0.00000000000E+00 -0.45593999997E+02  0.45594000000E+02  0.51100000000E-03 0. -1.
    9900012    2    1    2    0    0 -0.18499867942E+02  0.24194422592E+02 -0.30919389832E+02  0.47787264223E+02  0.19999968899E+02 0.  0.
        -12    1    1    2    0    0  0.18499867942E+02 -0.24194422592E+02  0.30919389832E+02  0.43400735777E+02  0.00000000000E+00 0.  1.
         11    1    3    3    0    0 -0.16218844941E+02  0.27367072989E+02 -0.24657218527E+02  0.40249050187E+02  0.51100000000E-03 0. -1.
        -11    1    3    3    0    0 -0.10356301983E+01 -0.64024041248E+00 -0.29217113903E+01  0.31652543978E+01  0.51100000000E-03 0.  1.
         12    1    3    3    0    0 -0.12453928027E+01 -0.25324099845E+01 -0.33404599143E+01  0.43729596387E+01  0.00000000000E+00 0. -1.
</event>
<event>
 7    1  0.3884463E-009  0.4778727E+02  0.7816164E-02  0.1312668E+00
        -11   -1    0    0    0    0  0.00000000000E+00  0.00000000000E+00  0.45593999997E+02  0.45594000000E+02  0.51100000000E-03 0.  1.
         11   -1    0    0    0    0 -0.00000000000E+00 -0.00000000000E+00 -0.45593999997E+02  0.45594000000E+02  0.51100000000E-03 0. -1.
    9900012    2    1    2    0    0  0.85215409708E+00 -0.29723121519E+02 -0.31613812784E+02  0.47787270995E+02  0.19999999774E+02 0.  0.
        -12    1    1    2    0    0 -0.85215409708E+00  0.29723121519E+02  0.31613812784E+02  0.43400729005E+02  0.00000000000E+00 0.  1.
         11    1    3    3    0    0 -0.77897120121E+00  0.12865033021E+01 -0.21477236162E+01  0.26219465806E+01  0.51100000000E-03 0. -1.
        -11    1    3    3    0    0 -0.56982646064E+01 -0.18875881468E+02 -0.20212482403E+02  0.28236741417E+02  0.51100000000E-03 0.  1.
         12    1    3    3    0    0  0.73293899046E+01 -0.12133743353E+02 -0.92536067649E+01  0.16928582997E+02  0.00000000000E+00 0. -1.
</event>
<event>
 7    1  0.3884463E-009  0.4778727E+02  0.7816164E-02  0.1312668E+00
        -11   -1    0    0    0    0  0.00000000000E+00  0.00000000000E+00  0.45593999997E+02  0.45594000000E+02  0.51100000000E-03 0. -1.
         11   -1    0    0    0    0 -0.00000000000E+00 -0.00000000000E+00 -0.45593999997E+02  0.45594000000E+02  0.51100000000E-03 0.  1.
    9900012    2    1    2    0    0 -0.18006212538E+02  0.37824256262E+02  0.11345724101E+02  0.47787268358E+02  0.19999987751E+02 0.  0.
        -12    1    1    2    0    0  0.18006212538E+02 -0.37824256262E+02 -0.11345724101E+02  0.43400731642E+02  0.00000000000E+00 0.  1.
         11    1    3    3    0    0 -0.10135758895E+02  0.25166803399E+02  0.98714168969E+01  0.28871204919E+02  0.51100000000E-03 0. -1.
        -11    1    3    3    0    0  0.42888448504E-01  0.36222639609E+01  0.52030740796E+01  0.63399223781E+01  0.51100000000E-03 0.  1.
        -12    1    3    3    0    0 -0.79133420914E+01  0.90351889023E+01 -0.37287668760E+01  0.12576141060E+02  0.00000000000E+00 0.  1.
</event>
<event>
 7    1  0.3884463E-009  0.4778727E+02  0.7816164E-02  0.1312668E+00
        -11   -1    0    0    0    0  0.00000000000E+00  0.00000000000E+00  0.45593999997E+02  0.45594000000E+02  0.51100000000E-03 0.  1.
         11   -1    0    0    0    0 -0.00000000000E+00 -0.00000000000E+00 -0.45593999997E+02  0.45594000000E+02  0.51100000000E-03 0. -1.
    9900012    2    1    2    0    0 -0.71623687226E+01  0.18539601530E+01 -0.42765484374E+02  0.47787270194E+02  0.19999996122E+02 0.  0.
        -12    1    1    2    0    0  0.71623687226E+01 -0.18539601530E+01  0.42765484374E+02  0.43400729806E+02  0.00000000000E+00 0.  1.
         11    1    3    3    0    0 -0.16616792110E+01  0.45727484564E+01 -0.21897397803E+02  0.22431389548E+02  0.51100000000E-03 0. -1.
        -11    1    3    3    0    0  0.37619997685E+01 -0.25709349977E+00 -0.10872433432E+02  0.11507760352E+02  0.51100000000E-03 0.  1.
         12    1    3    3    0    0 -0.92626892801E+01 -0.24616948036E+01 -0.99956531389E+01  0.13848120294E+02  0.00000000000E+00 0. -1.
</event>
<event>
 7    1  0.3884463E-009  0.4778727E+02  0.7816164E-02  0.1312668E+00
        -11   -1    0    0    0    0  0.00000000000E+00  0.00000000000E+00  0.45593999997E+02  0.45594000000E+02  0.51100000000E-03 0.  1.
         11   -1    0    0    0    0 -0.00000000000E+00 -0.00000000000E+00 -0.45593999997E+02  0.45594000000E+02  0.51100000000E-03 0. -1.
    9900012    2    1    2    0    0 -0.26203750020E+02  0.22686146818E+02 -0.26121358465E+02  0.47787272580E+02  0.20000007001E+02 0.  0.
        -12    1    1    2    0    0  0.26203750020E+02 -0.22686146818E+02  0.26121358465E+02  0.43400727420E+02  0.00000000000E+00 0.  1.
         11    1    3    3    0    0 -0.11192440224E+02  0.76203914271E+01 -0.28138983210E+01  0.13829645972E+02  0.51100000000E-03 0. -1.
        -11    1    3    3    0    0 -0.31391739264E+01  0.93015439070E+01 -0.40673919728E+01  0.10626232150E+02  0.51100000000E-03 0.  1.
        -12    1    3    3    0    0 -0.11872135869E+02  0.57642114842E+01 -0.19240068171E+02  0.23331394458E+02  0.00000000000E+00 0.  1.
</event>
<event>
 7    1  0.3884463E-009  0.4778731E+02  0.7816164E-02  0.1312668E+00
        -11   -1    0    0    0    0  0.00000000000E+00  0.00000000000E+00  0.45593999997E+02  0.45594000000E+02  0.51100000000E-03 0.  1.
         11   -1    0    0    0    0 -0.00000000000E+00 -0.00000000000E+00 -0.45593999997E+02  0.45594000000E+02  0.51100000000E-03 0. -1.
    9900012    2    1    2    0    0 -0.14403214132E+02  0.30957570366E+02 -0.26791722166E+02  0.47787307415E+02  0.20000165825E+02 0.  0.
        -12    1    1    2    0    0  0.14403214132E+02 -0.30957570366E+02  0.26791722166E+02  0.43400692585E+02  0.00000000000E+00 0.  1.
         11    1    3    3    0    0 -0.97107370917E+01  0.24630330696E+02 -0.11902650980E+02  0.29027998651E+02  0.51100000000E-03 0.  1.
        -11    1    3    3    0    0 -0.26633337153E+01  0.19496505685E+00 -0.15893904358E+00  0.26751859250E+01  0.51100000000E-03 0. -1.
         12    1    3    3    0    0 -0.20291433248E+01  0.61322746125E+01 -0.14730132142E+02  0.16084122839E+02  0.00000000000E+00 0. -1.
</event>
<event>
 7    1  0.3884463E-009  0.4778729E+02  0.7816164E-02  0.1312668E+00
        -11   -1    0    0    0    0  0.00000000000E+00  0.00000000000E+00  0.45593999997E+02  0.45594000000E+02  0.51100000000E-03 0.  1.
         11   -1    0    0    0    0 -0.00000000000E+00 -0.00000000000E+00 -0.45593999997E+02  0.45594000000E+02  0.51100000000E-03 0. -1.
    9900012    2    1    2    0    0  0.67728749280E+01 -0.31156775483E+02 -0.29444956381E+02  0.47787286301E+02  0.20000069562E+02 0.  0.
        -12    1    1    2    0    0 -0.67728749280E+01  0.31156775483E+02  0.29444956381E+02  0.43400713699E+02  0.00000000000E+00 0.  1.
         11    1    3    3    0    0  0.31296798911E+01 -0.11841811877E+02 -0.13066451563E+02  0.17909649954E+02  0.51100000000E-03 0. -1.
        -11    1    3    3    0    0  0.33841267101E+01 -0.75969443888E+01 -0.16137276666E+02  0.18154271566E+02  0.51100000000E-03 0.  1.
        -12    1    3    3    0    0  0.25906832680E+00 -0.11718019218E+02 -0.24122815167E+00  0.11723364782E+02  0.00000000000E+00 0.  1.
</event>
<event>
 7    1  0.3884463E-009  0.4778727E+02  0.7816164E-02  0.1312668E+00
        -11   -1    0    0    0    0  0.00000000000E+00  0.00000000000E+00  0.45593999997E+02  0.45594000000E+02  0.51100000000E-03 0. -1.
         11   -1    0    0    0    0 -0.00000000000E+00 -0.00000000000E+00 -0.45593999997E+02  0.45594000000E+02  0.51100000000E-03 0.  1.
    9900012    2    1    2    0    0 -0.35693753586E+02  0.20308169956E+02  0.14041279495E+02  0.47787270261E+02  0.19999996428E+02 0.  0.
        -12    1    1    2    0    0  0.35693753586E+02 -0.20308169956E+02 -0.14041279495E+02  0.43400729739E+02  0.00000000000E+00 0.  1.
         11    1    3    3    0    0 -0.91556555621E+00 -0.10754370296E+01  0.96988034381E+00  0.17133281165E+01  0.51100000000E-03 0. -1.
        -11    1    3    3    0    0 -0.12608536977E+02  0.15954413258E+02  0.11091864434E+02  0.23163505003E+02  0.51100000000E-03 0.  1.
        -12    1    3    3    0    0 -0.22169651053E+02  0.54291937273E+01  0.19795347170E+01  0.22910437142E+02  0.00000000000E+00 0.  1.
</event>
<event>
 7    1  0.3884463E-009  0.4778727E+02  0.7816164E-02  0.1312668E+00
        -11   -1    0    0    0    0  0.00000000000E+00  0.00000000000E+00  0.45593999997E+02  0.45594000000E+02  0.51100000000E-03 0.  1.
         11   -1    0    0    0    0 -0.00000000000E+00 -0.00000000000E+00 -0.45593999997E+02  0.45594000000E+02  0.51100000000E-03 0. -1.
    9900012    2    1    2    0    0 -0.21525154615E+02 -0.37475911992E+02  0.39808487351E+01  0.47787269389E+02  0.19999992454E+02 0.  0.
        -12    1    1    2    0    0  0.21525154615E+02  0.37475911992E+02 -0.39808487351E+01  0.43400730611E+02  0.00000000000E+00 0.  1.
         11    1    3    3    0    0 -0.85321404509E+01 -0.85579444383E+01 -0.39771782471E+01  0.12722176730E+02  0.51100000000E-03 0. -1.
        -11    1    3    3    0    0 -0.12502348705E+02 -0.25799763411E+02  0.25234154430E+01  0.28780273469E+02  0.51100000000E-03 0.  1.
        -12    1    3    3    0    0 -0.49066545963E+00 -0.31182041436E+01  0.54346115393E+01  0.62848191905E+01  0.00000000000E+00 0.  1.
</event>
<event>
 7    1  0.3884463E-009  0.4778727E+02  0.7816164E-02  0.1312668E+00
        -11   -1    0    0    0    0  0.00000000000E+00  0.00000000000E+00  0.45593999997E+02  0.45594000000E+02  0.51100000000E-03 0. -1.
         11   -1    0    0    0    0 -0.00000000000E+00 -0.00000000000E+00 -0.45593999997E+02  0.45594000000E+02  0.51100000000E-03 0.  1.
    9900012    2    1    2    0    0 -0.11366523172E+02  0.18803395187E+01  0.41843632078E+02  0.47787273379E+02  0.20000010644E+02 0.  0.
        -12    1    1    2    0    0  0.11366523172E+02 -0.18803395187E+01 -0.41843632078E+02  0.43400726621E+02  0.00000000000E+00 0.  1.
         11    1    3    3    0    0  0.13488585570E+00 -0.34126713480E+01  0.39485862093E+01  0.52207138628E+01  0.51100000000E-03 0. -1.
        -11    1    3    3    0    0  0.15648487682E+01  0.34966670170E+01  0.19924360864E+01  0.43180127043E+01  0.51100000000E-03 0.  1.
         12    1    3    3    0    0 -0.13066257796E+02  0.17963438498E+01  0.35902609783E+02  0.38248546812E+02  0.00000000000E+00 0. -1.
</event>
<event>
 7    1  0.3884463E-009  0.4778727E+02  0.7816164E-02  0.1312668E+00
        -11   -1    0    0    0    0  0.00000000000E+00  0.00000000000E+00  0.45593999997E+02  0.45594000000E+02  0.51100000000E-03 0.  1.
         11   -1    0    0    0    0 -0.00000000000E+00 -0.00000000000E+00 -0.45593999997E+02  0.45594000000E+02  0.51100000000E-03 0. -1.
    9900012    2    1    2    0    0 -0.13534344712E+02 -0.16514931437E+02 -0.37784944598E+02  0.47787268607E+02  0.19999988887E+02 0.  0.
        -12    1    1    2    0    0  0.13534344712E+02  0.16514931437E+02  0.37784944598E+02  0.43400731393E+02  0.00000000000E+00 0.  1.
         11    1    3    3    0    0 -0.59006149519E+01 -0.24672565840E+01 -0.11398273492E+02  0.13070013417E+02  0.51100000000E-03 0. -1.
        -11    1    3    3    0    0 -0.78271143659E+01 -0.13921582304E+02 -0.11148297748E+02  0.19477133158E+02  0.51100000000E-03 0.  1.
        -12    1    3    3    0    0  0.19338460607E+00 -0.12609254980E+00 -0.15238373358E+02  0.15240122032E+02  0.00000000000E+00 0.  1.
</event>
<event>
 7    1  0.3884463E-009  0.4778727E+02  0.7816164E-02  0.1312668E+00
        -11   -1    0    0    0    0  0.00000000000E+00  0.00000000000E+00  0.45593999997E+02  0.45594000000E+02  0.51100000000E-03 0. -1.
         11   -1    0    0    0    0 -0.00000000000E+00 -0.00000000000E+00 -0.45593999997E+02  0.45594000000E+02  0.51100000000E-03 0.  1.
    9900012    2    1    2    0    0  0.23635619148E+02  0.57062804747E+01  0.35950233683E+02  0.47787269232E+02  0.19999991735E+02 0.  0.
        -12    1    1    2    0    0 -0.23635619148E+02 -0.57062804747E+01 -0.35950233683E+02  0.43400730768E+02  0.00000000000E+00 0.  1.
         11    1    3    3    0    0  0.60681726767E+00 -0.12280049787E+01  0.15755528611E+02  0.15814958283E+02  0.51100000000E-03 0. -1.
        -11    1    3    3    0    0  0.44087531835E+01  0.30917033502E+01  0.69926432650E+01  0.88256894536E+01  0.51100000000E-03 0.  1.
         12    1    3    3    0    0  0.18620048697E+02  0.38425821032E+01  0.13202061808E+02  0.23146621495E+02  0.00000000000E+00 0. -1.
</event>
<event>
 7    1  0.3884463E-009  0.4778727E+02  0.7816164E-02  0.1312668E+00
        -11   -1    0    0    0    0  0.00000000000E+00  0.00000000000E+00  0.45593999997E+02  0.45594000000E+02  0.51100000000E-03 0.  1.
         11   -1    0    0    0    0 -0.00000000000E+00 -0.00000000000E+00 -0.45593999997E+02  0.45594000000E+02  0.51100000000E-03 0. -1.
    9900012    2    1    2    0    0 -0.10251888505E+02  0.24379656502E+02 -0.34411543217E+02  0.47787272176E+02  0.20000005161E+02 0.  0.
        -12    1    1    2    0    0  0.10251888505E+02 -0.24379656502E+02  0.34411543217E+02  0.43400727824E+02  0.00000000000E+00 0.  1.
         11    1    3    3    0    0 -0.66096937238E+01  0.68930511807E+01 -0.16776556215E+02  0.19304275288E+02  0.51100000000E-03 0. -1.
        -11    1    3    3    0    0 -0.68175170360E+01  0.51468611533E+01 -0.11542506672E+02  0.14359602320E+02  0.51100000000E-03 0.  1.
        -12    1    3    3    0    0  0.31753222550E+01  0.12339744168E+02 -0.60924803303E+01  0.14123394568E+02  0.00000000000E+00 0.  1.
</event>
<event>
 7    1  0.3884463E-009  0.4778727E+02  0.7816164E-02  0.1312668E+00
        -11   -1    0    0    0    0  0.00000000000E+00  0.00000000000E+00  0.45593999997E+02  0.45594000000E+02  0.51100000000E-03 0.  1.
         11   -1    0    0    0    0 -0.00000000000E+00 -0.00000000000E+00 -0.45593999997E+02  0.45594000000E+02  0.51100000000E-03 0. -1.
    9900012    2    1    2    0    0 -0.16462613404E+02  0.38349972257E+01 -0.39973723122E+02  0.47787269775E+02  0.19999994212E+02 0.  0.
        -12    1    1    2    0    0  0.16462613404E+02 -0.38349972257E+01  0.39973723122E+02  0.43400730225E+02  0.00000000000E+00 0.  1.
         11    1    3    3    0    0  0.96609428890E-01 -0.24235892733E+01 -0.15054215326E+02  0.15248361147E+02  0.51100000000E-03 0.  1.
        -11    1    3    3    0    0  0.80934146039E+00  0.96314677211E+00 -0.66966641956E+01  0.68138092807E+01  0.51100000000E-03 0. -1.
         12    1    3    3    0    0 -0.17368564293E+02  0.52954397269E+01 -0.18222843601E+02  0.25725099347E+02  0.00000000000E+00 0. -1.
</event>
<event>
 7    1  0.3884463E-009  0.4778727E+02  0.7816164E-02  0.1312668E+00
        -11   -1    0    0    0    0  0.00000000000E+00  0.00000000000E+00  0.45593999997E+02  0.45594000000E+02  0.51100000000E-03 0.  1.
         11   -1    0    0    0    0 -0.00000000000E+00 -0.00000000000E+00 -0.45593999997E+02  0.45594000000E+02  0.51100000000E-03 0. -1.
    9900012    2    1    2    0    0  0.36266370448E+02  0.63006753415E+01 -0.22992931311E+02  0.47787273905E+02  0.20000013044E+02 0.  0.
        -12    1    1    2    0    0 -0.36266370448E+02 -0.63006753415E+01  0.22992931311E+02  0.43400726095E+02  0.00000000000E+00 0.  1.
         11    1    3    3    0    0  0.19504722663E+02  0.75797610059E+00 -0.13842495176E+02  0.23929550913E+02  0.51100000000E-03 0. -1.
        -11    1    3    3    0    0  0.46594856691E+01 -0.42889366845E+01 -0.37315150192E+01  0.73505094506E+01  0.51100000000E-03 0.  1.
         12    1    3    3    0    0  0.12102162116E+02  0.98316359254E+01 -0.54189211164E+01  0.16507213542E+02  0.00000000000E+00 0. -1.
</event>
<event>
 7    1  0.3884463E-009  0.4778727E+02  0.7816164E-02  0.1312668E+00
        -11   -1    0    0    0    0  0.00000000000E+00  0.00000000000E+00  0.45593999997E+02  0.45594000000E+02  0.51100000000E-03 0. -1.
         11   -1    0    0    0    0 -0.00000000000E+00 -0.00000000000E+00 -0.45593999997E+02  0.45594000000E+02  0.51100000000E-03 0.  1.
    9900012    2    1    2    0    0  0.11352589804E+02 -0.40394016158E+02 -0.11093476476E+02  0.47787273543E+02  0.20000011393E+02 0.  0.
        -12    1    1    2    0    0 -0.11352589804E+02  0.40394016158E+02  0.11093476476E+02  0.43400726457E+02  0.00000000000E+00 0.  1.
         11    1    3    3    0    0 -0.17180121704E+01 -0.30748791485E+01  0.45006401739E+00  0.35509161460E+01  0.51100000000E-03 0. -1.
        -11    1    3    3    0    0  0.58377647349E+01 -0.28363105137E+01  0.15084703343E+01  0.66633052940E+01  0.51100000000E-03 0.  1.
         12    1    3    3    0    0  0.72328372392E+01 -0.34482826496E+02 -0.13052010828E+02  0.37573052103E+02  0.00000000000E+00 0. -1.
</event>
<event>
 7    1  0.3884463E-009  0.4778727E+02  0.7816164E-02  0.1312668E+00
        -11   -1    0    0    0    0  0.00000000000E+00  0.00000000000E+00  0.45593999997E+02  0.45594000000E+02  0.51100000000E-03 0.  1.
         11   -1    0    0    0    0 -0.00000000000E+00 -0.00000000000E+00 -0.45593999997E+02  0.45594000000E+02  0.51100000000E-03 0. -1.
    9900012    2    1    2    0    0  0.21049982627E+02  0.29024011533E+01 -0.37843063643E+02  0.47787272277E+02  0.20000005618E+02 0.  0.
        -12    1    1    2    0    0 -0.21049982627E+02 -0.29024011533E+01  0.37843063643E+02  0.43400727723E+02  0.00000000000E+00 0.  1.
         11    1    3    3    0    0  0.80042802428E+01  0.29293887600E+01 -0.16785169882E+02  0.18825295455E+02  0.51100000000E-03 0. -1.
        -11    1    3    3    0    0  0.12177791957E+02  0.55824068607E+01 -0.10677325303E+02  0.17130883200E+02  0.51100000000E-03 0.  1.
        -12    1    3    3    0    0  0.86791042638E+00 -0.56093944675E+01 -0.10380568457E+02  0.11831093622E+02  0.00000000000E+00 0.  1.
</event>
<event>
 7    1  0.3884463E-009  0.4778727E+02  0.7816164E-02  0.1312668E+00
        -11   -1    0    0    0    0  0.00000000000E+00  0.00000000000E+00  0.45593999997E+02  0.45594000000E+02  0.51100000000E-03 0.  1.
         11   -1    0    0    0    0 -0.00000000000E+00 -0.00000000000E+00 -0.45593999997E+02  0.45594000000E+02  0.51100000000E-03 0. -1.
    9900012    2    1    2    0    0 -0.16708259297E+02 -0.36877244438E+02 -0.15637335849E+02  0.47787270069E+02  0.19999995553E+02 0.  0.
        -12    1    1    2    0    0  0.16708259297E+02  0.36877244438E+02  0.15637335849E+02  0.43400729931E+02  0.00000000000E+00 0.  1.
         11    1    3    3    0    0 -0.10656128688E+02 -0.12077749903E+02 -0.80529450557E+01  0.18007638537E+02  0.51100000000E-03 0. -1.
        -11    1    3    3    0    0 -0.10193422848E+02 -0.19967280182E+02 -0.63031165995E+01  0.23287924475E+02  0.51100000000E-03 0.  1.
        -12    1    3    3    0    0  0.41412922387E+01 -0.48322143528E+01 -0.12812741939E+01  0.64917070573E+01  0.00000000000E+00 0.  1.
</event>
<event>
 7    1  0.3884463E-009  0.4778726E+02  0.7816164E-02  0.1312668E+00
        -11   -1    0    0    0    0  0.00000000000E+00  0.00000000000E+00  0.45593999997E+02  0.45594000000E+02  0.51100000000E-03 0.  1.
         11   -1    0    0    0    0 -0.00000000000E+00 -0.00000000000E+00 -0.45593999997E+02  0.45594000000E+02  0.51100000000E-03 0. -1.
    9900012    2    1    2    0    0 -0.28313642095E+01  0.41855825059E+02  0.11121920807E+02  0.47787264556E+02  0.19999970416E+02 0.  0.
        -12    1    1    2    0    0  0.28313642095E+01 -0.41855825059E+02 -0.11121920807E+02  0.43400735444E+02  0.00000000000E+00 0.  1.
         11    1    3    3    0    0 -0.53632668740E+00  0.18812940838E+01 -0.33742481119E+01  0.39003159266E+01  0.51100000000E-03 0. -1.
        -11    1    3    3    0    0 -0.57304892010E+01  0.12895607059E+02  0.43598961718E+01  0.14769694743E+02  0.51100000000E-03 0.  1.
         12    1    3    3    0    0  0.34354516789E+01  0.27078923916E+02  0.10136272747E+02  0.29117253887E+02  0.00000000000E+00 0. -1.
</event>
<event>
 7    1  0.3884463E-009  0.4778727E+02  0.7816164E-02  0.1312668E+00
        -11   -1    0    0    0    0  0.00000000000E+00  0.00000000000E+00  0.45593999997E+02  0.45594000000E+02  0.51100000000E-03 0. -1.
         11   -1    0    0    0    0 -0.00000000000E+00 -0.00000000000E+00 -0.45593999997E+02  0.45594000000E+02  0.51100000000E-03 0.  1.
    9900012    2    1    2    0    0  0.39671197235E+02  0.10731700663E+02 -0.13951698002E+02  0.47787272284E+02  0.20000005650E+02 0.  0.
        -12    1    1    2    0    0 -0.39671197235E+02 -0.10731700663E+02  0.13951698002E+02  0.43400727716E+02  0.00000000000E+00 0.  1.
         11    1    3    3    0    0  0.18875821904E+02  0.33828972012E+01 -0.28263838876E+01  0.19383732669E+02  0.51100000000E-03 0. -1.
        -11    1    3    3    0    0  0.20884616232E+02  0.92752962212E+01 -0.70821040161E+01  0.23923931798E+02  0.51100000000E-03 0.  1.
        -12    1    3    3    0    0 -0.89240900913E-01 -0.19264927593E+01 -0.40432100986E+01  0.44796078167E+01  0.00000000000E+00 0.  1.
</event>
<event>
 7    1  0.3884463E-009  0.4778727E+02  0.7816164E-02  0.1312668E+00
        -11   -1    0    0    0    0  0.00000000000E+00  0.00000000000E+00  0.45593999997E+02  0.45594000000E+02  0.51100000000E-03 0. -1.
         11   -1    0    0    0    0 -0.00000000000E+00 -0.00000000000E+00 -0.45593999997E+02  0.45594000000E+02  0.51100000000E-03 0.  1.
    9900012    2    1    2    0    0 -0.16741520401E+02  0.37997461554E+02  0.12630826346E+02  0.47787270005E+02  0.19999995260E+02 0.  0.
        -12    1    1    2    0    0  0.16741520401E+02 -0.37997461554E+02 -0.12630826346E+02  0.43400729995E+02  0.00000000000E+00 0.  1.
         11    1    3    3    0    0 -0.62910220560E+01  0.97752656832E+01  0.87412127612E+01  0.14544469000E+02  0.51100000000E-03 0. -1.
        -11    1    3    3    0    0 -0.62175256055E+01  0.22340997652E+01  0.16964024181E+01  0.68210415510E+01  0.51100000000E-03 0.  1.
        -12    1    3    3    0    0 -0.42329727398E+01  0.25988096106E+02  0.21932111669E+01  0.26421759454E+02  0.00000000000E+00 0.  1.
</event>
<event>
 7    1  0.3884463E-009  0.4778725E+02  0.7816164E-02  0.1312668E+00
        -11   -1    0    0    0    0  0.00000000000E+00  0.00000000000E+00  0.45593999997E+02  0.45594000000E+02  0.51100000000E-03 0.  1.
         11   -1    0    0    0    0 -0.00000000000E+00 -0.00000000000E+00 -0.45593999997E+02  0.45594000000E+02  0.51100000000E-03 0. -1.
    9900012    2    1    2    0    0 -0.48385936225E+01  0.27760511183E+02 -0.33008596711E+02  0.47787246248E+02  0.19999886944E+02 0.  0.
        -12    1    1    2    0    0  0.48385936225E+01 -0.27760511183E+02  0.33008596711E+02  0.43400753752E+02  0.00000000000E+00 0.  1.
         11    1    3    3    0    0  0.25374547475E+01  0.16413366504E+02 -0.21786516459E+02  0.27395064816E+02  0.51100000000E-03 0. -1.
        -11    1    3    3    0    0  0.93316795927E+00  0.10560612828E+01 -0.60140150819E+01  0.61769284875E+01  0.51100000000E-03 0.  1.
         12    1    3    3    0    0 -0.83092163293E+01  0.10291083396E+02 -0.52080651708E+01  0.14215252945E+02  0.00000000000E+00 0. -1.
</event>
<event>
 7    1  0.3884463E-009  0.4778727E+02  0.7816164E-02  0.1312668E+00
        -11   -1    0    0    0    0  0.00000000000E+00  0.00000000000E+00  0.45593999997E+02  0.45594000000E+02  0.51100000000E-03 0.  1.
         11   -1    0    0    0    0 -0.00000000000E+00 -0.00000000000E+00 -0.45593999997E+02  0.45594000000E+02  0.51100000000E-03 0. -1.
    9900012    2    1    2    0    0  0.24075541097E+02 -0.11033154025E+02 -0.34384025185E+02  0.47787270113E+02  0.19999995752E+02 0.  0.
        -12    1    1    2    0    0 -0.24075541097E+02  0.11033154025E+02  0.34384025185E+02  0.43400729887E+02  0.00000000000E+00 0.  1.
         11    1    3    3    0    0  0.89464788701E+01 -0.11541676864E+01 -0.24791503482E+01  0.93550934753E+01  0.51100000000E-03 0. -1.
        -11    1    3    3    0    0  0.51847759589E+01 -0.21249137299E+01 -0.19528023887E+01  0.59338518295E+01  0.51100000000E-03 0.  1.
         12    1    3    3    0    0  0.99442862677E+01 -0.77540726091E+01 -0.29952072448E+02  0.32498324808E+02  0.00000000000E+00 0. -1.
</event>
<event>
 7    1  0.3884463E-009  0.4778727E+02  0.7816164E-02  0.1312668E+00
        -11   -1    0    0    0    0  0.00000000000E+00  0.00000000000E+00  0.45593999997E+02  0.45594000000E+02  0.51100000000E-03 0. -1.
         11   -1    0    0    0    0 -0.00000000000E+00 -0.00000000000E+00 -0.45593999997E+02  0.45594000000E+02  0.51100000000E-03 0.  1.
    9900012    2    1    2    0    0  0.33848886121E+02 -0.21683476765E+02 -0.16361638217E+02  0.47787268884E+02  0.19999990149E+02 0.  0.
        -12    1    1    2    0    0 -0.33848886121E+02  0.21683476765E+02  0.16361638217E+02  0.43400731116E+02  0.00000000000E+00 0.  1.
         11    1    3    3    0    0  0.23172014356E+02 -0.13801153076E+02 -0.77813701039E+01  0.28070692840E+02  0.51100000000E-03 0. -1.
        -11    1    3    3    0    0  0.89585483883E+01  0.67385952832E+00 -0.50200611812E+01  0.10291291970E+02  0.51100000000E-03 0.  1.
         12    1    3    3    0    0  0.17183233769E+01 -0.85561832173E+01 -0.35602069321E+01  0.94252840740E+01  0.00000000000E+00 0. -1.
</event>
<event>
 7    1  0.3884463E-009  0.4778727E+02  0.7816164E-02  0.1312668E+00
        -11   -1    0    0    0    0  0.00000000000E+00  0.00000000000E+00  0.45593999997E+02  0.45594000000E+02  0.51100000000E-03 0.  1.
         11   -1    0    0    0    0 -0.00000000000E+00 -0.00000000000E+00 -0.45593999997E+02  0.45594000000E+02  0.51100000000E-03 0. -1.
    9900012    2    1    2    0    0 -0.14585344745E+01  0.43195178239E+02  0.39588528523E+01  0.47787271184E+02  0.20000000635E+02 0.  0.
        -12    1    1    2    0    0  0.14585344745E+01 -0.43195178239E+02 -0.39588528523E+01  0.43400728816E+02  0.00000000000E+00 0.  1.
         11    1    3    3    0    0 -0.24059050515E+01  0.47204709896E+00 -0.23587367111E+01  0.34021826397E+01  0.51100000000E-03 0. -1.
        -11    1    3    3    0    0  0.37457834625E+01  0.88612183908E+01  0.36988653504E+01  0.10306972895E+02  0.51100000000E-03 0.  1.
        -12    1    3    3    0    0 -0.27984128855E+01  0.33861912749E+02  0.26187242130E+01  0.34078115649E+02  0.00000000000E+00 0.  1.
</event>
<event>
 7    1  0.3884463E-009  0.4778727E+02  0.7816164E-02  0.1312668E+00
        -11   -1    0    0    0    0  0.00000000000E+00  0.00000000000E+00  0.45593999997E+02  0.45594000000E+02  0.51100000000E-03 0.  1.
         11   -1    0    0    0    0 -0.00000000000E+00 -0.00000000000E+00 -0.45593999997E+02  0.45594000000E+02  0.51100000000E-03 0. -1.
    9900012    2    1    2    0    0  0.24374138898E+02  0.13525481185E+02 -0.33265388997E+02  0.47787269667E+02  0.19999993719E+02 0.  0.
        -12    1    1    2    0    0 -0.24374138898E+02 -0.13525481185E+02  0.33265388997E+02  0.43400730333E+02  0.00000000000E+00 0.  1.
         11    1    3    3    0    0  0.70477322839E+01  0.97079209634E+01 -0.11931101515E+02  0.16919380704E+02  0.51100000000E-03 0. -1.
        -11    1    3    3    0    0  0.22661973887E+01  0.46698069890E+01 -0.12138081185E+02  0.13201354590E+02  0.51100000000E-03 0.  1.
         12    1    3    3    0    0  0.15060209225E+02 -0.85224676771E+00 -0.91962062981E+01  0.17666534373E+02  0.00000000000E+00 0. -1.
</event>
<event>
 7    1  0.3884463E-009  0.4778727E+02  0.7816164E-02  0.1312668E+00
        -11   -1    0    0    0    0  0.00000000000E+00  0.00000000000E+00  0.45593999997E+02  0.45594000000E+02  0.51100000000E-03 0.  1.
         11   -1    0    0    0    0 -0.00000000000E+00 -0.00000000000E+00 -0.45593999997E+02  0.45594000000E+02  0.51100000000E-03 0. -1.
    9900012    2    1    2    0    0 -0.12328340402E+02 -0.57557450585E+00 -0.41608942881E+02  0.47787269698E+02  0.19999993862E+02 0.  0.
        -12    1    1    2    0    0  0.12328340402E+02  0.57557450585E+00  0.41608942881E+02  0.43400730302E+02  0.00000000000E+00 0.  1.
         11    1    3    3    0    0  0.24600214197E+01 -0.31938419527E+01 -0.12875167631E+02  0.13491563052E+02  0.51100000000E-03 0. -1.
        -11    1    3    3    0    0 -0.12742968030E+01 -0.34305141970E+01 -0.36529974872E+01  0.51707495492E+01  0.51100000000E-03 0.  1.
         12    1    3    3    0    0 -0.13514065019E+02  0.60487816439E+01 -0.25080777763E+02  0.29124957097E+02  0.00000000000E+00 0. -1.
</event>
<event>
 7    1  0.3884463E-009  0.4778729E+02  0.7816164E-02  0.1312668E+00
        -11   -1    0    0    0    0  0.00000000000E+00  0.00000000000E+00  0.45593999997E+02  0.45594000000E+02  0.51100000000E-03 0. -1.
         11   -1    0    0    0    0 -0.00000000000E+00 -0.00000000000E+00 -0.45593999997E+02  0.45594000000E+02  0.51100000000E-03 0.  1.
    9900012    2    1    2    0    0  0.22661031005E+02  0.27065466921E+02  0.25249944875E+02  0.47787290996E+02  0.20000090969E+02 0.  0.
        -12    1    1    2    0    0 -0.22661031005E+02 -0.27065466921E+02 -0.25249944875E+02  0.43400709004E+02  0.00000000000E+00 0.  1.
         11    1    3    3    0    0 -0.68312068668E+00  0.85445712773E+00  0.59838565842E+01  0.60830330212E+01  0.51100000000E-03 0. -1.
        -11    1    3    3    0    0  0.72015414552E+01  0.14525374460E+01  0.49892480154E+01  0.88805777055E+01  0.51100000000E-03 0.  1.
         12    1    3    3    0    0  0.16142610237E+02  0.24758472347E+02  0.14276840275E+02  0.32823680270E+02  0.00000000000E+00 0. -1.
</event>
<event>
 7    1  0.3884463E-009  0.4778726E+02  0.7816164E-02  0.1312668E+00
        -11   -1    0    0    0    0  0.00000000000E+00  0.00000000000E+00  0.45593999997E+02  0.45594000000E+02  0.51100000000E-03 0.  1.
         11   -1    0    0    0    0 -0.00000000000E+00 -0.00000000000E+00 -0.45593999997E+02  0.45594000000E+02  0.51100000000E-03 0. -1.
    9900012    2    1    2    0    0 -0.88137596479E+01 -0.34835763467E+02 -0.24339502823E+02  0.47787260684E+02  0.19999952764E+02 0.  0.
        -12    1    1    2    0    0  0.88137596479E+01  0.34835763467E+02  0.24339502823E+02  0.43400739316E+02  0.00000000000E+00 0.  1.
         11    1    3    3    0    0 -0.58476521169E+01 -0.11943476207E+02 -0.14073601933E+02  0.19362539369E+02  0.51100000000E-03 0. -1.
        -11    1    3    3    0    0 -0.10775144981E+01  0.85876626847E+00 -0.33391159541E+01  0.36122309746E+01  0.51100000000E-03 0.  1.
         12    1    3    3    0    0 -0.18885930329E+01 -0.23751053528E+02 -0.69267849360E+01  0.24812490341E+02  0.00000000000E+00 0. -1.
</event>
<event>
 7    1  0.3884463E-009  0.4778727E+02  0.7816164E-02  0.1312668E+00
        -11   -1    0    0    0    0  0.00000000000E+00  0.00000000000E+00  0.45593999997E+02  0.45594000000E+02  0.51100000000E-03 0.  1.
         11   -1    0    0    0    0 -0.00000000000E+00 -0.00000000000E+00 -0.45593999997E+02  0.45594000000E+02  0.51100000000E-03 0. -1.
    9900012    2    1    2    0    0 -0.28637863634E+02  0.30501022676E+02  0.11540528715E+02  0.47787269352E+02  0.19999992283E+02 0.  0.
        -12    1    1    2    0    0  0.28637863634E+02 -0.30501022676E+02 -0.11540528715E+02  0.43400730648E+02  0.00000000000E+00 0.  1.
         11    1    3    3    0    0 -0.13368436921E+02  0.13948029557E+02  0.10633353103E+01  0.19349245889E+02  0.51100000000E-03 0. -1.
        -11    1    3    3    0    0 -0.25736924189E+01  0.11889740950E+02  0.16239653962E+01  0.12273023115E+02  0.51100000000E-03 0.  1.
         12    1    3    3    0    0 -0.12695734295E+02  0.46632521685E+01  0.88532280083E+01  0.16165000347E+02  0.00000000000E+00 0. -1.
</event>
<event>
 7    1  0.3884463E-009  0.4778727E+02  0.7816164E-02  0.1312668E+00
        -11   -1    0    0    0    0  0.00000000000E+00  0.00000000000E+00  0.45593999997E+02  0.45594000000E+02  0.51100000000E-03 0.  1.
         11   -1    0    0    0    0 -0.00000000000E+00 -0.00000000000E+00 -0.45593999997E+02  0.45594000000E+02  0.51100000000E-03 0. -1.
    9900012    2    1    2    0    0  0.41655424928E+02  0.11328342927E+02 -0.44852521558E+01  0.47787271132E+02  0.20000000398E+02 0.  0.
        -12    1    1    2    0    0 -0.41655424928E+02 -0.11328342927E+02  0.44852521558E+01  0.43400728868E+02  0.00000000000E+00 0.  1.
         11    1    3    3    0    0  0.44334277418E+01 -0.14588952580E+01 -0.13311872208E+01  0.48534231831E+01  0.51100000000E-03 0. -1.
        -11    1    3    3    0    0  0.56561531349E+01 -0.28216850130E+01 -0.43934698575E+01  0.76978277616E+01  0.51100000000E-03 0.  1.
         12    1    3    3    0    0  0.31565844051E+02  0.15608923198E+02  0.12394049225E+01  0.35236020187E+02  0.00000000000E+00 0. -1.
</event>
<event>
 7    1  0.3884463E-009  0.4778727E+02  0.7816164E-02  0.1312668E+00
        -11   -1    0    0    0    0  0.00000000000E+00  0.00000000000E+00  0.45593999997E+02  0.45594000000E+02  0.51100000000E-03 0. -1.
         11   -1    0    0    0    0 -0.00000000000E+00 -0.00000000000E+00 -0.45593999997E+02  0.45594000000E+02  0.51100000000E-03 0.  1.
    9900012    2    1    2    0    0 -0.23198938510E+02  0.17695323314E+02  0.32129550075E+02  0.47787271859E+02  0.20000003712E+02 0.  0.
        -12    1    1    2    0    0  0.23198938510E+02 -0.17695323314E+02 -0.32129550075E+02  0.43400728141E+02  0.00000000000E+00 0.  1.
         11    1    3    3    0    0 -0.48365362181E+01  0.11234250340E+02  0.14260233117E+02  0.18787088973E+02  0.51100000000E-03 0.  1.
        -11    1    3    3    0    0 -0.45486490368E+01  0.66419712068E+01  0.27192304282E+01  0.84970703160E+01  0.51100000000E-03 0. -1.
         12    1    3    3    0    0 -0.13813753255E+02 -0.18089823278E+00  0.15150086530E+02  0.20503112569E+02  0.00000000000E+00 0. -1.
</event>
<event>
 7    1  0.3884463E-009  0.4778727E+02  0.7816164E-02  0.1312668E+00
        -11   -1    0    0    0    0  0.00000000000E+00  0.00000000000E+00  0.45593999997E+02  0.45594000000E+02  0.51100000000E-03 0.  1.
         11   -1    0    0    0    0 -0.00000000000E+00 -0.00000000000E+00 -0.45593999997E+02  0.45594000000E+02  0.51100000000E-03 0. -1.
    9900012    2    1    2    0    0 -0.30309144381E+02  0.27260311793E+02 -0.14894776830E+02  0.47787271792E+02  0.20000003409E+02 0.  0.
        -12    1    1    2    0    0  0.30309144381E+02 -0.27260311793E+02  0.14894776830E+02  0.43400728208E+02  0.00000000000E+00 0.  1.
         11    1    3    3    0    0 -0.13896441999E+02  0.83342492968E+01  0.11285499360E+01  0.16243288977E+02  0.51100000000E-03 0. -1.
        -11    1    3    3    0    0  0.12181667047E+01 -0.76258089332E-01 -0.43281358094E+00  0.12950186384E+01  0.51100000000E-03 0.  1.
        -12    1    3    3    0    0 -0.17630869086E+02  0.19002320585E+02 -0.15590513186E+02  0.30248964177E+02  0.00000000000E+00 0.  1.
</event>
<event>
 7    1  0.3884463E-009  0.4778727E+02  0.7816164E-02  0.1312668E+00
        -11   -1    0    0    0    0  0.00000000000E+00  0.00000000000E+00  0.45593999997E+02  0.45594000000E+02  0.51100000000E-03 0.  1.
         11   -1    0    0    0    0 -0.00000000000E+00 -0.00000000000E+00 -0.45593999997E+02  0.45594000000E+02  0.51100000000E-03 0. -1.
    9900012    2    1    2    0    0  0.39366198137E+02 -0.52205998175E+01 -0.17512024465E+02  0.47787271675E+02  0.20000002877E+02 0.  0.
        -12    1    1    2    0    0 -0.39366198137E+02  0.52205998175E+01  0.17512024465E+02  0.43400728325E+02  0.00000000000E+00 0.  1.
         11    1    3    3    0    0  0.12989851468E+02  0.15486880032E+01  0.83292551962E+00  0.13108334787E+02  0.51100000000E-03 0.  1.
        -11    1    3    3    0    0  0.18645704510E+02 -0.51285524262E+01 -0.64257207529E+01  0.20377787763E+02  0.51100000000E-03 0. -1.
         12    1    3    3    0    0  0.77306421585E+01 -0.16407353945E+01 -0.11919229232E+02  0.14301149125E+02  0.00000000000E+00 0. -1.
</event>
<event>
 7    1  0.3884463E-009  0.4778727E+02  0.7816164E-02  0.1312668E+00
        -11   -1    0    0    0    0  0.00000000000E+00  0.00000000000E+00  0.45593999997E+02  0.45594000000E+02  0.51100000000E-03 0.  1.
         11   -1    0    0    0    0 -0.00000000000E+00 -0.00000000000E+00 -0.45593999997E+02  0.45594000000E+02  0.51100000000E-03 0. -1.
    9900012    2    1    2    0    0  0.34486133474E+02  0.22244714783E+02 -0.14124533187E+02  0.47787272178E+02  0.20000005168E+02 0.  0.
        -12    1    1    2    0    0 -0.34486133474E+02 -0.22244714783E+02  0.14124533187E+02  0.43400727822E+02  0.00000000000E+00 0.  1.
         11    1    3    3    0    0  0.11111575862E+02 -0.64361178973E+00 -0.29774635245E+01  0.11521572964E+02  0.51100000000E-03 0. -1.
        -11    1    3    3    0    0 -0.98893187762E+00  0.22903449738E+01 -0.77231172497E-01  0.24959229301E+01  0.51100000000E-03 0.  1.
        -12    1    3    3    0    0  0.24363489490E+02  0.20597981599E+02 -0.11069838490E+02  0.33769776284E+02  0.00000000000E+00 0.  1.
</event>
<event>
 7    1  0.3884463E-009  0.4778727E+02  0.7816164E-02  0.1312668E+00
        -11   -1    0    0    0    0  0.00000000000E+00  0.00000000000E+00  0.45593999997E+02  0.45594000000E+02  0.51100000000E-03 0.  1.
         11   -1    0    0    0    0 -0.00000000000E+00 -0.00000000000E+00 -0.45593999997E+02  0.45594000000E+02  0.51100000000E-03 0. -1.
    9900012    2    1    2    0    0  0.18076164948E+02 -0.67532546549E+00 -0.39451482361E+02  0.47787271156E+02  0.20000000509E+02 0.  0.
        -12    1    1    2    0    0 -0.18076164948E+02  0.67532546549E+00  0.39451482361E+02  0.43400728844E+02  0.00000000000E+00 0.  1.
         11    1    3    3    0    0  0.13297541963E+02 -0.21119141687E+01 -0.18719479789E+02  0.23058701775E+02  0.51100000000E-03 0. -1.
        -11    1    3    3    0    0  0.16706272737E+01 -0.39822365364E+01 -0.16802493198E+02  0.17348572888E+02  0.51100000000E-03 0.  1.
        -12    1    3    3    0    0  0.31079957111E+01  0.54188252396E+01 -0.39295093745E+01  0.73799964933E+01  0.00000000000E+00 0.  1.
</event>
<event>
 7    1  0.3884463E-009  0.4778727E+02  0.7816164E-02  0.1312668E+00
        -11   -1    0    0    0    0  0.00000000000E+00  0.00000000000E+00  0.45593999997E+02  0.45594000000E+02  0.51100000000E-03 0.  1.
         11   -1    0    0    0    0 -0.00000000000E+00 -0.00000000000E+00 -0.45593999997E+02  0.45594000000E+02  0.51100000000E-03 0. -1.
    9900012    2    1    2    0    0 -0.39707107048E+02  0.60931847665E+01 -0.16426864766E+02  0.47787272624E+02  0.20000007202E+02 0.  0.
        -12    1    1    2    0    0  0.39707107048E+02 -0.60931847665E+01  0.16426864766E+02  0.43400727376E+02  0.00000000000E+00 0.  1.
         11    1    3    3    0    0 -0.20045421196E+02  0.48349368533E+01 -0.73560197056E+01  0.21893070855E+02  0.51100000000E-03 0. -1.
        -11    1    3    3    0    0 -0.15198397174E+02 -0.27910814362E+01 -0.11636869794E+02  0.19344202002E+02  0.51100000000E-03 0.  1.
        -12    1    3    3    0    0 -0.44632886780E+01  0.40493293494E+01  0.25660247340E+01  0.65499997663E+01  0.00000000000E+00 0.  1.
</event>
<event>
 7    1  0.3884463E-009  0.4778727E+02  0.7816164E-02  0.1312668E+00
        -11   -1    0    0    0    0  0.00000000000E+00  0.00000000000E+00  0.45593999997E+02  0.45594000000E+02  0.51100000000E-03 0.  1.
         11   -1    0    0    0    0 -0.00000000000E+00 -0.00000000000E+00 -0.45593999997E+02  0.45594000000E+02  0.51100000000E-03 0. -1.
    9900012    2    1    2    0    0  0.29927431305E+02 -0.18747661256E+02 -0.25228900716E+02  0.47787269840E+02  0.19999994509E+02 0.  0.
        -12    1    1    2    0    0 -0.29927431305E+02  0.18747661256E+02  0.25228900716E+02  0.43400730160E+02  0.00000000000E+00 0.  1.
         11    1    3    3    0    0  0.13628276300E+02 -0.92061124396E+01 -0.12759617869E+02  0.20815625611E+02  0.51100000000E-03 0. -1.
        -11    1    3    3    0    0  0.69538286915E+01 -0.70935491022E+01 -0.14025079962E+02  0.17186536607E+02  0.51100000000E-03 0.  1.
        -12    1    3    3    0    0  0.93453263136E+01 -0.24479997144E+01  0.15557971154E+01  0.97851076220E+01  0.00000000000E+00 0.  1.
</event>
<event>
 7    1  0.3884463E-009  0.4778727E+02  0.7816164E-02  0.1312668E+00
        -11   -1    0    0    0    0  0.00000000000E+00  0.00000000000E+00  0.45593999997E+02  0.45594000000E+02  0.51100000000E-03 0.  1.
         11   -1    0    0    0    0 -0.00000000000E+00 -0.00000000000E+00 -0.45593999997E+02  0.45594000000E+02  0.51100000000E-03 0. -1.
    9900012    2    1    2    0    0  0.38808125102E+02 -0.89786649556E+01 -0.17231836166E+02  0.47787272172E+02  0.20000005142E+02 0.  0.
        -12    1    1    2    0    0 -0.38808125102E+02  0.89786649556E+01  0.17231836166E+02  0.43400727828E+02  0.00000000000E+00 0.  1.
         11    1    3    3    0    0  0.20020562813E+02 -0.48207049754E+01 -0.59701886857E+01  0.21440738910E+02  0.51100000000E-03 0. -1.
        -11    1    3    3    0    0  0.17754915511E+02  0.76378616018E+00 -0.11733659214E+02  0.21295519550E+02  0.51100000000E-03 0.  1.
        -12    1    3    3    0    0  0.10326467778E+01 -0.49217461403E+01  0.47201173372E+00  0.50510137115E+01  0.00000000000E+00 0.  1.
</event>
<event>
 7    1  0.3884463E-009  0.4778727E+02  0.7816164E-02  0.1312668E+00
        -11   -1    0    0    0    0  0.00000000000E+00  0.00000000000E+00  0.45593999997E+02  0.45594000000E+02  0.51100000000E-03 0. -1.
         11   -1    0    0    0    0 -0.00000000000E+00 -0.00000000000E+00 -0.45593999997E+02  0.45594000000E+02  0.51100000000E-03 0.  1.
    9900012    2    1    2    0    0 -0.11940323446E+01  0.22746261628E+02  0.36943273472E+02  0.47787267447E+02  0.19999983599E+02 0.  0.
        -12    1    1    2    0    0  0.11940323446E+01 -0.22746261628E+02 -0.36943273472E+02  0.43400732553E+02  0.00000000000E+00 0.  1.
         11    1    3    3    0    0 -0.18960017572E+01 -0.31728849298E+00  0.26181059607E+01  0.32480723104E+01  0.51100000000E-03 0. -1.
        -11    1    3    3    0    0  0.67139447573E+01  0.71612363003E+01  0.60032050190E+01  0.11506469064E+02  0.51100000000E-03 0.  1.
         12    1    3    3    0    0 -0.60119753448E+01  0.15902313821E+02  0.28321962492E+02  0.33032726073E+02  0.00000000000E+00 0. -1.
</event>
<event>
 7    1  0.3884463E-009  0.4778727E+02  0.7816164E-02  0.1312668E+00
        -11   -1    0    0    0    0  0.00000000000E+00  0.00000000000E+00  0.45593999997E+02  0.45594000000E+02  0.51100000000E-03 0.  1.
         11   -1    0    0    0    0 -0.00000000000E+00 -0.00000000000E+00 -0.45593999997E+02  0.45594000000E+02  0.51100000000E-03 0. -1.
    9900012    2    1    2    0    0  0.26549940276E+01  0.12631819729E+02 -0.41436836982E+02  0.47787270490E+02  0.19999997471E+02 0.  0.
        -12    1    1    2    0    0 -0.26549940276E+01 -0.12631819729E+02  0.41436836982E+02  0.43400729510E+02  0.00000000000E+00 0.  1.
         11    1    3    3    0    0 -0.49121540521E+01  0.34451233878E+01 -0.10148805267E+02  0.11789672650E+02  0.51100000000E-03 0. -1.
        -11    1    3    3    0    0  0.32181864145E+01  0.11556316610E+02 -0.26591847862E+02  0.29172445053E+02  0.51100000000E-03 0.  1.
         12    1    3    3    0    0  0.43489616651E+01 -0.23696202685E+01 -0.46961838522E+01  0.68251527863E+01  0.00000000000E+00 0. -1.
</event>
<event>
 7    1  0.3884463E-009  0.4778726E+02  0.7816164E-02  0.1312668E+00
        -11   -1    0    0    0    0  0.00000000000E+00  0.00000000000E+00  0.45593999997E+02  0.45594000000E+02  0.51100000000E-03 0.  1.
         11   -1    0    0    0    0 -0.00000000000E+00 -0.00000000000E+00 -0.45593999997E+02  0.45594000000E+02  0.51100000000E-03 0. -1.
    9900012    2    1    2    0    0  0.21404240845E+02 -0.37630601836E+02  0.30692457968E+01  0.47787262789E+02  0.19999962360E+02 0.  0.
        -12    1    1    2    0    0 -0.21404240845E+02  0.37630601836E+02 -0.30692457968E+01  0.43400737211E+02  0.00000000000E+00 0.  1.
         11    1    3    3    0    0  0.11167276664E+02 -0.11128383123E+02 -0.42954824617E+01  0.16340139193E+02  0.51100000000E-03 0. -1.
        -11    1    3    3    0    0  0.11209772430E+02 -0.20606147039E+02  0.22215979447E+01  0.23562847693E+02  0.51100000000E-03 0.  1.
        -12    1    3    3    0    0 -0.97280824922E+00 -0.58960716744E+01  0.51431303139E+01  0.78842759024E+01  0.00000000000E+00 0.  1.
</event>
<event>
 7    1  0.3884463E-009  0.4778727E+02  0.7816164E-02  0.1312668E+00
        -11   -1    0    0    0    0  0.00000000000E+00  0.00000000000E+00  0.45593999997E+02  0.45594000000E+02  0.51100000000E-03 0.  1.
         11   -1    0    0    0    0 -0.00000000000E+00 -0.00000000000E+00 -0.45593999997E+02  0.45594000000E+02  0.51100000000E-03 0. -1.
    9900012    2    1    2    0    0 -0.39483419066E+02  0.39444040362E+01 -0.17581944014E+02  0.47787268904E+02  0.19999990240E+02 0.  0.
        -12    1    1    2    0    0  0.39483419066E+02 -0.39444040362E+01  0.17581944014E+02  0.43400731096E+02  0.00000000000E+00 0.  1.
         11    1    3    3    0    0 -0.17869131395E+01 -0.68110061542E+00 -0.47724899807E+01  0.51413633886E+01  0.51100000000E-03 0. -1.
        -11    1    3    3    0    0 -0.22813323788E+02 -0.28804556552E+01 -0.12048398154E+02  0.25959750872E+02  0.51100000000E-03 0.  1.
        -12    1    3    3    0    0 -0.14883182139E+02  0.75059603069E+01 -0.76105587963E+00  0.16686154643E+02  0.00000000000E+00 0.  1.
</event>
<event>
 7    1  0.3884463E-009  0.4778729E+02  0.7816164E-02  0.1312668E+00
        -11   -1    0    0    0    0  0.00000000000E+00  0.00000000000E+00  0.45593999997E+02  0.45594000000E+02  0.51100000000E-03 0.  1.
         11   -1    0    0    0    0 -0.00000000000E+00 -0.00000000000E+00 -0.45593999997E+02  0.45594000000E+02  0.51100000000E-03 0. -1.
    9900012    2    1    2    0    0  0.13753953035E+01 -0.42969609929E+02 -0.59449637525E+01  0.47787289364E+02  0.20000083524E+02 0.  0.
        -12    1    1    2    0    0 -0.13753953035E+01  0.42969609929E+02  0.59449637525E+01  0.43400710636E+02  0.00000000000E+00 0.  1.
         11    1    3    3    0    0 -0.33527563606E+01 -0.21702072042E+02  0.21616539045E+01  0.22065666861E+02  0.51100000000E-03 0. -1.
        -11    1    3    3    0    0 -0.35712487502E+01 -0.65824702790E+01 -0.32876285776E+01  0.81787061651E+01  0.51100000000E-03 0.  1.
        -12    1    3    3    0    0  0.82994004143E+01 -0.14685067608E+02 -0.48189890794E+01  0.17542916338E+02  0.00000000000E+00 0.  1.
</event>
<event>
 7    1  0.3884463E-009  0.4778727E+02  0.7816164E-02  0.1312668E+00
        -11   -1    0    0    0    0  0.00000000000E+00  0.00000000000E+00  0.45593999997E+02  0.45594000000E+02  0.51100000000E-03 0.  1.
         11   -1    0    0    0    0 -0.00000000000E+00 -0.00000000000E+00 -0.45593999997E+02  0.45594000000E+02  0.51100000000E-03 0. -1.
    9900012    2    1    2    0    0 -0.43327007440E+02  0.22046914549E+01 -0.12380571164E+01  0.47787273928E+02  0.20000013149E+02 0.  0.
        -12    1    1    2    0    0  0.43327007440E+02 -0.22046914549E+01  0.12380571164E+01  0.43400726072E+02  0.00000000000E+00 0.  1.
         11    1    3    3    0    0 -0.68388500496E+01 -0.37552504848E+01 -0.18413430546E+01  0.80163782789E+01  0.51100000000E-03 0. -1.
        -11    1    3    3    0    0 -0.11177296374E+02 -0.43866462170E+01 -0.24574793160E+01  0.12256174938E+02  0.51100000000E-03 0.  1.
        -12    1    3    3    0    0 -0.25310861017E+02  0.10346588157E+02  0.30607652543E+01  0.27514720712E+02  0.00000000000E+00 0.  1.
</event>
<event>
 7    1  0.3884463E-009  0.4778729E+02  0.7816164E-02  0.1312668E+00
        -11   -1    0    0    0    0  0.00000000000E+00  0.00000000000E+00  0.45593999997E+02  0.45594000000E+02  0.51100000000E-03 0.  1.
         11   -1    0    0    0    0 -0.00000000000E+00 -0.00000000000E+00 -0.45593999997E+02  0.45594000000E+02  0.51100000000E-03 0. -1.
    9900012    2    1    2    0    0  0.22023862890E+02 -0.33340706557E+02 -0.16940151879E+02  0.47787285766E+02  0.20000067123E+02 0.  0.
        -12    1    1    2    0    0 -0.22023862890E+02  0.33340706557E+02  0.16940151879E+02  0.43400714234E+02  0.00000000000E+00 0.  1.
         11    1    3    3    0    0  0.14874960386E+02 -0.23142783099E+02 -0.19125813446E+02  0.33505963593E+02  0.51100000000E-03 0. -1.
        -11    1    3    3    0    0  0.52656447307E+01 -0.51930805709E+01 -0.18005185743E+01  0.76116337040E+01  0.51100000000E-03 0.  1.
        -12    1    3    3    0    0  0.18832577729E+01 -0.50048428867E+01  0.39861801411E+01  0.66696884693E+01  0.00000000000E+00 0.  1.
</event>
<event>
 7    1  0.3884463E-009  0.4778727E+02  0.7816164E-02  0.1312668E+00
        -11   -1    0    0    0    0  0.00000000000E+00  0.00000000000E+00  0.45593999997E+02  0.45594000000E+02  0.51100000000E-03 0.  1.
         11   -1    0    0    0    0 -0.00000000000E+00 -0.00000000000E+00 -0.45593999997E+02  0.45594000000E+02  0.51100000000E-03 0. -1.
    9900012    2    1    2    0    0 -0.28792693357E+02 -0.42923125334E+01 -0.32189757738E+02  0.47787266817E+02  0.19999980724E+02 0.  0.
        -12    1    1    2    0    0  0.28792693357E+02  0.42923125334E+01  0.32189757738E+02  0.43400733183E+02  0.00000000000E+00 0.  1.
         11    1    3    3    0    0  0.21088129484E+00  0.15019276108E+01 -0.13762952418E+01  0.20480347463E+01  0.51100000000E-03 0. -1.
        -11    1    3    3    0    0 -0.12084542700E+02  0.51624590232E+01 -0.84060619516E+01  0.15599648497E+02  0.51100000000E-03 0.  1.
         12    1    3    3    0    0 -0.16919031952E+02 -0.10956699167E+02 -0.22407400544E+02  0.30139583574E+02  0.00000000000E+00 0. -1.
</event>
<event>
 7    1  0.3884463E-009  0.4778727E+02  0.7816164E-02  0.1312668E+00
        -11   -1    0    0    0    0  0.00000000000E+00  0.00000000000E+00  0.45593999997E+02  0.45594000000E+02  0.51100000000E-03 0. -1.
         11   -1    0    0    0    0 -0.00000000000E+00 -0.00000000000E+00 -0.45593999997E+02  0.45594000000E+02  0.51100000000E-03 0.  1.
    9900012    2    1    2    0    0  0.14968296634E+02 -0.39876726077E+02  0.83318634147E+01  0.47787272648E+02  0.20000007311E+02 0.  0.
        -12    1    1    2    0    0 -0.14968296634E+02  0.39876726077E+02 -0.83318634147E+01  0.43400727352E+02  0.00000000000E+00 0.  1.
         11    1    3    3    0    0  0.79133015225E+01 -0.45962891206E+01  0.40369149860E+01  0.10002144647E+02  0.51100000000E-03 0. -1.
        -11    1    3    3    0    0 -0.23355458698E+01 -0.28556420696E+01 -0.36788682607E+00  0.37073989693E+01  0.51100000000E-03 0.  1.
         12    1    3    3    0    0  0.93905409812E+01 -0.32424794887E+02  0.46628352547E+01  0.34077729032E+02  0.00000000000E+00 0. -1.
</event>
<event>
 7    1  0.3884463E-009  0.4778727E+02  0.7816164E-02  0.1312668E+00
        -11   -1    0    0    0    0  0.00000000000E+00  0.00000000000E+00  0.45593999997E+02  0.45594000000E+02  0.51100000000E-03 0.  1.
         11   -1    0    0    0    0 -0.00000000000E+00 -0.00000000000E+00 -0.45593999997E+02  0.45594000000E+02  0.51100000000E-03 0. -1.
    9900012    2    1    2    0    0  0.23069859521E+02 -0.36277307451E+02 -0.59465519143E+01  0.47787274961E+02  0.20000017858E+02 0.  0.
        -12    1    1    2    0    0 -0.23069859521E+02  0.36277307451E+02  0.59465519143E+01  0.43400725039E+02  0.00000000000E+00 0.  1.
         11    1    3    3    0    0  0.96320640032E+01 -0.69443220335E+01 -0.33694342721E+01  0.12343150045E+02  0.51100000000E-03 0. -1.
        -11    1    3    3    0    0  0.77454702347E+01 -0.30152832853E+01  0.58800752035E+00  0.83324663547E+01  0.51100000000E-03 0.  1.
        -12    1    3    3    0    0  0.56923252834E+01 -0.26317702132E+02 -0.31651251626E+01  0.27111658561E+02  0.00000000000E+00 0.  1.
</event>
<event>
 7    1  0.3884463E-009  0.4778727E+02  0.7816164E-02  0.1312668E+00
        -11   -1    0    0    0    0  0.00000000000E+00  0.00000000000E+00  0.45593999997E+02  0.45594000000E+02  0.51100000000E-03 0.  1.
         11   -1    0    0    0    0 -0.00000000000E+00 -0.00000000000E+00 -0.45593999997E+02  0.45594000000E+02  0.51100000000E-03 0. -1.
    9900012    2    1    2    0    0  0.33129351781E+02  0.26830358235E+02 -0.81363996295E+01  0.47787273377E+02  0.20000010634E+02 0.  0.
        -12    1    1    2    0    0 -0.33129351781E+02 -0.26830358235E+02  0.81363996295E+01  0.43400726623E+02  0.00000000000E+00 0.  1.
         11    1    3    3    0    0  0.15161152879E+02  0.15160702521E+02 -0.66340976580E+01  0.22443678610E+02  0.51100000000E-03 0. -1.
        -11    1    3    3    0    0  0.16314820499E+02  0.14585639201E+02 -0.19075123351E+01  0.21967085433E+02  0.51100000000E-03 0.  1.
        -12    1    3    3    0    0  0.16533784034E+01 -0.29159834876E+01  0.40521036358E+00  0.33765093341E+01  0.00000000000E+00 0.  1.
</event>
<event>
 7    1  0.3884463E-009  0.4778727E+02  0.7816164E-02  0.1312668E+00
        -11   -1    0    0    0    0  0.00000000000E+00  0.00000000000E+00  0.45593999997E+02  0.45594000000E+02  0.51100000000E-03 0. -1.
         11   -1    0    0    0    0 -0.00000000000E+00 -0.00000000000E+00 -0.45593999997E+02  0.45594000000E+02  0.51100000000E-03 0.  1.
    9900012    2    1    2    0    0  0.39275772134E+02  0.13594277937E+02  0.12499296850E+02  0.47787273150E+02  0.20000009599E+02 0.  0.
        -12    1    1    2    0    0 -0.39275772134E+02 -0.13594277937E+02 -0.12499296850E+02  0.43400726850E+02  0.00000000000E+00 0.  1.
         11    1    3    3    0    0  0.73565365755E+01  0.30329645109E+01  0.41704327372E+01  0.89838751988E+01  0.51100000000E-03 0. -1.
        -11    1    3    3    0    0  0.15407402564E+02  0.60092679875E+01 -0.48026247591E+01  0.17221049921E+02  0.51100000000E-03 0.  1.
        -12    1    3    3    0    0  0.16511832994E+02  0.45520454386E+01  0.13131488872E+02  0.21582348030E+02  0.00000000000E+00 0.  1.
</event>
<event>
 7    1  0.3884463E-009  0.4778725E+02  0.7816164E-02  0.1312668E+00
        -11   -1    0    0    0    0  0.00000000000E+00  0.00000000000E+00  0.45593999997E+02  0.45594000000E+02  0.51100000000E-03 0.  1.
         11   -1    0    0    0    0 -0.00000000000E+00 -0.00000000000E+00 -0.45593999997E+02  0.45594000000E+02  0.51100000000E-03 0. -1.
    9900012    2    1    2    0    0 -0.18365095224E+02  0.17625470572E+02 -0.35152393477E+02  0.47787254584E+02  0.19999924951E+02 0.  0.
        -12    1    1    2    0    0  0.18365095224E+02 -0.17625470572E+02  0.35152393477E+02  0.43400745416E+02  0.00000000000E+00 0.  1.
         11    1    3    3    0    0 -0.23379903665E+01  0.72693988814E-01 -0.99902173129E+01  0.10260405723E+02  0.51100000000E-03 0. -1.
        -11    1    3    3    0    0 -0.52090517332E+00 -0.19608911705E+01 -0.52393534679E+01  0.56184750070E+01  0.51100000000E-03 0.  1.
         12    1    3    3    0    0 -0.15506199684E+02  0.19513667753E+02 -0.19922822697E+02  0.31908373855E+02  0.00000000000E+00 0. -1.
</event>
<event>
 7    1  0.3884463E-009  0.4778728E+02  0.7816164E-02  0.1312668E+00
        -11   -1    0    0    0    0  0.00000000000E+00  0.00000000000E+00  0.45593999997E+02  0.45594000000E+02  0.51100000000E-03 0.  1.
         11   -1    0    0    0    0 -0.00000000000E+00 -0.00000000000E+00 -0.45593999997E+02  0.45594000000E+02  0.51100000000E-03 0. -1.
    9900012    2    1    2    0    0  0.27843751183E+02  0.28761794183E+02 -0.16766244572E+02  0.47787282937E+02  0.20000054221E+02 0.  0.
        -12    1    1    2    0    0 -0.27843751183E+02 -0.28761794183E+02  0.16766244572E+02  0.43400717063E+02  0.00000000000E+00 0.  1.
         11    1    3    3    0    0  0.10772420484E+02  0.11833511370E+02 -0.91880449595E+01  0.18452566349E+02  0.51100000000E-03 0. -1.
        -11    1    3    3    0    0  0.15845323209E+02  0.59661014343E+01 -0.69002284253E+01  0.18283374593E+02  0.51100000000E-03 0.  1.
        -12    1    3    3    0    0  0.12260074894E+01  0.10962181378E+02 -0.67797118728E+00  0.11051341994E+02  0.00000000000E+00 0.  1.
</event>
<event>
 7    1  0.3884463E-009  0.4778727E+02  0.7816164E-02  0.1312668E+00
        -11   -1    0    0    0    0  0.00000000000E+00  0.00000000000E+00  0.45593999997E+02  0.45594000000E+02  0.51100000000E-03 0. -1.
         11   -1    0    0    0    0 -0.00000000000E+00 -0.00000000000E+00 -0.45593999997E+02  0.45594000000E+02  0.51100000000E-03 0.  1.
    9900012    2    1    2    0    0  0.32491909048E+02  0.50421620133E+01  0.28328002232E+02  0.47787271183E+02  0.20000000634E+02 0.  0.
        -12    1    1    2    0    0 -0.32491909048E+02 -0.50421620133E+01 -0.28328002232E+02  0.43400728817E+02  0.00000000000E+00 0.  1.
         11    1    3    3    0    0  0.18732492099E+02  0.10884211953E+01  0.10339846176E+02  0.21424363238E+02  0.51100000000E-03 0. -1.
        -11    1    3    3    0    0  0.11002000495E+02  0.26696273933E+01  0.39369909861E+01  0.11986276469E+02  0.51100000000E-03 0.  1.
         12    1    3    3    0    0  0.27574164540E+01  0.12841134247E+01  0.14051165070E+02  0.14376631476E+02  0.00000000000E+00 0. -1.
</event>
<event>
 7    1  0.3884463E-009  0.4778727E+02  0.7816164E-02  0.1312668E+00
        -11   -1    0    0    0    0  0.00000000000E+00  0.00000000000E+00  0.45593999997E+02  0.45594000000E+02  0.51100000000E-03 0.  1.
         11   -1    0    0    0    0 -0.00000000000E+00 -0.00000000000E+00 -0.45593999997E+02  0.45594000000E+02  0.51100000000E-03 0. -1.
    9900012    2    1    2    0    0  0.16095577489E+02  0.62845374901E+01 -0.39812815512E+02  0.47787270684E+02  0.19999998359E+02 0.  0.
        -12    1    1    2    0    0 -0.16095577489E+02 -0.62845374901E+01  0.39812815512E+02  0.43400729316E+02  0.00000000000E+00 0.  1.
         11    1    3    3    0    0  0.90237565894E+01 -0.22586855392E+01 -0.82821299438E+01  0.12454859293E+02  0.51100000000E-03 0. -1.
        -11    1    3    3    0    0  0.12531092731E+01 -0.13557504230E+01 -0.76343438255E-01  0.18477474506E+01  0.51100000000E-03 0.  1.
        -12    1    3    3    0    0  0.58187116261E+01  0.98989734523E+01 -0.31454342130E+02  0.33484663940E+02  0.00000000000E+00 0.  1.
</event>
<event>
 7    1  0.3884463E-009  0.4778731E+02  0.7816164E-02  0.1312668E+00
        -11   -1    0    0    0    0  0.00000000000E+00  0.00000000000E+00  0.45593999997E+02  0.45594000000E+02  0.51100000000E-03 0. -1.
         11   -1    0    0    0    0 -0.00000000000E+00 -0.00000000000E+00 -0.45593999997E+02  0.45594000000E+02  0.51100000000E-03 0.  1.
    9900012    2    1    2    0    0  0.23163003512E+02 -0.33701139985E+02  0.14537132341E+02  0.47787311242E+02  0.20000183275E+02 0.  0.
        -12    1    1    2    0    0 -0.23163003512E+02  0.33701139985E+02 -0.14537132341E+02  0.43400688758E+02  0.00000000000E+00 0.  1.
         11    1    3    3    0    0  0.46477318283E+01 -0.57544373645E+01  0.11572183133E+02  0.13734277675E+02  0.51100000000E-03 0. -1.
        -11    1    3    3    0    0  0.59984695454E+01 -0.10833283012E+02  0.34168389206E+01  0.12845872730E+02  0.51100000000E-03 0.  1.
         12    1    3    3    0    0  0.12516802138E+02 -0.17113419608E+02 -0.45188971307E+00  0.21207160837E+02  0.00000000000E+00 0. -1.
</event>
<event>
 7    1  0.3884463E-009  0.4778727E+02  0.7816164E-02  0.1312668E+00
        -11   -1    0    0    0    0  0.00000000000E+00  0.00000000000E+00  0.45593999997E+02  0.45594000000E+02  0.51100000000E-03 0.  1.
         11   -1    0    0    0    0 -0.00000000000E+00 -0.00000000000E+00 -0.45593999997E+02  0.45594000000E+02  0.51100000000E-03 0. -1.
    9900012    2    1    2    0    0  0.14825785491E+02 -0.40400696467E+02 -0.56216774454E+01  0.47787269042E+02  0.19999990869E+02 0.  0.
        -12    1    1    2    0    0 -0.14825785491E+02  0.40400696467E+02  0.56216774454E+01  0.43400730958E+02  0.00000000000E+00 0.  1.
         11    1    3    3    0    0  0.27279048102E+01 -0.26380807404E+02 -0.35008071558E+01  0.26751525469E+02  0.51100000000E-03 0. -1.
        -11    1    3    3    0    0  0.91895855115E+01 -0.10153468241E+02  0.29696590079E+01  0.14012861024E+02  0.51100000000E-03 0.  1.
        -12    1    3    3    0    0  0.29082951691E+01 -0.38664208219E+01 -0.50905292974E+01  0.70228825485E+01  0.00000000000E+00 0.  1.
</event>
<event>
 7    1  0.3884463E-009  0.4778727E+02  0.7816164E-02  0.1312668E+00
        -11   -1    0    0    0    0  0.00000000000E+00  0.00000000000E+00  0.45593999997E+02  0.45594000000E+02  0.51100000000E-03 0.  1.
         11   -1    0    0    0    0 -0.00000000000E+00 -0.00000000000E+00 -0.45593999997E+02  0.45594000000E+02  0.51100000000E-03 0. -1.
    9900012    2    1    2    0    0  0.12260768374E+02 -0.23760709113E+02 -0.34186635658E+02  0.47787265026E+02  0.19999972559E+02 0.  0.
        -12    1    1    2    0    0 -0.12260768374E+02  0.23760709113E+02  0.34186635658E+02  0.43400734974E+02  0.00000000000E+00 0.  1.
         11    1    3    3    0    0 -0.93259475545E+00 -0.41513210545E+01 -0.66471767965E+01  0.78922847833E+01  0.51100000000E-03 0. -1.
        -11    1    3    3    0    0  0.11338221818E+02 -0.39660396990E+01 -0.17461761027E+02  0.21194287988E+02  0.51100000000E-03 0.  1.
         12    1    3    3    0    0  0.18551413121E+01 -0.15643348359E+02 -0.10077697835E+02  0.18700692255E+02  0.00000000000E+00 0. -1.
</event>
<event>
 7    1  0.3884463E-009  0.4778724E+02  0.7816164E-02  0.1312668E+00
        -11   -1    0    0    0    0  0.00000000000E+00  0.00000000000E+00  0.45593999997E+02  0.45594000000E+02  0.51100000000E-03 0.  1.
         11   -1    0    0    0    0 -0.00000000000E+00 -0.00000000000E+00 -0.45593999997E+02  0.45594000000E+02  0.51100000000E-03 0. -1.
    9900012    2    1    2    0    0 -0.15077996085E+02  0.39482016643E+02 -0.98716979416E+01  0.47787239358E+02  0.19999855527E+02 0.  0.
        -12    1    1    2    0    0  0.15077996085E+02 -0.39482016643E+02  0.98716979416E+01  0.43400760642E+02  0.00000000000E+00 0.  1.
         11    1    3    3    0    0 -0.52351510615E+01  0.16616366385E+02 -0.32488247412E+01  0.17721887623E+02  0.51100000000E-03 0. -1.
        -11    1    3    3    0    0 -0.12838541147E+02  0.15315440356E+02 -0.85180986159E+01  0.21724383913E+02  0.51100000000E-03 0.  1.
         12    1    3    3    0    0  0.29956961242E+01  0.75502099016E+01  0.18952254156E+01  0.83409678217E+01  0.00000000000E+00 0. -1.
</event>
<event>
 7    1  0.3884463E-009  0.4778727E+02  0.7816164E-02  0.1312668E+00
        -11   -1    0    0    0    0  0.00000000000E+00  0.00000000000E+00  0.45593999997E+02  0.45594000000E+02  0.51100000000E-03 0.  1.
         11   -1    0    0    0    0 -0.00000000000E+00 -0.00000000000E+00 -0.45593999997E+02  0.45594000000E+02  0.51100000000E-03 0. -1.
    9900012    2    1    2    0    0 -0.19390076991E+02  0.16281381201E+02 -0.35250029507E+02  0.47787273741E+02  0.20000012295E+02 0.  0.
        -12    1    1    2    0    0  0.19390076991E+02 -0.16281381201E+02  0.35250029507E+02  0.43400726259E+02  0.00000000000E+00 0.  1.
         11    1    3    3    0    0 -0.14518434686E+02  0.73609125378E+01 -0.81661162139E+01  0.18211354519E+02  0.51100000000E-03 0.  1.
        -11    1    3    3    0    0 -0.51025291025E+01  0.53986936169E+01 -0.12236574308E+02  0.14314868043E+02  0.51100000000E-03 0. -1.
        -12    1    3    3    0    0  0.23088679716E+00  0.35217750465E+01 -0.14847338985E+02  0.15261051180E+02  0.00000000000E+00 0.  1.
</event>
<event>
 7    1  0.3884463E-009  0.4778727E+02  0.7816164E-02  0.1312668E+00
        -11   -1    0    0    0    0  0.00000000000E+00  0.00000000000E+00  0.45593999997E+02  0.45594000000E+02  0.51100000000E-03 0.  1.
         11   -1    0    0    0    0 -0.00000000000E+00 -0.00000000000E+00 -0.45593999997E+02  0.45594000000E+02  0.51100000000E-03 0. -1.
    9900012    2    1    2    0    0 -0.15302631872E+02  0.17126845186E+02 -0.36825588366E+02  0.47787270436E+02  0.19999997224E+02 0.  0.
        -12    1    1    2    0    0  0.15302631872E+02 -0.17126845186E+02  0.36825588366E+02  0.43400729564E+02  0.00000000000E+00 0.  1.
         11    1    3    3    0    0 -0.54823163866E+01  0.48375978843E+01 -0.23068075419E+01  0.76667794770E+01  0.51100000000E-03 0. -1.
        -11    1    3    3    0    0 -0.19611502350E+01 -0.12763121210E+01 -0.14989094176E+00  0.23446855717E+01  0.51100000000E-03 0.  1.
        -12    1    3    3    0    0 -0.78591652502E+01  0.13565559423E+02 -0.34368889882E+02  0.37775805387E+02  0.00000000000E+00 0.  1.
</event>
<event>
 7    1  0.3884463E-009  0.4778727E+02  0.7816164E-02  0.1312668E+00
        -11   -1    0    0    0    0  0.00000000000E+00  0.00000000000E+00  0.45593999997E+02  0.45594000000E+02  0.51100000000E-03 0.  1.
         11   -1    0    0    0    0 -0.00000000000E+00 -0.00000000000E+00 -0.45593999997E+02  0.45594000000E+02  0.51100000000E-03 0. -1.
    9900012    2    1    2    0    0  0.22657255432E+01  0.36107959945E+02 -0.23973005511E+02  0.47787271010E+02  0.19999999844E+02 0.  0.
        -12    1    1    2    0    0 -0.22657255432E+01 -0.36107959945E+02  0.23973005511E+02  0.43400728990E+02  0.00000000000E+00 0.  1.
         11    1    3    3    0    0  0.40997209078E+01  0.69325111438E+01 -0.62246910464E+01  0.10179106108E+02  0.51100000000E-03 0. -1.
        -11    1    3    3    0    0  0.34152055870E+01  0.65778047162E+01  0.13811879316E+01  0.75391527673E+01  0.51100000000E-03 0.  1.
         12    1    3    3    0    0 -0.52492009515E+01  0.22597644085E+02 -0.19129502397E+02  0.30069012134E+02  0.00000000000E+00 0. -1.
</event>
<event>
 7    1  0.3884463E-009  0.4778727E+02  0.7816164E-02  0.1312668E+00
        -11   -1    0    0    0    0  0.00000000000E+00  0.00000000000E+00  0.45593999997E+02  0.45594000000E+02  0.51100000000E-03 0. -1.
         11   -1    0    0    0    0 -0.00000000000E+00 -0.00000000000E+00 -0.45593999997E+02  0.45594000000E+02  0.51100000000E-03 0.  1.
    9900012    2    1    2    0    0  0.26304052693E+01 -0.36688055881E+02  0.23036724096E+02  0.47787272664E+02  0.20000007385E+02 0.  0.
        -12    1    1    2    0    0 -0.26304052693E+01  0.36688055881E+02 -0.23036724096E+02  0.43400727336E+02  0.00000000000E+00 0.  1.
         11    1    3    3    0    0  0.19512490679E+01 -0.67223395956E+01  0.21670439672E+01  0.73275713835E+01  0.51100000000E-03 0. -1.
        -11    1    3    3    0    0 -0.49330145207E+01 -0.18087009829E+02  0.19817074247E+02  0.27279864163E+02  0.51100000000E-03 0.  1.
        -12    1    3    3    0    0  0.56121707221E+01 -0.11878706457E+02  0.10526058818E+01  0.13179837117E+02  0.00000000000E+00 0.  1.
</event>
<event>
 7    1  0.3884463E-009  0.4778725E+02  0.7816164E-02  0.1312668E+00
        -11   -1    0    0    0    0  0.00000000000E+00  0.00000000000E+00  0.45593999997E+02  0.45594000000E+02  0.51100000000E-03 0.  1.
         11   -1    0    0    0    0 -0.00000000000E+00 -0.00000000000E+00 -0.45593999997E+02  0.45594000000E+02  0.51100000000E-03 0. -1.
    9900012    2    1    2    0    0  0.22316445707E+02  0.16922383031E+02 -0.33154697302E+02  0.47787254043E+02  0.19999922484E+02 0.  0.
        -12    1    1    2    0    0 -0.22316445707E+02 -0.16922383031E+02  0.33154697302E+02  0.43400745957E+02  0.00000000000E+00 0.  1.
         11    1    3    3    0    0  0.15604111330E+02  0.57630060185E+01 -0.13291511456E+02  0.21292364965E+02  0.51100000000E-03 0. -1.
        -11    1    3    3    0    0  0.64631142685E+01  0.11528573091E+02 -0.98789258334E+01  0.16500697545E+02  0.51100000000E-03 0.  1.
         12    1    3    3    0    0  0.24922010847E+00 -0.36919607884E+00 -0.99842600125E+01  0.99941915333E+01  0.00000000000E+00 0. -1.
</event>
<event>
 7    1  0.3884463E-009  0.4778727E+02  0.7816164E-02  0.1312668E+00
        -11   -1    0    0    0    0  0.00000000000E+00  0.00000000000E+00  0.45593999997E+02  0.45594000000E+02  0.51100000000E-03 0. -1.
         11   -1    0    0    0    0 -0.00000000000E+00 -0.00000000000E+00 -0.45593999997E+02  0.45594000000E+02  0.51100000000E-03 0.  1.
    9900012    2    1    2    0    0 -0.97261064192E+01  0.36430862431E+01  0.42139702011E+02  0.47787266032E+02  0.19999977144E+02 0.  0.
        -12    1    1    2    0    0  0.97261064192E+01 -0.36430862431E+01 -0.42139702011E+02  0.43400733968E+02  0.00000000000E+00 0.  1.
         11    1    3    3    0    0 -0.39845437481E+01  0.48902273997E+01  0.26866466212E+02  0.27597063609E+02  0.51100000000E-03 0. -1.
        -11    1    3    3    0    0 -0.60195674432E+01  0.44588583352E+01  0.87969533518E+01  0.11554349761E+02  0.51100000000E-03 0.  1.
         12    1    3    3    0    0  0.27800477211E+00 -0.57059994918E+01  0.64762824471E+01  0.86358526614E+01  0.00000000000E+00 0. -1.
</event>
<event>
 7    1  0.3884463E-009  0.4778727E+02  0.7816164E-02  0.1312668E+00
        -11   -1    0    0    0    0  0.00000000000E+00  0.00000000000E+00  0.45593999997E+02  0.45594000000E+02  0.51100000000E-03 0. -1.
         11   -1    0    0    0    0 -0.00000000000E+00 -0.00000000000E+00 -0.45593999997E+02  0.45594000000E+02  0.51100000000E-03 0.  1.
    9900012    2    1    2    0    0  0.28327397269E+02  0.52135498385E+01  0.32465379011E+02  0.47787269911E+02  0.19999994830E+02 0.  0.
        -12    1    1    2    0    0 -0.28327397269E+02 -0.52135498385E+01 -0.32465379011E+02  0.43400730089E+02  0.00000000000E+00 0.  1.
         11    1    3    3    0    0  0.23895425229E+02  0.96357176067E+01  0.24187856716E+02  0.35339649311E+02  0.51100000000E-03 0. -1.
        -11    1    3    3    0    0  0.62720950824E+01 -0.36733981041E+01  0.59976755996E+01  0.94236480841E+01  0.51100000000E-03 0.  1.
        -12    1    3    3    0    0 -0.18401230418E+01 -0.74876966407E+00  0.22798466961E+01  0.30239725158E+01  0.00000000000E+00 0.  1.
</event>
<event>
 7    1  0.3884463E-009  0.4778727E+02  0.7816164E-02  0.1312668E+00
        -11   -1    0    0    0    0  0.00000000000E+00  0.00000000000E+00  0.45593999997E+02  0.45594000000E+02  0.51100000000E-03 0. -1.
         11   -1    0    0    0    0 -0.00000000000E+00 -0.00000000000E+00 -0.45593999997E+02  0.45594000000E+02  0.51100000000E-03 0.  1.
    9900012    2    1    2    0    0  0.14799102872E+02  0.22711127490E+02  0.33894173586E+02  0.47787265435E+02  0.19999974425E+02 0.  0.
        -12    1    1    2    0    0 -0.14799102872E+02 -0.22711127490E+02 -0.33894173586E+02  0.43400734565E+02  0.00000000000E+00 0.  1.
         11    1    3    3    0    0  0.79664686927E+01  0.24213760692E+01  0.65090692498E+01  0.10568617140E+02  0.51100000000E-03 0. -1.
        -11    1    3    3    0    0  0.46198799746E+01  0.47799801981E+01  0.12748945228E+01  0.67688151090E+01  0.51100000000E-03 0.  1.
         12    1    3    3    0    0  0.22127542048E+01  0.15509771223E+02  0.26110209813E+02  0.30449833186E+02  0.00000000000E+00 0. -1.
</event>
<event>
 7    1  0.3884463E-009  0.4778727E+02  0.7816164E-02  0.1312668E+00
        -11   -1    0    0    0    0  0.00000000000E+00  0.00000000000E+00  0.45593999997E+02  0.45594000000E+02  0.51100000000E-03 0.  1.
         11   -1    0    0    0    0 -0.00000000000E+00 -0.00000000000E+00 -0.45593999997E+02  0.45594000000E+02  0.51100000000E-03 0. -1.
    9900012    2    1    2    0    0 -0.37522078105E+01  0.40661048156E+02 -0.14704549726E+02  0.47787266328E+02  0.19999978496E+02 0.  0.
        -12    1    1    2    0    0  0.37522078105E+01 -0.40661048156E+02  0.14704549726E+02  0.43400733672E+02  0.00000000000E+00 0.  1.
         11    1    3    3    0    0 -0.86908712261E+01  0.21893636279E+02 -0.86680068963E+01  0.25099738963E+02  0.51100000000E-03 0. -1.
        -11    1    3    3    0    0 -0.80042240821E+00 -0.97701872236E+00 -0.17900477100E-01  0.12631556925E+01  0.51100000000E-03 0.  1.
        -12    1    3    3    0    0  0.57390858238E+01  0.19744430600E+02 -0.60186423523E+01  0.21424371672E+02  0.00000000000E+00 0.  1.
</event>
<event>
 7    1  0.3884463E-009  0.4778728E+02  0.7816164E-02  0.1312668E+00
        -11   -1    0    0    0    0  0.00000000000E+00  0.00000000000E+00  0.45593999997E+02  0.45594000000E+02  0.51100000000E-03 0. -1.
         11   -1    0    0    0    0 -0.00000000000E+00 -0.00000000000E+00 -0.45593999997E+02  0.45594000000E+02  0.51100000000E-03 0.  1.
    9900012    2    1    2    0    0  0.38544471729E+01  0.35927909994E+02  0.24040620239E+02  0.47787275340E+02  0.20000019585E+02 0.  0.
        -12    1    1    2    0    0 -0.38544471729E+01 -0.35927909994E+02 -0.24040620239E+02  0.43400724660E+02  0.00000000000E+00 0.  1.
         11    1    3    3    0    0  0.13694694285E+00  0.64593007007E+00 -0.10902731767E+01  0.12746277816E+01  0.51100000000E-03 0. -1.
        -11    1    3    3    0    0 -0.47506299124E+00 -0.17779165753E+01  0.10727933840E+01  0.21301544780E+01  0.51100000000E-03 0.  1.
         12    1    3    3    0    0  0.41925632213E+01  0.37059896499E+02  0.24058100032E+02  0.44382493080E+02  0.00000000000E+00 0. -1.
</event>
<event>
 7    1  0.3884463E-009  0.4778728E+02  0.7816164E-02  0.1312668E+00
        -11   -1    0    0    0    0  0.00000000000E+00  0.00000000000E+00  0.45593999997E+02  0.45594000000E+02  0.51100000000E-03 0.  1.
         11   -1    0    0    0    0 -0.00000000000E+00 -0.00000000000E+00 -0.45593999997E+02  0.45594000000E+02  0.51100000000E-03 0. -1.
    9900012    2    1    2    0    0 -0.24331807616E+02  0.17645416231E+02 -0.31308549101E+02  0.47787276243E+02  0.20000023701E+02 0.  0.
        -12    1    1    2    0    0  0.24331807616E+02 -0.17645416231E+02  0.31308549101E+02  0.43400723757E+02  0.00000000000E+00 0.  1.
         11    1    3    3    0    0 -0.12908837902E+02  0.94362231068E+01 -0.65884373916E+01  0.17294158263E+02  0.51100000000E-03 0. -1.
        -11    1    3    3    0    0 -0.60098643324E+01 -0.66453186386E+00 -0.38233251303E+01  0.71538721826E+01  0.51100000000E-03 0.  1.
         12    1    3    3    0    0 -0.54131053817E+01  0.88737249882E+01 -0.20896786579E+02  0.23339245797E+02  0.00000000000E+00 0. -1.
</event>
<event>
 7    1  0.3884463E-009  0.4778727E+02  0.7816164E-02  0.1312668E+00
        -11   -1    0    0    0    0  0.00000000000E+00  0.00000000000E+00  0.45593999997E+02  0.45594000000E+02  0.51100000000E-03 0.  1.
         11   -1    0    0    0    0 -0.00000000000E+00 -0.00000000000E+00 -0.45593999997E+02  0.45594000000E+02  0.51100000000E-03 0. -1.
    9900012    2    1    2    0    0 -0.11198433469E+02  0.30615021557E+02 -0.28652027006E+02  0.47787272948E+02  0.20000008680E+02 0.  0.
        -12    1    1    2    0    0  0.11198433469E+02 -0.30615021557E+02  0.28652027006E+02  0.43400727052E+02  0.00000000000E+00 0.  1.
         11    1    3    3    0    0 -0.67483496142E+01  0.13178838221E+02 -0.14336232200E+02  0.20609453009E+02  0.51100000000E-03 0. -1.
        -11    1    3    3    0    0 -0.66465941775E+01  0.12112056105E+02 -0.25099668844E+01  0.14042045836E+02  0.51100000000E-03 0.  1.
        -12    1    3    3    0    0  0.21965103226E+01  0.53241272306E+01 -0.11805827921E+02  0.13135774103E+02  0.00000000000E+00 0.  1.
</event>
<event>
 7    1  0.3884463E-009  0.4778727E+02  0.7816164E-02  0.1312668E+00
        -11   -1    0    0    0    0  0.00000000000E+00  0.00000000000E+00  0.45593999997E+02  0.45594000000E+02  0.51100000000E-03 0.  1.
         11   -1    0    0    0    0 -0.00000000000E+00 -0.00000000000E+00 -0.45593999997E+02  0.45594000000E+02  0.51100000000E-03 0. -1.
    9900012    2    1    2    0    0 -0.81987333111E+00 -0.34760658792E+02 -0.25973974862E+02  0.47787274637E+02  0.20000016381E+02 0.  0.
        -12    1    1    2    0    0  0.81987333111E+00  0.34760658792E+02  0.25973974862E+02  0.43400725363E+02  0.00000000000E+00 0.  1.
         11    1    3    3    0    0  0.52800264155E+01 -0.19359278231E+02 -0.60651945484E+01  0.20962989237E+02  0.51100000000E-03 0. -1.
        -11    1    3    3    0    0  0.14675263781E+00  0.10453921819E+00 -0.31439670491E+01  0.31491258869E+01  0.51100000000E-03 0.  1.
        -12    1    3    3    0    0 -0.62466523844E+01 -0.15505919778E+02 -0.16764813264E+02  0.23675159513E+02  0.00000000000E+00 0.  1.
</event>
<event>
 7    1  0.3884463E-009  0.4778727E+02  0.7816164E-02  0.1312668E+00
        -11   -1    0    0    0    0  0.00000000000E+00  0.00000000000E+00  0.45593999997E+02  0.45594000000E+02  0.51100000000E-03 0. -1.
         11   -1    0    0    0    0 -0.00000000000E+00 -0.00000000000E+00 -0.45593999997E+02  0.45594000000E+02  0.51100000000E-03 0.  1.
    9900012    2    1    2    0    0 -0.40585980956E+02 -0.11629204717E+02  0.10057977418E+02  0.47787272331E+02  0.20000005865E+02 0.  0.
        -12    1    1    2    0    0  0.40585980956E+02  0.11629204717E+02 -0.10057977418E+02  0.43400727669E+02  0.00000000000E+00 0.  1.
         11    1    3    3    0    0 -0.17223350734E+02 -0.62540496992E+01 -0.18757774146E+01  0.18419432383E+02  0.51100000000E-03 0. -1.
        -11    1    3    3    0    0 -0.13562573287E+02 -0.50841774209E+01  0.76234671252E+00  0.14504255479E+02  0.51100000000E-03 0.  1.
        -12    1    3    3    0    0 -0.98000569345E+01 -0.29097759647E+00  0.11171408120E+02  0.14863584469E+02  0.00000000000E+00 0.  1.
</event>
<event>
 7    1  0.3884463E-009  0.4778727E+02  0.7816164E-02  0.1312668E+00
        -11   -1    0    0    0    0  0.00000000000E+00  0.00000000000E+00  0.45593999997E+02  0.45594000000E+02  0.51100000000E-03 0.  1.
         11   -1    0    0    0    0 -0.00000000000E+00 -0.00000000000E+00 -0.45593999997E+02  0.45594000000E+02  0.51100000000E-03 0. -1.
    9900012    2    1    2    0    0 -0.28492321007E+02 -0.25747559279E+02 -0.20220636151E+02  0.47787270841E+02  0.19999999074E+02 0.  0.
        -12    1    1    2    0    0  0.28492321007E+02  0.25747559279E+02  0.20220636151E+02  0.43400729159E+02  0.00000000000E+00 0.  1.
         11    1    3    3    0    0 -0.14400004830E+02 -0.13192641506E+02 -0.12943742530E+02  0.23429605202E+02  0.51100000000E-03 0. -1.
        -11    1    3    3    0    0 -0.12045044233E+02 -0.19481249454E+01 -0.56016630606E+01  0.13425978947E+02  0.51100000000E-03 0.  1.
         12    1    3    3    0    0 -0.20472719436E+01 -0.10606792828E+02 -0.16752305610E+01  0.10931686692E+02  0.00000000000E+00 0. -1.
</event>
<event>
 7    1  0.3884463E-009  0.4778723E+02  0.7816164E-02  0.1312668E+00
        -11   -1    0    0    0    0  0.00000000000E+00  0.00000000000E+00  0.45593999997E+02  0.45594000000E+02  0.51100000000E-03 0. -1.
         11   -1    0    0    0    0 -0.00000000000E+00 -0.00000000000E+00 -0.45593999997E+02  0.45594000000E+02  0.51100000000E-03 0.  1.
    9900012    2    1    2    0    0  0.11048781466E+02 -0.19430648321E+02  0.37202162041E+02  0.47787233572E+02  0.19999829146E+02 0.  0.
        -12    1    1    2    0    0 -0.11048781466E+02  0.19430648321E+02 -0.37202162041E+02  0.43400766428E+02  0.00000000000E+00 0.  1.
         11    1    3    3    0    0 -0.14752658806E+01  0.18376342781E+01  0.10302111787E+01  0.25718951169E+01  0.51100000000E-03 0. -1.
        -11    1    3    3    0    0  0.20739450127E+01  0.10649169298E+01  0.45880597530E+01  0.51464151155E+01  0.51100000000E-03 0.  1.
         12    1    3    3    0    0  0.10450102333E+02 -0.22333199529E+02  0.31583891109E+02  0.40068923339E+02  0.00000000000E+00 0. -1.
</event>
<event>
 7    1  0.3884463E-009  0.4778726E+02  0.7816164E-02  0.1312668E+00
        -11   -1    0    0    0    0  0.00000000000E+00  0.00000000000E+00  0.45593999997E+02  0.45594000000E+02  0.51100000000E-03 0.  1.
         11   -1    0    0    0    0 -0.00000000000E+00 -0.00000000000E+00 -0.45593999997E+02  0.45594000000E+02  0.51100000000E-03 0. -1.
    9900012    2    1    2    0    0  0.18485258484E+02 -0.16805278234E+02 -0.35489458907E+02  0.47787264392E+02  0.19999969671E+02 0.  0.
        -12    1    1    2    0    0 -0.18485258484E+02  0.16805278234E+02  0.35489458907E+02  0.43400735608E+02  0.00000000000E+00 0.  1.
         11    1    3    3    0    0  0.17689758081E+00  0.64870730726E+00 -0.72524439565E+01  0.72835470430E+01  0.51100000000E-03 0. -1.
        -11    1    3    3    0    0  0.56756884690E+00  0.16127694072E+01  0.44008486303E+00  0.17654558914E+01  0.51100000000E-03 0.  1.
        -12    1    3    3    0    0  0.17740792057E+02 -0.19066754949E+02 -0.28677099814E+02  0.38738261458E+02  0.00000000000E+00 0.  1.
</event>
<event>
 7    1  0.3884463E-009  0.4778728E+02  0.7816164E-02  0.1312668E+00
        -11   -1    0    0    0    0  0.00000000000E+00  0.00000000000E+00  0.45593999997E+02  0.45594000000E+02  0.51100000000E-03 0. -1.
         11   -1    0    0    0    0 -0.00000000000E+00 -0.00000000000E+00 -0.45593999997E+02  0.45594000000E+02  0.51100000000E-03 0.  1.
    9900012    2    1    2    0    0  0.42802910556E+02  0.71435874236E+01 -0.70868126455E+00  0.47787283157E+02  0.20000055226E+02 0.  0.
        -12    1    1    2    0    0 -0.42802910556E+02 -0.71435874236E+01  0.70868126455E+00  0.43400716843E+02  0.00000000000E+00 0.  1.
         11    1    3    3    0    0  0.14759855941E+02 -0.58432772010E+01  0.41802082005E+01  0.16415583349E+02  0.51100000000E-03 0. -1.
        -11    1    3    3    0    0  0.80921132832E+01  0.37591184447E+01 -0.36931380568E+00  0.89302666151E+01  0.51100000000E-03 0.  1.
         12    1    3    3    0    0  0.19950941332E+02  0.92277461799E+01 -0.45195756594E+01  0.22441433193E+02  0.00000000000E+00 0. -1.
</event>
<event>
 7    1  0.3884463E-009  0.4778727E+02  0.7816164E-02  0.1312668E+00
        -11   -1    0    0    0    0  0.00000000000E+00  0.00000000000E+00  0.45593999997E+02  0.45594000000E+02  0.51100000000E-03 0.  1.
         11   -1    0    0    0    0 -0.00000000000E+00 -0.00000000000E+00 -0.45593999997E+02  0.45594000000E+02  0.51100000000E-03 0. -1.
    9900012    2    1    2    0    0 -0.38294156457E+02  0.19272937122E+02 -0.67627335087E+01  0.47787273179E+02  0.20000009732E+02 0.  0.
        -12    1    1    2    0    0  0.38294156457E+02 -0.19272937122E+02  0.67627335087E+01  0.43400726821E+02  0.00000000000E+00 0.  1.
         11    1    3    3    0    0 -0.29487186678E+02  0.13037449213E+02 -0.59758479845E+01  0.32789937779E+02  0.51100000000E-03 0. -1.
        -11    1    3    3    0    0 -0.57129138302E+01 -0.15070273937E+01 -0.26154126890E+01  0.64613388544E+01  0.51100000000E-03 0.  1.
        -12    1    3    3    0    0 -0.30940559490E+01  0.77425153029E+01  0.18285271648E+01  0.85359965454E+01  0.00000000000E+00 0.  1.
</event>
<event>
 7    1  0.3884463E-009  0.4778727E+02  0.7816164E-02  0.1312668E+00
        -11   -1    0    0    0    0  0.00000000000E+00  0.00000000000E+00  0.45593999997E+02  0.45594000000E+02  0.51100000000E-03 0.  1.
         11   -1    0    0    0    0 -0.00000000000E+00 -0.00000000000E+00 -0.45593999997E+02  0.45594000000E+02  0.51100000000E-03 0. -1.
    9900012    2    1    2    0    0  0.17807965962E+02 -0.27612106332E+02 -0.28356148426E+02  0.47787271649E+02  0.20000002757E+02 0.  0.
        -12    1    1    2    0    0 -0.17807965962E+02  0.27612106332E+02  0.28356148426E+02  0.43400728351E+02  0.00000000000E+00 0.  1.
         11    1    3    3    0    0  0.87872236678E+01 -0.11737820864E+02 -0.17274905939E+02  0.22658643249E+02  0.51100000000E-03 0. -1.
        -11    1    3    3    0    0  0.10263223374E+02 -0.15294460511E+02 -0.13160900187E+02  0.22637658234E+02  0.51100000000E-03 0.  1.
        -12    1    3    3    0    0 -0.12424810798E+01 -0.57982495780E+00  0.20796577002E+01  0.24909701655E+01  0.00000000000E+00 0.  1.
</event>
<event>
 7    1  0.3884463E-009  0.4778727E+02  0.7816164E-02  0.1312668E+00
        -11   -1    0    0    0    0  0.00000000000E+00  0.00000000000E+00  0.45593999997E+02  0.45594000000E+02  0.51100000000E-03 0. -1.
         11   -1    0    0    0    0 -0.00000000000E+00 -0.00000000000E+00 -0.45593999997E+02  0.45594000000E+02  0.51100000000E-03 0.  1.
    9900012    2    1    2    0    0 -0.30549880118E+02 -0.13377903637E+01  0.30798350719E+02  0.47787271143E+02  0.20000000450E+02 0.  0.
        -12    1    1    2    0    0  0.30549880118E+02  0.13377903637E+01 -0.30798350719E+02  0.43400728857E+02  0.00000000000E+00 0.  1.
         11    1    3    3    0    0 -0.18508967028E+02  0.30643268220E-01  0.18006219005E+02  0.25822601003E+02  0.51100000000E-03 0. -1.
        -11    1    3    3    0    0 -0.12959982296E+02  0.29661283518E+01  0.10693157699E+02  0.17061731458E+02  0.51100000000E-03 0.  1.
        -12    1    3    3    0    0  0.91906920643E+00 -0.43345619838E+01  0.20989740154E+01  0.49029386815E+01  0.00000000000E+00 0.  1.
</event>
<event>
 7    1  0.3884463E-009  0.4778728E+02  0.7816164E-02  0.1312668E+00
        -11   -1    0    0    0    0  0.00000000000E+00  0.00000000000E+00  0.45593999997E+02  0.45594000000E+02  0.51100000000E-03 0.  1.
         11   -1    0    0    0    0 -0.00000000000E+00 -0.00000000000E+00 -0.45593999997E+02  0.45594000000E+02  0.51100000000E-03 0. -1.
    9900012    2    1    2    0    0  0.43975594558E-01 -0.24266555222E+02 -0.35982706488E+02  0.47787276476E+02  0.20000024764E+02 0.  0.
        -12    1    1    2    0    0 -0.43975594558E-01  0.24266555222E+02  0.35982706488E+02  0.43400723524E+02  0.00000000000E+00 0.  1.
         11    1    3    3    0    0  0.19162478438E+00 -0.10671482138E+02 -0.16635909518E+02  0.19765392403E+02  0.51100000000E-03 0. -1.
        -11    1    3    3    0    0  0.52558716149E+01 -0.11035336626E+02 -0.18215824043E+02  0.21936706378E+02  0.51100000000E-03 0.  1.
         12    1    3    3    0    0 -0.54035208047E+01 -0.25597364582E+01 -0.11309729272E+01  0.60851776954E+01  0.00000000000E+00 0. -1.
</event>
<event>
 7    1  0.3884463E-009  0.4778727E+02  0.7816164E-02  0.1312668E+00
        -11   -1    0    0    0    0  0.00000000000E+00  0.00000000000E+00  0.45593999997E+02  0.45594000000E+02  0.51100000000E-03 0. -1.
         11   -1    0    0    0    0 -0.00000000000E+00 -0.00000000000E+00 -0.45593999997E+02  0.45594000000E+02  0.51100000000E-03 0.  1.
    9900012    2    1    2    0    0  0.41227329023E+02  0.23228244492E+01 -0.13361701906E+02  0.47787271324E+02  0.20000001275E+02 0.  0.
        -12    1    1    2    0    0 -0.41227329023E+02 -0.23228244492E+01  0.13361701906E+02  0.43400728676E+02  0.00000000000E+00 0.  1.
         11    1    3    3    0    0  0.16181814109E+02  0.29508277409E+01 -0.41775762926E+01  0.16970876117E+02  0.51100000000E-03 0. -1.
        -11    1    3    3    0    0  0.73430406292E+01  0.52299978032E+01  0.17743692556E+01  0.91881178279E+01  0.51100000000E-03 0.  1.
         12    1    3    3    0    0  0.17702474284E+02 -0.58580010948E+01 -0.10958494869E+02  0.21628277380E+02  0.00000000000E+00 0. -1.
</event>
<event>
 7    1  0.3884463E-009  0.4778727E+02  0.7816164E-02  0.1312668E+00
        -11   -1    0    0    0    0  0.00000000000E+00  0.00000000000E+00  0.45593999997E+02  0.45594000000E+02  0.51100000000E-03 0.  1.
         11   -1    0    0    0    0 -0.00000000000E+00 -0.00000000000E+00 -0.45593999997E+02  0.45594000000E+02  0.51100000000E-03 0. -1.
    9900012    2    1    2    0    0  0.27731971690E+02  0.20895437039E+02 -0.26037311769E+02  0.47787272506E+02  0.20000006663E+02 0.  0.
        -12    1    1    2    0    0 -0.27731971690E+02 -0.20895437039E+02  0.26037311769E+02  0.43400727494E+02  0.00000000000E+00 0.  1.
         11    1    3    3    0    0  0.12933432225E+02  0.43261526993E+01 -0.14436543602E+01  0.13713985725E+02  0.51100000000E-03 0. -1.
        -11    1    3    3    0    0  0.62817933370E+01  0.18999880114E+01 -0.79534455165E+01  0.10311555548E+02  0.51100000000E-03 0.  1.
        -12    1    3    3    0    0  0.85167461285E+01  0.14669296328E+02 -0.16640211892E+02  0.23761731233E+02  0.00000000000E+00 0.  1.
</event>
<event>
 7    1  0.3884463E-009  0.4778727E+02  0.7816164E-02  0.1312668E+00
        -11   -1    0    0    0    0  0.00000000000E+00  0.00000000000E+00  0.45593999997E+02  0.45594000000E+02  0.51100000000E-03 0.  1.
         11   -1    0    0    0    0 -0.00000000000E+00 -0.00000000000E+00 -0.45593999997E+02  0.45594000000E+02  0.51100000000E-03 0. -1.
    9900012    2    1    2    0    0 -0.30643433376E+02  0.26132371869E+02 -0.16177211561E+02  0.47787273711E+02  0.20000012156E+02 0.  0.
        -12    1    1    2    0    0  0.30643433376E+02 -0.26132371869E+02  0.16177211561E+02  0.43400726289E+02  0.00000000000E+00 0.  1.
         11    1    3    3    0    0  0.94740839020E+00 -0.16051793086E+01 -0.76962685662E+00  0.20165587098E+01  0.51100000000E-03 0. -1.
        -11    1    3    3    0    0 -0.11357663081E+02  0.58714410493E+01 -0.14354801453E+01  0.12865882565E+02  0.51100000000E-03 0.  1.
         12    1    3    3    0    0 -0.20233178685E+02  0.21866110128E+02 -0.13972104559E+02  0.32904832436E+02  0.00000000000E+00 0. -1.
</event>
<event>
 7    1  0.3884463E-009  0.4778727E+02  0.7816164E-02  0.1312668E+00
        -11   -1    0    0    0    0  0.00000000000E+00  0.00000000000E+00  0.45593999997E+02  0.45594000000E+02  0.51100000000E-03 0. -1.
         11   -1    0    0    0    0 -0.00000000000E+00 -0.00000000000E+00 -0.45593999997E+02  0.45594000000E+02  0.51100000000E-03 0.  1.
    9900012    2    1    2    0    0  0.40751595496E+02 -0.14805239947E+02 -0.19327586080E+01  0.47787271651E+02  0.20000002768E+02 0.  0.
        -12    1    1    2    0    0 -0.40751595496E+02  0.14805239947E+02  0.19327586080E+01  0.43400728349E+02  0.00000000000E+00 0.  1.
         11    1    3    3    0    0  0.15855736076E+02 -0.58966711107E+01 -0.62427532832E+01  0.18031834779E+02  0.51100000000E-03 0. -1.
        -11    1    3    3    0    0  0.16601883308E+02 -0.11083276101E+02 -0.41416116327E+00  0.19965797460E+02  0.51100000000E-03 0.  1.
         12    1    3    3    0    0  0.82939761123E+01  0.21747072639E+01  0.47241558384E+01  0.97896394122E+01  0.00000000000E+00 0. -1.
</event>
<event>
 7    1  0.3884463E-009  0.4778727E+02  0.7816164E-02  0.1312668E+00
        -11   -1    0    0    0    0  0.00000000000E+00  0.00000000000E+00  0.45593999997E+02  0.45594000000E+02  0.51100000000E-03 0.  1.
         11   -1    0    0    0    0 -0.00000000000E+00 -0.00000000000E+00 -0.45593999997E+02  0.45594000000E+02  0.51100000000E-03 0. -1.
    9900012    2    1    2    0    0 -0.33537317161E+02  0.27082910713E+02 -0.50385890112E+01  0.47787273344E+02  0.20000010483E+02 0.  0.
        -12    1    1    2    0    0  0.33537317161E+02 -0.27082910713E+02  0.50385890112E+01  0.43400726656E+02  0.00000000000E+00 0.  1.
         11    1    3    3    0    0 -0.37418123925E+01 -0.15150922413E+01  0.16090985229E+01  0.43457867870E+01  0.51100000000E-03 0. -1.
        -11    1    3    3    0    0 -0.20555442881E+01  0.81854026513E+01 -0.48472218758E+00  0.84534628848E+01  0.51100000000E-03 0.  1.
         12    1    3    3    0    0 -0.27739960481E+02  0.20412600303E+02 -0.61629653465E+01  0.34988023672E+02  0.00000000000E+00 0. -1.
</event>
<event>
 7    1  0.3884463E-009  0.4778727E+02  0.7816164E-02  0.1312668E+00
        -11   -1    0    0    0    0  0.00000000000E+00  0.00000000000E+00  0.45593999997E+02  0.45594000000E+02  0.51100000000E-03 0.  1.
         11   -1    0    0    0    0 -0.00000000000E+00 -0.00000000000E+00 -0.45593999997E+02  0.45594000000E+02  0.51100000000E-03 0. -1.
    9900012    2    1    2    0    0 -0.51221618956E+01  0.30399642704E+02 -0.30549113200E+02  0.47787272629E+02  0.20000007225E+02 0.  0.
        -12    1    1    2    0    0  0.51221618956E+01 -0.30399642704E+02  0.30549113200E+02  0.43400727371E+02  0.00000000000E+00 0.  1.
         11    1    3    3    0    0 -0.85805226591E+01  0.22753442472E+02 -0.22142370866E+02  0.32888130097E+02  0.51100000000E-03 0. -1.
        -11    1    3    3    0    0 -0.27704157322E+01  0.78538912664E+00 -0.10416176069E+01  0.30621898879E+01  0.51100000000E-03 0.  1.
        -12    1    3    3    0    0  0.62287764958E+01  0.68608111053E+01 -0.73651247270E+01  0.11836952644E+02  0.00000000000E+00 0.  1.
</event>
<event>
 7    1  0.3884463E-009  0.4778724E+02  0.7816164E-02  0.1312668E+00
        -11   -1    0    0    0    0  0.00000000000E+00  0.00000000000E+00  0.45593999997E+02  0.45594000000E+02  0.51100000000E-03 0.  1.
         11   -1    0    0    0    0 -0.00000000000E+00 -0.00000000000E+00 -0.45593999997E+02  0.45594000000E+02  0.51100000000E-03 0. -1.
    9900012    2    1    2    0    0 -0.31829828320E+02  0.42752196237E+01 -0.29192645182E+02  0.47787239564E+02  0.19999856467E+02 0.  0.
        -12    1    1    2    0    0  0.31829828320E+02 -0.42752196237E+01  0.29192645182E+02  0.43400760436E+02  0.00000000000E+00 0.  1.
         11    1    3    3    0    0  0.12188180033E+01  0.12464311398E+01 -0.65021712967E+01  0.67318154865E+01  0.51100000000E-03 0. -1.
        -11    1    3    3    0    0 -0.66558284496E+01 -0.32613531356E+00 -0.10198569204E+01  0.67414037850E+01  0.51100000000E-03 0.  1.
        -12    1    3    3    0    0 -0.26392817873E+02  0.33549237974E+01 -0.21670616965E+02  0.34314020293E+02  0.00000000000E+00 0.  1.
</event>
<event>
 7    1  0.3884463E-009  0.4778725E+02  0.7816164E-02  0.1312668E+00
        -11   -1    0    0    0    0  0.00000000000E+00  0.00000000000E+00  0.45593999997E+02  0.45594000000E+02  0.51100000000E-03 0.  1.
         11   -1    0    0    0    0 -0.00000000000E+00 -0.00000000000E+00 -0.45593999997E+02  0.45594000000E+02  0.51100000000E-03 0. -1.
    9900012    2    1    2    0    0 -0.27349167084E+02  0.32612497766E+02 -0.84896154380E+01  0.47787245156E+02  0.19999881965E+02 0.  0.
        -12    1    1    2    0    0  0.27349167084E+02 -0.32612497766E+02  0.84896154380E+01  0.43400754844E+02  0.00000000000E+00 0.  1.
         11    1    3    3    0    0 -0.54205043212E+01  0.72378987687E+01 -0.98279171655E+01  0.13355036569E+02  0.51100000000E-03 0. -1.
        -11    1    3    3    0    0 -0.86021287012E+01  0.13295534003E+02 -0.25254691763E+01  0.16035767442E+02  0.51100000000E-03 0.  1.
         12    1    3    3    0    0 -0.13326534062E+02  0.12079064994E+02  0.38637709038E+01  0.18396441146E+02  0.00000000000E+00 0. -1.
</event>
<event>
 7    1  0.3884463E-009  0.4778727E+02  0.7816164E-02  0.1312668E+00
        -11   -1    0    0    0    0  0.00000000000E+00  0.00000000000E+00  0.45593999997E+02  0.45594000000E+02  0.51100000000E-03 0.  1.
         11   -1    0    0    0    0 -0.00000000000E+00 -0.00000000000E+00 -0.45593999997E+02  0.45594000000E+02  0.51100000000E-03 0. -1.
    9900012    2    1    2    0    0 -0.29291702603E+02  0.21029134494E+02 -0.24153571519E+02  0.47787270097E+02  0.19999995681E+02 0.  0.
        -12    1    1    2    0    0  0.29291702603E+02 -0.21029134494E+02  0.24153571519E+02  0.43400729903E+02  0.00000000000E+00 0.  1.
         11    1    3    3    0    0 -0.10338090052E+02  0.18117565003E+02 -0.11388614391E+02  0.23766001043E+02  0.51100000000E-03 0. -1.
        -11    1    3    3    0    0 -0.66596937894E+01  0.41867670826E+01 -0.36976849399E+01  0.86921466939E+01  0.51100000000E-03 0.  1.
        -12    1    3    3    0    0 -0.12293918762E+02 -0.12751975912E+01 -0.90672721880E+01  0.15329122361E+02  0.00000000000E+00 0.  1.
</event>
<event>
 7    1  0.3884463E-009  0.4778728E+02  0.7816164E-02  0.1312668E+00
        -11   -1    0    0    0    0  0.00000000000E+00  0.00000000000E+00  0.45593999997E+02  0.45594000000E+02  0.51100000000E-03 0.  1.
         11   -1    0    0    0    0 -0.00000000000E+00 -0.00000000000E+00 -0.45593999997E+02  0.45594000000E+02  0.51100000000E-03 0. -1.
    9900012    2    1    2    0    0  0.73181845176E+01 -0.25665242844E+02 -0.34225168117E+02  0.47787278261E+02  0.20000032902E+02 0.  0.
        -12    1    1    2    0    0 -0.73181845176E+01  0.25665242844E+02  0.34225168117E+02  0.43400721739E+02  0.00000000000E+00 0.  1.
         11    1    3    3    0    0 -0.51775713793E-01 -0.13838650767E+02 -0.72272110534E+01  0.15612287330E+02  0.51100000000E-03 0. -1.
        -11    1    3    3    0    0 -0.25460417723E+01 -0.87295605072E+00 -0.49418268464E+01  0.56272581080E+01  0.51100000000E-03 0.  1.
         12    1    3    3    0    0  0.99160020037E+01 -0.10953636026E+02 -0.22056130217E+02  0.26547732823E+02  0.00000000000E+00 0. -1.
</event>
<event>
 7    1  0.3884463E-009  0.4778727E+02  0.7816164E-02  0.1312668E+00
        -11   -1    0    0    0    0  0.00000000000E+00  0.00000000000E+00  0.45593999997E+02  0.45594000000E+02  0.51100000000E-03 0.  1.
         11   -1    0    0    0    0 -0.00000000000E+00 -0.00000000000E+00 -0.45593999997E+02  0.45594000000E+02  0.51100000000E-03 0. -1.
    9900012    2    1    2    0    0 -0.26389438113E+02  0.13517838108E+02 -0.31693672742E+02  0.47787270941E+02  0.19999999527E+02 0.  0.
        -12    1    1    2    0    0  0.26389438113E+02 -0.13517838108E+02  0.31693672742E+02  0.43400729059E+02  0.00000000000E+00 0.  1.
         11    1    3    3    0    0 -0.64995030503E+01 -0.20461675322E+01 -0.21938373209E+01  0.71584400481E+01  0.51100000000E-03 0. -1.
        -11    1    3    3    0    0  0.63696325433E+00 -0.10073627699E+01 -0.21067727719E+00  0.12103252100E+01  0.51100000000E-03 0.  1.
         12    1    3    3    0    0 -0.20526898317E+02  0.16571368410E+02 -0.29289158143E+02  0.39418505683E+02  0.00000000000E+00 0. -1.
</event>
<event>
 7    1  0.3884463E-009  0.4778728E+02  0.7816164E-02  0.1312668E+00
        -11   -1    0    0    0    0  0.00000000000E+00  0.00000000000E+00  0.45593999997E+02  0.45594000000E+02  0.51100000000E-03 0.  1.
         11   -1    0    0    0    0 -0.00000000000E+00 -0.00000000000E+00 -0.45593999997E+02  0.45594000000E+02  0.51100000000E-03 0. -1.
    9900012    2    1    2    0    0 -0.22220239292E+00  0.86494824641E+01 -0.42529517813E+02  0.47787276432E+02  0.20000024565E+02 0.  0.
        -12    1    1    2    0    0  0.22220239292E+00 -0.86494824641E+01  0.42529517813E+02  0.43400723568E+02  0.00000000000E+00 0.  1.
         11    1    3    3    0    0 -0.69668174288E+00 -0.23318297487E+01 -0.65482350164E+01  0.69858555324E+01  0.51100000000E-03 0.  1.
        -11    1    3    3    0    0  0.34336020488E+01 -0.27578861391E+01 -0.43582607842E+01  0.61959661321E+01  0.51100000000E-03 0. -1.
         12    1    3    3    0    0 -0.29591226989E+01  0.13739198352E+02 -0.31623022012E+02  0.34605454768E+02  0.00000000000E+00 0. -1.
</event>
<event>
 7    1  0.3884463E-009  0.4778728E+02  0.7816164E-02  0.1312668E+00
        -11   -1    0    0    0    0  0.00000000000E+00  0.00000000000E+00  0.45593999997E+02  0.45594000000E+02  0.51100000000E-03 0.  1.
         11   -1    0    0    0    0 -0.00000000000E+00 -0.00000000000E+00 -0.45593999997E+02  0.45594000000E+02  0.51100000000E-03 0. -1.
    9900012    2    1    2    0    0 -0.12367780141E+01  0.42875652274E+02 -0.66159848953E+01  0.47787280722E+02  0.20000044122E+02 0.  0.
        -12    1    1    2    0    0  0.12367780141E+01 -0.42875652274E+02  0.66159848953E+01  0.43400719278E+02  0.00000000000E+00 0.  1.
         11    1    3    3    0    0  0.34499104075E+01  0.96502661302E+01 -0.60958038746E+01  0.11924275380E+02  0.51100000000E-03 0. -1.
        -11    1    3    3    0    0  0.39567459637E+01  0.12636617235E+02 -0.23892410497E+01  0.13455422952E+02  0.51100000000E-03 0.  1.
         12    1    3    3    0    0 -0.86434343853E+01  0.20588768909E+02  0.18690600290E+01  0.22407582389E+02  0.00000000000E+00 0. -1.
</event>
<event>
 7    1  0.3884463E-009  0.4778727E+02  0.7816164E-02  0.1312668E+00
        -11   -1    0    0    0    0  0.00000000000E+00  0.00000000000E+00  0.45593999997E+02  0.45594000000E+02  0.51100000000E-03 0. -1.
         11   -1    0    0    0    0 -0.00000000000E+00 -0.00000000000E+00 -0.45593999997E+02  0.45594000000E+02  0.51100000000E-03 0.  1.
    9900012    2    1    2    0    0 -0.94102693382E+01 -0.23623014428E+02  0.35171341713E+02  0.47787271233E+02  0.20000000858E+02 0.  0.
        -12    1    1    2    0    0  0.94102693382E+01  0.23623014428E+02 -0.35171341713E+02  0.43400728767E+02  0.00000000000E+00 0.  1.
         11    1    3    3    0    0 -0.58335626168E+01 -0.81534031241E+01  0.14685022805E+02  0.17780841666E+02  0.51100000000E-03 0. -1.
        -11    1    3    3    0    0 -0.93443477792E+01 -0.94384673913E+01  0.14920425153E+02  0.19975499722E+02  0.51100000000E-03 0.  1.
        -12    1    3    3    0    0  0.57676410579E+01 -0.60311439126E+01  0.55658937540E+01  0.10030929845E+02  0.00000000000E+00 0.  1.
</event>
<event>
 7    1  0.3884463E-009  0.4778727E+02  0.7816164E-02  0.1312668E+00
        -11   -1    0    0    0    0  0.00000000000E+00  0.00000000000E+00  0.45593999997E+02  0.45594000000E+02  0.51100000000E-03 0.  1.
         11   -1    0    0    0    0 -0.00000000000E+00 -0.00000000000E+00 -0.45593999997E+02  0.45594000000E+02  0.51100000000E-03 0. -1.
    9900012    2    1    2    0    0  0.89503539434E+01 -0.39570126425E+02 -0.15418156329E+02  0.47787270909E+02  0.19999999383E+02 0.  0.
        -12    1    1    2    0    0 -0.89503539434E+01  0.39570126425E+02  0.15418156329E+02  0.43400729091E+02  0.00000000000E+00 0.  1.
         11    1    3    3    0    0 -0.11627547887E+01 -0.10098522437E+01  0.10337199971E+01  0.18548254759E+01  0.51100000000E-03 0. -1.
        -11    1    3    3    0    0  0.12176817799E+02 -0.26707774262E+02 -0.59214788254E+01  0.29944014585E+02  0.51100000000E-03 0.  1.
         12    1    3    3    0    0 -0.20637090668E+01 -0.11852499919E+02 -0.10530397501E+02  0.15988430848E+02  0.00000000000E+00 0. -1.
</event>
<event>
 7    1  0.3884463E-009  0.4778728E+02  0.7816164E-02  0.1312668E+00
        -11   -1    0    0    0    0  0.00000000000E+00  0.00000000000E+00  0.45593999997E+02  0.45594000000E+02  0.51100000000E-03 0. -1.
         11   -1    0    0    0    0 -0.00000000000E+00 -0.00000000000E+00 -0.45593999997E+02  0.45594000000E+02  0.51100000000E-03 0.  1.
    9900012    2    1    2    0    0 -0.36057376806E+02 -0.15334631236E+02  0.18663801389E+02  0.47787276278E+02  0.20000023864E+02 0.  0.
        -12    1    1    2    0    0  0.36057376806E+02  0.15334631236E+02 -0.18663801389E+02  0.43400723722E+02  0.00000000000E+00 0.  1.
         11    1    3    3    0    0 -0.99906806529E+01 -0.16381475979E+01  0.79560265625E+01  0.12876163496E+02  0.51100000000E-03 0. -1.
        -11    1    3    3    0    0 -0.13993330404E+02 -0.55315723003E+01 -0.24864259835E+01  0.15251029550E+02  0.51100000000E-03 0.  1.
        -12    1    3    3    0    0 -0.12073365749E+02 -0.81649113373E+01  0.13194200810E+02  0.19660083232E+02  0.00000000000E+00 0.  1.
</event>
<event>
 7    1  0.3884463E-009  0.4778727E+02  0.7816164E-02  0.1312668E+00
        -11   -1    0    0    0    0  0.00000000000E+00  0.00000000000E+00  0.45593999997E+02  0.45594000000E+02  0.51100000000E-03 0.  1.
         11   -1    0    0    0    0 -0.00000000000E+00 -0.00000000000E+00 -0.45593999997E+02  0.45594000000E+02  0.51100000000E-03 0. -1.
    9900012    2    1    2    0    0  0.86132172630E+01  0.17248192841E+02 -0.38883614869E+02  0.47787272205E+02  0.20000005289E+02 0.  0.
        -12    1    1    2    0    0 -0.86132172630E+01 -0.17248192841E+02  0.38883614869E+02  0.43400727795E+02  0.00000000000E+00 0.  1.
         11    1    3    3    0    0  0.35144332879E+01  0.36110437862E+01 -0.21942230677E+01  0.54959524827E+01  0.51100000000E-03 0. -1.
        -11    1    3    3    0    0 -0.36692188339E+01  0.27307723453E+01 -0.22088604897E+01  0.50793059936E+01  0.51100000000E-03 0.  1.
         12    1    3    3    0    0  0.87680028091E+01  0.10906376710E+02 -0.34480531311E+02  0.37212013728E+02  0.00000000000E+00 0. -1.
</event>
<event>
 7    1  0.3884463E-009  0.4778727E+02  0.7816164E-02  0.1312668E+00
        -11   -1    0    0    0    0  0.00000000000E+00  0.00000000000E+00  0.45593999997E+02  0.45594000000E+02  0.51100000000E-03 0. -1.
         11   -1    0    0    0    0 -0.00000000000E+00 -0.00000000000E+00 -0.45593999997E+02  0.45594000000E+02  0.51100000000E-03 0.  1.
    9900012    2    1    2    0    0 -0.41089508151E+02 -0.10884955090E+02 -0.87631874759E+01  0.47787269798E+02  0.19999994315E+02 0.  0.
        -12    1    1    2    0    0  0.41089508151E+02  0.10884955090E+02  0.87631874759E+01  0.43400730202E+02  0.00000000000E+00 0.  1.
         11    1    3    3    0    0 -0.71915467635E+01  0.41403090735E+01  0.15803550984E+01  0.84473680265E+01  0.51100000000E-03 0.  1.
        -11    1    3    3    0    0 -0.95279223235E+01 -0.11774730577E+01 -0.43426151233E+00  0.96102200769E+01  0.51100000000E-03 0. -1.
        -12    1    3    3    0    0 -0.24370039064E+02 -0.13847791106E+02 -0.99092810621E+01  0.29729681694E+02  0.00000000000E+00 0.  1.
</event>
<event>
 7    1  0.3884463E-009  0.4778727E+02  0.7816164E-02  0.1312668E+00
        -11   -1    0    0    0    0  0.00000000000E+00  0.00000000000E+00  0.45593999997E+02  0.45594000000E+02  0.51100000000E-03 0. -1.
         11   -1    0    0    0    0 -0.00000000000E+00 -0.00000000000E+00 -0.45593999997E+02  0.45594000000E+02  0.51100000000E-03 0.  1.
    9900012    2    1    2    0    0  0.19384156259E+02  0.37899473791E+02 -0.84562240626E+01  0.47787270134E+02  0.19999995849E+02 0.  0.
        -12    1    1    2    0    0 -0.19384156259E+02 -0.37899473791E+02  0.84562240626E+01  0.43400729866E+02  0.00000000000E+00 0.  1.
         11    1    3    3    0    0  0.68494860274E+01  0.46331294402E+01 -0.34043896782E+01  0.89426627238E+01  0.51100000000E-03 0. -1.
        -11    1    3    3    0    0  0.16787246099E+00  0.10107207392E+01  0.31726419878E+01  0.33339758577E+01  0.51100000000E-03 0.  1.
         12    1    3    3    0    0  0.12366797770E+02  0.32255623612E+02 -0.82244763722E+01  0.35510631553E+02  0.00000000000E+00 0. -1.
</event>
<event>
 7    1  0.3884463E-009  0.4778727E+02  0.7816164E-02  0.1312668E+00
        -11   -1    0    0    0    0  0.00000000000E+00  0.00000000000E+00  0.45593999997E+02  0.45594000000E+02  0.51100000000E-03 0.  1.
         11   -1    0    0    0    0 -0.00000000000E+00 -0.00000000000E+00 -0.45593999997E+02  0.45594000000E+02  0.51100000000E-03 0. -1.
    9900012    2    1    2    0    0 -0.55427312949E+01  0.75544274357E+01 -0.42377255110E+02  0.47787274260E+02  0.20000014661E+02 0.  0.
        -12    1    1    2    0    0  0.55427312949E+01 -0.75544274357E+01  0.42377255110E+02  0.43400725740E+02  0.00000000000E+00 0.  1.
         11    1    3    3    0    0 -0.90917102758E+00  0.38435143343E+01 -0.13213044548E+02  0.13790712124E+02  0.51100000000E-03 0. -1.
        -11    1    3    3    0    0  0.43691140514E+01  0.63588617637E+01 -0.97493579257E+01  0.12432789741E+02  0.51100000000E-03 0.  1.
         12    1    3    3    0    0 -0.90026743187E+01 -0.26479486623E+01 -0.19414852637E+02  0.21563772395E+02  0.00000000000E+00 0. -1.
</event>
<event>
 7    1  0.3884463E-009  0.4778727E+02  0.7816164E-02  0.1312668E+00
        -11   -1    0    0    0    0  0.00000000000E+00  0.00000000000E+00  0.45593999997E+02  0.45594000000E+02  0.51100000000E-03 0.  1.
         11   -1    0    0    0    0 -0.00000000000E+00 -0.00000000000E+00 -0.45593999997E+02  0.45594000000E+02  0.51100000000E-03 0. -1.
    9900012    2    1    2    0    0  0.23316952183E+02  0.22155210114E+02 -0.29139142727E+02  0.47787271513E+02  0.20000002137E+02 0.  0.
        -12    1    1    2    0    0 -0.23316952183E+02 -0.22155210114E+02  0.29139142727E+02  0.43400728487E+02  0.00000000000E+00 0.  1.
         11    1    3    3    0    0  0.22779638160E+01  0.40602236029E+01 -0.71758446859E+00  0.47105692420E+01  0.51100000000E-03 0. -1.
        -11    1    3    3    0    0  0.95952381937E+01  0.12488501959E+02 -0.51945391379E+01  0.16583561569E+02  0.51100000000E-03 0.  1.
         12    1    3    3    0    0  0.11443750173E+02  0.56064845522E+01 -0.23227019121E+02  0.26493140703E+02  0.00000000000E+00 0. -1.
</event>
<event>
 7    1  0.3884463E-009  0.4778727E+02  0.7816164E-02  0.1312668E+00
        -11   -1    0    0    0    0  0.00000000000E+00  0.00000000000E+00  0.45593999997E+02  0.45594000000E+02  0.51100000000E-03 0.  1.
         11   -1    0    0    0    0 -0.00000000000E+00 -0.00000000000E+00 -0.45593999997E+02  0.45594000000E+02  0.51100000000E-03 0. -1.
    9900012    2    1    2    0    0  0.25135521795E+02 -0.15319309962E+01 -0.35348013715E+02  0.47787270259E+02  0.19999996419E+02 0.  0.
        -12    1    1    2    0    0 -0.25135521795E+02  0.15319309962E+01  0.35348013715E+02  0.43400729741E+02  0.00000000000E+00 0.  1.
         11    1    3    3    0    0  0.44783316670E+01  0.56185203221E+01 -0.92448432530E+01  0.11708558928E+02  0.51100000000E-03 0. -1.
        -11    1    3    3    0    0 -0.74223597473E+00 -0.26182375429E+01 -0.13253566602E+01  0.30269873821E+01  0.51100000000E-03 0.  1.
         12    1    3    3    0    0  0.21399426103E+02 -0.45322137754E+01 -0.24777813801E+02  0.33051723949E+02  0.00000000000E+00 0. -1.
</event>
<event>
 7    1  0.3884463E-009  0.4778727E+02  0.7816164E-02  0.1312668E+00
        -11   -1    0    0    0    0  0.00000000000E+00  0.00000000000E+00  0.45593999997E+02  0.45594000000E+02  0.51100000000E-03 0.  1.
         11   -1    0    0    0    0 -0.00000000000E+00 -0.00000000000E+00 -0.45593999997E+02  0.45594000000E+02  0.51100000000E-03 0. -1.
    9900012    2    1    2    0    0  0.22268481166E+02  0.16977399119E+00 -0.37251967831E+02  0.47787272081E+02  0.20000004725E+02 0.  0.
        -12    1    1    2    0    0 -0.22268481166E+02 -0.16977399119E+00  0.37251967831E+02  0.43400727919E+02  0.00000000000E+00 0.  1.
         11    1    3    3    0    0  0.65035254593E+01  0.54342643153E+01 -0.13330200025E+02  0.15796243383E+02  0.51100000000E-03 0. -1.
        -11    1    3    3    0    0  0.74235567842E+01  0.13773110176E+01 -0.23160724741E+01  0.78974915596E+01  0.51100000000E-03 0.  1.
         12    1    3    3    0    0  0.83413989222E+01 -0.66418013417E+01 -0.21605695332E+02  0.24093537138E+02  0.00000000000E+00 0. -1.
</event>
<event>
 7    1  0.3884463E-009  0.4778727E+02  0.7816164E-02  0.1312668E+00
        -11   -1    0    0    0    0  0.00000000000E+00  0.00000000000E+00  0.45593999997E+02  0.45594000000E+02  0.51100000000E-03 0. -1.
         11   -1    0    0    0    0 -0.00000000000E+00 -0.00000000000E+00 -0.45593999997E+02  0.45594000000E+02  0.51100000000E-03 0.  1.
    9900012    2    1    2    0    0  0.25851833188E+01  0.43007987869E+02  0.52204516041E+01  0.47787270648E+02  0.19999998193E+02 0.  0.
        -12    1    1    2    0    0 -0.25851833188E+01 -0.43007987869E+02 -0.52204516041E+01  0.43400729352E+02  0.00000000000E+00 0.  1.
         11    1    3    3    0    0  0.58667340932E+01  0.11156747979E+02  0.29546750520E+01  0.12946879906E+02  0.51100000000E-03 0. -1.
        -11    1    3    3    0    0  0.21031643385E+01  0.60767880717E+01  0.53028174079E+01  0.83348980933E+01  0.51100000000E-03 0.  1.
         12    1    3    3    0    0 -0.53847151129E+01  0.25774451819E+02 -0.30370408558E+01  0.26505492649E+02  0.00000000000E+00 0. -1.
</event>
<event>
 7    1  0.3884463E-009  0.4778727E+02  0.7816164E-02  0.1312668E+00
        -11   -1    0    0    0    0  0.00000000000E+00  0.00000000000E+00  0.45593999997E+02  0.45594000000E+02  0.51100000000E-03 0.  1.
         11   -1    0    0    0    0 -0.00000000000E+00 -0.00000000000E+00 -0.45593999997E+02  0.45594000000E+02  0.51100000000E-03 0. -1.
    9900012    2    1    2    0    0  0.13793947082E+02 -0.10045619257E+02 -0.39905338305E+02  0.47787268812E+02  0.19999989823E+02 0.  0.
        -12    1    1    2    0    0 -0.13793947082E+02  0.10045619257E+02  0.39905338305E+02  0.43400731188E+02  0.00000000000E+00 0.  1.
         11    1    3    3    0    0  0.74649232586E+01 -0.99422750406E+01 -0.23927959255E+02  0.26965183972E+02  0.51100000000E-03 0. -1.
        -11    1    3    3    0    0  0.25059291533E+01 -0.39155177455E+01 -0.14496599632E+02  0.15223743340E+02  0.51100000000E-03 0.  1.
         12    1    3    3    0    0  0.38230946703E+01  0.38121735290E+01 -0.14807794179E+01  0.55983415006E+01  0.00000000000E+00 0. -1.
</event>
<event>
 7    1  0.3884463E-009  0.4778727E+02  0.7816164E-02  0.1312668E+00
        -11   -1    0    0    0    0  0.00000000000E+00  0.00000000000E+00  0.45593999997E+02  0.45594000000E+02  0.51100000000E-03 0.  1.
         11   -1    0    0    0    0 -0.00000000000E+00 -0.00000000000E+00 -0.45593999997E+02  0.45594000000E+02  0.51100000000E-03 0. -1.
    9900012    2    1    2    0    0 -0.13159167023E+02 -0.40650783093E+02  0.76140374974E+01  0.47787269479E+02  0.19999992861E+02 0.  0.
        -12    1    1    2    0    0  0.13159167023E+02  0.40650783093E+02 -0.76140374974E+01  0.43400730521E+02  0.00000000000E+00 0.  1.
         11    1    3    3    0    0 -0.62397203202E+01 -0.78148698051E+01 -0.45498574736E+00  0.10010659920E+02  0.51100000000E-03 0. -1.
        -11    1    3    3    0    0 -0.62463669155E+01 -0.13082455872E+02 -0.34472267607E+01  0.14901379932E+02  0.51100000000E-03 0.  1.
         12    1    3    3    0    0 -0.67307978708E+00 -0.19753457415E+02  0.11516250005E+02  0.22875229626E+02  0.00000000000E+00 0. -1.
</event>
<event>
 7    1  0.3884463E-009  0.4778727E+02  0.7816164E-02  0.1312668E+00
        -11   -1    0    0    0    0  0.00000000000E+00  0.00000000000E+00  0.45593999997E+02  0.45594000000E+02  0.51100000000E-03 0.  1.
         11   -1    0    0    0    0 -0.00000000000E+00 -0.00000000000E+00 -0.45593999997E+02  0.45594000000E+02  0.51100000000E-03 0. -1.
    9900012    2    1    2    0    0  0.26269924634E+02  0.11166368381E+02 -0.32692915808E+02  0.47787268818E+02  0.19999989850E+02 0.  0.
        -12    1    1    2    0    0 -0.26269924634E+02 -0.11166368381E+02  0.32692915808E+02  0.43400731182E+02  0.00000000000E+00 0.  1.
         11    1    3    3    0    0 -0.13293199343E+01  0.19602846414E+01 -0.21649033308E+00  0.23783766919E+01  0.51100000000E-03 0. -1.
        -11    1    3    3    0    0  0.57220658178E+01 -0.31415366584E+01 -0.81226673968E+01  0.10420605342E+02  0.51100000000E-03 0.  1.
         12    1    3    3    0    0  0.21877178750E+02  0.12347620398E+02 -0.24353758078E+02  0.34988286784E+02  0.00000000000E+00 0. -1.
</event>
<event>
 7    1  0.3884463E-009  0.4778724E+02  0.7816164E-02  0.1312668E+00
        -11   -1    0    0    0    0  0.00000000000E+00  0.00000000000E+00  0.45593999997E+02  0.45594000000E+02  0.51100000000E-03 0. -1.
         11   -1    0    0    0    0 -0.00000000000E+00 -0.00000000000E+00 -0.45593999997E+02  0.45594000000E+02  0.51100000000E-03 0.  1.
    9900012    2    1    2    0    0 -0.59479705509E+00  0.14462227137E+02  0.40915962820E+02  0.47787241818E+02  0.19999866743E+02 0.  0.
        -12    1    1    2    0    0  0.59479705509E+00 -0.14462227137E+02 -0.40915962820E+02  0.43400758182E+02  0.00000000000E+00 0.  1.
         11    1    3    3    0    0 -0.33186291332E+01  0.15213405906E+01  0.10491634557E+02  0.11108653044E+02  0.51100000000E-03 0. -1.
        -11    1    3    3    0    0 -0.48575540142E+01  0.19385817786E+00  0.36801040087E+01  0.60972598574E+01  0.51100000000E-03 0.  1.
         12    1    3    3    0    0  0.75813860922E+01  0.12747028368E+02  0.26744224255E+02  0.30581328916E+02  0.00000000000E+00 0. -1.
</event>
<event>
 7    1  0.4650945E-009  0.4778727E+02  0.7816164E-02  0.1312668E+00
        -11   -1    0    0    0    0  0.00000000000E+00  0.00000000000E+00  0.45593999997E+02  0.45594000000E+02  0.51100000000E-03 0. -1.
         11   -1    0    0    0    0 -0.00000000000E+00 -0.00000000000E+00 -0.45593999997E+02  0.45594000000E+02  0.51100000000E-03 0.  1.
    9900012    2    1    2    0    0  0.20617403188E+02 -0.69105778497E+01  0.37560482764E+02  0.47787271136E+02  0.20000000417E+02 0.  0.
        -12    1    1    2    0    0 -0.20617403188E+02  0.69105778497E+01 -0.37560482764E+02  0.43400728864E+02  0.00000000000E+00 0.  1.
         11    1    3    3    0    0  0.10101936063E+02 -0.18572396645E+01  0.18353440982E+02  0.21032052860E+02  0.51100000000E-03 0. -1.
        -11    1    3    3    0    0  0.10721150522E+02 -0.68129200333E+00  0.49256485591E+01  0.11818174194E+02  0.51100000000E-03 0.  1.
        -12    1    3    3    0    0 -0.20568339648E+00 -0.43720461819E+01  0.14281393224E+02  0.14937044081E+02  0.00000000000E+00 0.  1.
</event>
<event>
 7    1  0.3884463E-009  0.4778726E+02  0.7816164E-02  0.1312668E+00
        -11   -1    0    0    0    0  0.00000000000E+00  0.00000000000E+00  0.45593999997E+02  0.45594000000E+02  0.51100000000E-03 0.  1.
         11   -1    0    0    0    0 -0.00000000000E+00 -0.00000000000E+00 -0.45593999997E+02  0.45594000000E+02  0.51100000000E-03 0. -1.
    9900012    2    1    2    0    0 -0.23344100669E+02 -0.36512614304E+02 -0.23465312643E+01  0.47787259818E+02  0.19999948813E+02 0.  0.
        -12    1    1    2    0    0  0.23344100669E+02  0.36512614304E+02  0.23465312643E+01  0.43400740182E+02  0.00000000000E+00 0.  1.
         11    1    3    3    0    0 -0.12781128585E+02 -0.17030578807E+02  0.38220942394E+00  0.21296571243E+02  0.51100000000E-03 0. -1.
        -11    1    3    3    0    0 -0.74325014967E+01 -0.66974986052E+01  0.50442820783E+01  0.11204612801E+02  0.51100000000E-03 0.  1.
        -12    1    3    3    0    0 -0.31304705875E+01 -0.12784536892E+02 -0.77730227665E+01  0.15286075774E+02  0.00000000000E+00 0.  1.
</event>
<event>
 7    1  0.3884463E-009  0.4778727E+02  0.7816164E-02  0.1312668E+00
        -11   -1    0    0    0    0  0.00000000000E+00  0.00000000000E+00  0.45593999997E+02  0.45594000000E+02  0.51100000000E-03 0. -1.
         11   -1    0    0    0    0 -0.00000000000E+00 -0.00000000000E+00 -0.45593999997E+02  0.45594000000E+02  0.51100000000E-03 0.  1.
    9900012    2    1    2    0    0 -0.33342946110E+02  0.26021641108E+02 -0.97337389255E+01  0.47787268039E+02  0.19999986297E+02 0.  0.
        -12    1    1    2    0    0  0.33342946110E+02 -0.26021641108E+02  0.97337389255E+01  0.43400731961E+02  0.00000000000E+00 0.  1.
         11    1    3    3    0    0 -0.74537677020E+01  0.12309132199E+02  0.25585886970E+01  0.14615736889E+02  0.51100000000E-03 0. -1.
        -11    1    3    3    0    0 -0.90681123694E+01  0.81028528232E+01 -0.11172865127E+01  0.12212092991E+02  0.51100000000E-03 0.  1.
        -12    1    3    3    0    0 -0.16821066039E+02  0.56096560864E+01 -0.11175041110E+02  0.20959438158E+02  0.00000000000E+00 0.  1.
</event>
<event>
 7    1  0.3884463E-009  0.4778728E+02  0.7816164E-02  0.1312668E+00
        -11   -1    0    0    0    0  0.00000000000E+00  0.00000000000E+00  0.45593999997E+02  0.45594000000E+02  0.51100000000E-03 0.  1.
         11   -1    0    0    0    0 -0.00000000000E+00 -0.00000000000E+00 -0.45593999997E+02  0.45594000000E+02  0.51100000000E-03 0. -1.
    9900012    2    1    2    0    0 -0.32380388115E+02  0.26678477346E+02  0.11108175316E+02  0.47787282877E+02  0.20000053948E+02 0.  0.
        -12    1    1    2    0    0  0.32380388115E+02 -0.26678477346E+02 -0.11108175316E+02  0.43400717123E+02  0.00000000000E+00 0.  1.
         11    1    3    3    0    0 -0.25535122501E+02  0.10047631060E+02  0.60441470123E+01  0.28098560184E+02  0.51100000000E-03 0. -1.
        -11    1    3    3    0    0 -0.23826113667E+01  0.28362056707E+01 -0.12016747090E+01  0.38942164678E+01  0.51100000000E-03 0.  1.
         12    1    3    3    0    0 -0.44626542469E+01  0.13794640616E+02  0.62657030127E+01  0.15794506225E+02  0.00000000000E+00 0. -1.
</event>
<event>
 7    1  0.3884463E-009  0.4778728E+02  0.7816164E-02  0.1312668E+00
        -11   -1    0    0    0    0  0.00000000000E+00  0.00000000000E+00  0.45593999997E+02  0.45594000000E+02  0.51100000000E-03 0.  1.
         11   -1    0    0    0    0 -0.00000000000E+00 -0.00000000000E+00 -0.45593999997E+02  0.45594000000E+02  0.51100000000E-03 0. -1.
    9900012    2    1    2    0    0  0.22839223913E+02  0.23244791839E+02 -0.28664825422E+02  0.47787277505E+02  0.20000029456E+02 0.  0.
        -12    1    1    2    0    0 -0.22839223913E+02 -0.23244791839E+02  0.28664825422E+02  0.43400722495E+02  0.00000000000E+00 0.  1.
         11    1    3    3    0    0  0.14621483245E+02  0.26211144497E+01 -0.81779330662E+01  0.16956904280E+02  0.51100000000E-03 0. -1.
        -11    1    3    3    0    0  0.25581808262E+01  0.22592752841E+01 -0.54468636893E+01  0.64278253135E+01  0.51100000000E-03 0.  1.
        -12    1    3    3    0    0  0.56595598417E+01  0.18364402106E+02 -0.15040028667E+02  0.24402547912E+02  0.00000000000E+00 0.  1.
</event>
<event>
 7    1  0.3884463E-009  0.4778727E+02  0.7816164E-02  0.1312668E+00
        -11   -1    0    0    0    0  0.00000000000E+00  0.00000000000E+00  0.45593999997E+02  0.45594000000E+02  0.51100000000E-03 0.  1.
         11   -1    0    0    0    0 -0.00000000000E+00 -0.00000000000E+00 -0.45593999997E+02  0.45594000000E+02  0.51100000000E-03 0. -1.
    9900012    2    1    2    0    0 -0.29852062766E+02 -0.20957319000E+02 -0.23521663195E+02  0.47787268318E+02  0.19999987571E+02 0.  0.
        -12    1    1    2    0    0  0.29852062766E+02  0.20957319000E+02  0.23521663195E+02  0.43400731682E+02  0.00000000000E+00 0.  1.
         11    1    3    3    0    0 -0.12673476475E+02 -0.92137240665E+01 -0.76415070983E+01  0.17432795190E+02  0.51100000000E-03 0. -1.
        -11    1    3    3    0    0 -0.14182495794E+02 -0.55179730733E+01 -0.26754952425E+01  0.15451520599E+02  0.51100000000E-03 0.  1.
        -12    1    3    3    0    0 -0.29960904969E+01 -0.62256218602E+01 -0.13204660854E+02  0.14902952529E+02  0.00000000000E+00 0.  1.
</event>
<event>
 7    1  0.3884463E-009  0.4778727E+02  0.7816164E-02  0.1312668E+00
        -11   -1    0    0    0    0  0.00000000000E+00  0.00000000000E+00  0.45593999997E+02  0.45594000000E+02  0.51100000000E-03 0.  1.
         11   -1    0    0    0    0 -0.00000000000E+00 -0.00000000000E+00 -0.45593999997E+02  0.45594000000E+02  0.51100000000E-03 0. -1.
    9900012    2    1    2    0    0  0.18027121181E+02  0.29122614143E+02 -0.26655570779E+02  0.47787271825E+02  0.20000003558E+02 0.  0.
        -12    1    1    2    0    0 -0.18027121181E+02 -0.29122614143E+02  0.26655570779E+02  0.43400728175E+02  0.00000000000E+00 0.  1.
         11    1    3    3    0    0  0.82335695570E+01  0.17938372969E+01 -0.10743442788E+02  0.13653976823E+02  0.51100000000E-03 0. -1.
        -11    1    3    3    0    0 -0.74380337316E+00  0.13466197655E+00  0.24233751850E+00  0.79379155945E+00  0.51100000000E-03 0.  1.
        -12    1    3    3    0    0  0.10537354997E+02  0.27194114869E+02 -0.16154465509E+02  0.33339503442E+02  0.00000000000E+00 0.  1.
</event>
<event>
 7    1  0.3884463E-009  0.4778727E+02  0.7816164E-02  0.1312668E+00
        -11   -1    0    0    0    0  0.00000000000E+00  0.00000000000E+00  0.45593999997E+02  0.45594000000E+02  0.51100000000E-03 0.  1.
         11   -1    0    0    0    0 -0.00000000000E+00 -0.00000000000E+00 -0.45593999997E+02  0.45594000000E+02  0.51100000000E-03 0. -1.
    9900012    2    1    2    0    0  0.50305016334E+01 -0.34045230192E+02 -0.26443147280E+02  0.47787266324E+02  0.19999978479E+02 0.  0.
        -12    1    1    2    0    0 -0.50305016334E+01  0.34045230192E+02  0.26443147280E+02  0.43400733676E+02  0.00000000000E+00 0.  1.
         11    1    3    3    0    0 -0.82236361413E+00 -0.29942322558E+02 -0.18659996116E+02  0.35290429544E+02  0.51100000000E-03 0.  1.
        -11    1    3    3    0    0  0.23455727691E+01 -0.52522658980E+01 -0.62672302985E+01  0.85068316402E+01  0.51100000000E-03 0. -1.
        -12    1    3    3    0    0  0.35072924784E+01  0.11493582638E+01 -0.15159208648E+01  0.39900051398E+01  0.00000000000E+00 0.  1.
</event>
<event>
 7    1  0.3884463E-009  0.4778727E+02  0.7816164E-02  0.1312668E+00
        -11   -1    0    0    0    0  0.00000000000E+00  0.00000000000E+00  0.45593999997E+02  0.45594000000E+02  0.51100000000E-03 0.  1.
         11   -1    0    0    0    0 -0.00000000000E+00 -0.00000000000E+00 -0.45593999997E+02  0.45594000000E+02  0.51100000000E-03 0. -1.
    9900012    2    1    2    0    0 -0.28253940066E+02  0.32010109140E+02 -0.77904496709E+01  0.47787270484E+02  0.19999997446E+02 0.  0.
        -12    1    1    2    0    0  0.28253940066E+02 -0.32010109140E+02  0.77904496709E+01  0.43400729516E+02  0.00000000000E+00 0.  1.
         11    1    3    3    0    0 -0.12309867806E+02  0.75372966705E+01  0.20738494229E+01  0.14582336513E+02  0.51100000000E-03 0.  1.
        -11    1    3    3    0    0 -0.14509416075E+02  0.18785279782E+02 -0.26151410230E+01  0.23879883881E+02  0.51100000000E-03 0. -1.
        -12    1    3    3    0    0 -0.14346561849E+01  0.56875326875E+01 -0.72491580709E+01  0.93250500898E+01  0.00000000000E+00 0.  1.
</event>
<event>
 7    1  0.3884463E-009  0.4778728E+02  0.7816164E-02  0.1312668E+00
        -11   -1    0    0    0    0  0.00000000000E+00  0.00000000000E+00  0.45593999997E+02  0.45594000000E+02  0.51100000000E-03 0.  1.
         11   -1    0    0    0    0 -0.00000000000E+00 -0.00000000000E+00 -0.45593999997E+02  0.45594000000E+02  0.51100000000E-03 0. -1.
    9900012    2    1    2    0    0 -0.19762188536E+02  0.37548344954E+02  0.91214190815E+01  0.47787278916E+02  0.20000035891E+02 0.  0.
        -12    1    1    2    0    0  0.19762188536E+02 -0.37548344954E+02 -0.91214190815E+01  0.43400721084E+02  0.00000000000E+00 0.  1.
         11    1    3    3    0    0 -0.17585407839E+02  0.24864297992E+02  0.12100784428E+02  0.32770548783E+02  0.51100000000E-03 0. -1.
        -11    1    3    3    0    0 -0.13501452296E+01 -0.50044495021E+00 -0.73639817227E+00  0.16172877970E+01  0.51100000000E-03 0.  1.
        -12    1    3    3    0    0 -0.82663546786E+00  0.13184491913E+02 -0.22429671747E+01  0.13399442337E+02  0.00000000000E+00 0.  1.
</event>
<event>
 7    1  0.3884463E-009  0.4778727E+02  0.7816164E-02  0.1312668E+00
        -11   -1    0    0    0    0  0.00000000000E+00  0.00000000000E+00  0.45593999997E+02  0.45594000000E+02  0.51100000000E-03 0.  1.
         11   -1    0    0    0    0 -0.00000000000E+00 -0.00000000000E+00 -0.45593999997E+02  0.45594000000E+02  0.51100000000E-03 0. -1.
    9900012    2    1    2    0    0 -0.39370732187E+02  0.17183958627E+02 -0.61871045802E+01  0.47787271318E+02  0.20000001247E+02 0.  0.
        -12    1    1    2    0    0  0.39370732187E+02 -0.17183958627E+02  0.61871045802E+01  0.43400728682E+02  0.00000000000E+00 0.  1.
         11    1    3    3    0    0 -0.27656791465E+02  0.19183354530E+02  0.40355834432E+00  0.33660987282E+02  0.51100000000E-03 0. -1.
        -11    1    3    3    0    0 -0.38028138672E+01  0.11233416287E+01 -0.25096613012E+01  0.46927273340E+01  0.51100000000E-03 0.  1.
         12    1    3    3    0    0 -0.79111268548E+01 -0.31227375317E+01 -0.40810016233E+01  0.94335567022E+01  0.00000000000E+00 0. -1.
</event>
<event>
 7    1  0.3884463E-009  0.4778727E+02  0.7816164E-02  0.1312668E+00
        -11   -1    0    0    0    0  0.00000000000E+00  0.00000000000E+00  0.45593999997E+02  0.45594000000E+02  0.51100000000E-03 0.  1.
         11   -1    0    0    0    0 -0.00000000000E+00 -0.00000000000E+00 -0.45593999997E+02  0.45594000000E+02  0.51100000000E-03 0. -1.
    9900012    2    1    2    0    0 -0.32570159911E+02 -0.24004723692E+01 -0.28584013314E+02  0.47787269575E+02  0.19999993301E+02 0.  0.
        -12    1    1    2    0    0  0.32570159911E+02  0.24004723692E+01  0.28584013314E+02  0.43400730425E+02  0.00000000000E+00 0.  1.
         11    1    3    3    0    0 -0.76314179633E+01 -0.53656898890E+01 -0.12871211051E+02  0.15896453765E+02  0.51100000000E-03 0. -1.
        -11    1    3    3    0    0 -0.37554531828E+01 -0.21827469676E+01  0.95697781899E+00  0.44478781166E+01  0.51100000000E-03 0.  1.
         12    1    3    3    0    0 -0.21183288765E+02  0.51479644874E+01 -0.16669780083E+02  0.27442937694E+02  0.00000000000E+00 0. -1.
</event>
<event>
 7    1  0.3884463E-009  0.4778727E+02  0.7816164E-02  0.1312668E+00
        -11   -1    0    0    0    0  0.00000000000E+00  0.00000000000E+00  0.45593999997E+02  0.45594000000E+02  0.51100000000E-03 0.  1.
         11   -1    0    0    0    0 -0.00000000000E+00 -0.00000000000E+00 -0.45593999997E+02  0.45594000000E+02  0.51100000000E-03 0. -1.
    9900012    2    1    2    0    0 -0.15539802547E+01 -0.78634388344E+01 -0.42654130080E+02  0.47787270308E+02  0.19999996643E+02 0.  0.
        -12    1    1    2    0    0  0.15539802547E+01  0.78634388344E+01  0.42654130080E+02  0.43400729692E+02  0.00000000000E+00 0.  1.
         11    1    3    3    0    0 -0.17472619636E+01  0.42920421693E+01 -0.25598955438E+01  0.52941114277E+01  0.51100000000E-03 0.  1.
        -11    1    3    3    0    0 -0.18147016595E+01 -0.22084644977E+01 -0.17403573995E+02  0.17636747025E+02  0.51100000000E-03 0. -1.
        -12    1    3    3    0    0  0.20079833683E+01 -0.99470165060E+01 -0.22690660541E+02  0.24856411856E+02  0.00000000000E+00 0.  1.
</event>
<event>
 7    1  0.3884463E-009  0.4778728E+02  0.7816164E-02  0.1312668E+00
        -11   -1    0    0    0    0  0.00000000000E+00  0.00000000000E+00  0.45593999997E+02  0.45594000000E+02  0.51100000000E-03 0.  1.
         11   -1    0    0    0    0 -0.00000000000E+00 -0.00000000000E+00 -0.45593999997E+02  0.45594000000E+02  0.51100000000E-03 0. -1.
    9900012    2    1    2    0    0 -0.12523445348E+02  0.40147243589E+02 -0.10723085614E+02  0.47787280924E+02  0.20000045046E+02 0.  0.
        -12    1    1    2    0    0  0.12523445348E+02 -0.40147243589E+02  0.10723085614E+02  0.43400719076E+02  0.00000000000E+00 0.  1.
         11    1    3    3    0    0 -0.69512986005E+01  0.12322427500E+02  0.25817712342E+01  0.14381526856E+02  0.51100000000E-03 0. -1.
        -11    1    3    3    0    0 -0.66346238711E+01  0.16133730127E+02 -0.28302535908E+01  0.17672742214E+02  0.51100000000E-03 0.  1.
        -12    1    3    3    0    0  0.10624771233E+01  0.11691085962E+02 -0.10474603257E+02  0.15733011854E+02  0.00000000000E+00 0.  1.
</event>
<event>
 7    1  0.3884463E-009  0.4778727E+02  0.7816164E-02  0.1312668E+00
        -11   -1    0    0    0    0  0.00000000000E+00  0.00000000000E+00  0.45593999997E+02  0.45594000000E+02  0.51100000000E-03 0.  1.
         11   -1    0    0    0    0 -0.00000000000E+00 -0.00000000000E+00 -0.45593999997E+02  0.45594000000E+02  0.51100000000E-03 0. -1.
    9900012    2    1    2    0    0  0.13278955642E+02  0.11273752957E+02 -0.39751665534E+02  0.47787273262E+02  0.20000010112E+02 0.  0.
        -12    1    1    2    0    0 -0.13278955642E+02 -0.11273752957E+02  0.39751665534E+02  0.43400726738E+02  0.00000000000E+00 0.  1.
         11    1    3    3    0    0  0.20508348832E+01  0.13478794053E+01 -0.12933490221E+00  0.24575252568E+01  0.51100000000E-03 0.  1.
        -11    1    3    3    0    0  0.15319679935E+01 -0.10078620501E+01 -0.23493943958E+02  0.23565400799E+02  0.51100000000E-03 0. -1.
         12    1    3    3    0    0  0.96961527649E+01  0.10933735602E+02 -0.16128386673E+02  0.21764347206E+02  0.00000000000E+00 0. -1.
</event>
<event>
 7    1  0.3884463E-009  0.4778727E+02  0.7816164E-02  0.1312668E+00
        -11   -1    0    0    0    0  0.00000000000E+00  0.00000000000E+00  0.45593999997E+02  0.45594000000E+02  0.51100000000E-03 0.  1.
         11   -1    0    0    0    0 -0.00000000000E+00 -0.00000000000E+00 -0.45593999997E+02  0.45594000000E+02  0.51100000000E-03 0. -1.
    9900012    2    1    2    0    0  0.23709523680E+02  0.16766577131E+02 -0.32254671784E+02  0.47787268742E+02  0.19999989504E+02 0.  0.
        -12    1    1    2    0    0 -0.23709523680E+02 -0.16766577131E+02  0.32254671784E+02  0.43400731258E+02  0.00000000000E+00 0.  1.
         11    1    3    3    0    0  0.73706007118E+01  0.59400279546E+01 -0.66126795775E+01  0.11547173611E+02  0.51100000000E-03 0. -1.
        -11    1    3    3    0    0  0.34401486238E+01 -0.27386241273E+01  0.11620717086E+00  0.43986576398E+01  0.51100000000E-03 0.  1.
        -12    1    3    3    0    0  0.12898774344E+02  0.13565173304E+02 -0.25758199377E+02  0.31841437491E+02  0.00000000000E+00 0.  1.
</event>
<event>
 7    1  0.3884463E-009  0.4778729E+02  0.7816164E-02  0.1312668E+00
        -11   -1    0    0    0    0  0.00000000000E+00  0.00000000000E+00  0.45593999997E+02  0.45594000000E+02  0.51100000000E-03 0. -1.
         11   -1    0    0    0    0 -0.00000000000E+00 -0.00000000000E+00 -0.45593999997E+02  0.45594000000E+02  0.51100000000E-03 0.  1.
    9900012    2    1    2    0    0  0.95778452834E+01 -0.30565979720E+02  0.29284941427E+02  0.47787285364E+02  0.20000065289E+02 0.  0.
        -12    1    1    2    0    0 -0.95778452834E+01  0.30565979720E+02 -0.29284941427E+02  0.43400714636E+02  0.00000000000E+00 0.  1.
         11    1    3    3    0    0  0.10634888698E+02 -0.26315961357E+02  0.26003782879E+02  0.38494511350E+02  0.51100000000E-03 0. -1.
        -11    1    3    3    0    0 -0.30965128002E+01 -0.19304238812E+00  0.35859434613E+01  0.47417979348E+01  0.51100000000E-03 0.  1.
        -12    1    3    3    0    0  0.20394693860E+01 -0.40569759747E+01 -0.30478491331E+00  0.45509760798E+01  0.00000000000E+00 0.  1.
</event>
<event>
 7    1  0.3884463E-009  0.4778727E+02  0.7816164E-02  0.1312668E+00
        -11   -1    0    0    0    0  0.00000000000E+00  0.00000000000E+00  0.45593999997E+02  0.45594000000E+02  0.51100000000E-03 0.  1.
         11   -1    0    0    0    0 -0.00000000000E+00 -0.00000000000E+00 -0.45593999997E+02  0.45594000000E+02  0.51100000000E-03 0. -1.
    9900012    2    1    2    0    0  0.30173298612E+02 -0.28398463693E+01 -0.31066546360E+02  0.47787274438E+02  0.20000015474E+02 0.  0.
        -12    1    1    2    0    0 -0.30173298612E+02  0.28398463693E+01  0.31066546360E+02  0.43400725562E+02  0.00000000000E+00 0.  1.
         11    1    3    3    0    0  0.28665303080E+02 -0.92607336740E+00 -0.27958218289E+02  0.40052705062E+02  0.51100000000E-03 0. -1.
        -11    1    3    3    0    0  0.67416530619E+00 -0.16060740604E+01 -0.51881814138E+01  0.54727688962E+01  0.51100000000E-03 0.  1.
        -12    1    3    3    0    0  0.83383022572E+00 -0.30769894143E+00  0.20798533434E+01  0.22618004806E+01  0.00000000000E+00 0.  1.
</event>
<event>
 7    1  0.3884463E-009  0.4778727E+02  0.7816164E-02  0.1312668E+00
        -11   -1    0    0    0    0  0.00000000000E+00  0.00000000000E+00  0.45593999997E+02  0.45594000000E+02  0.51100000000E-03 0.  1.
         11   -1    0    0    0    0 -0.00000000000E+00 -0.00000000000E+00 -0.45593999997E+02  0.45594000000E+02  0.51100000000E-03 0. -1.
    9900012    2    1    2    0    0 -0.34436531466E+00 -0.42869879757E+02 -0.67585649482E+01  0.47787269845E+02  0.19999994531E+02 0.  0.
        -12    1    1    2    0    0  0.34436531466E+00  0.42869879757E+02  0.67585649482E+01  0.43400730155E+02  0.00000000000E+00 0.  1.
         11    1    3    3    0    0 -0.41613855288E+01 -0.25716433443E+01 -0.40381727428E+01  0.63432892392E+01  0.51100000000E-03 0. -1.
        -11    1    3    3    0    0 -0.37540298037E+00 -0.88770020129E+01  0.26958247112E+01  0.92849105148E+01  0.51100000000E-03 0.  1.
         12    1    3    3    0    0  0.41924231945E+01 -0.31421234400E+02 -0.54162169165E+01  0.32159070091E+02  0.00000000000E+00 0. -1.
</event>
<event>
 7    1  0.3884463E-009  0.4778727E+02  0.7816164E-02  0.1312668E+00
        -11   -1    0    0    0    0  0.00000000000E+00  0.00000000000E+00  0.45593999997E+02  0.45594000000E+02  0.51100000000E-03 0.  1.
         11   -1    0    0    0    0 -0.00000000000E+00 -0.00000000000E+00 -0.45593999997E+02  0.45594000000E+02  0.51100000000E-03 0. -1.
    9900012    2    1    2    0    0  0.41571736644E+02 -0.12459162022E+02  0.42776764252E+00  0.47787274303E+02  0.20000014856E+02 0.  0.
        -12    1    1    2    0    0 -0.41571736644E+02  0.12459162022E+02 -0.42776764252E+00  0.43400725697E+02  0.00000000000E+00 0.  1.
         11    1    3    3    0    0  0.23827086908E+02  0.90667889767E+00 -0.17422753740E-01  0.23844337713E+02  0.51100000000E-03 0. -1.
        -11    1    3    3    0    0  0.77129780721E+01 -0.36559139627E+01  0.41608132059E+01  0.94956887291E+01  0.51100000000E-03 0.  1.
        -12    1    3    3    0    0  0.10031671664E+02 -0.97099269574E+01 -0.37156228097E+01  0.14447247861E+02  0.00000000000E+00 0.  1.
</event>
<event>
 7    1  0.3884463E-009  0.4778727E+02  0.7816164E-02  0.1312668E+00
        -11   -1    0    0    0    0  0.00000000000E+00  0.00000000000E+00  0.45593999997E+02  0.45594000000E+02  0.51100000000E-03 0.  1.
         11   -1    0    0    0    0 -0.00000000000E+00 -0.00000000000E+00 -0.45593999997E+02  0.45594000000E+02  0.51100000000E-03 0. -1.
    9900012    2    1    2    0    0  0.43348556201E+02  0.14120622378E+01 -0.15912388022E+01  0.47787270912E+02  0.19999999396E+02 0.  0.
        -12    1    1    2    0    0 -0.43348556201E+02 -0.14120622378E+01  0.15912388022E+01  0.43400729088E+02  0.00000000000E+00 0.  1.
         11    1    3    3    0    0  0.14623513686E+02  0.23993461145E+01  0.19490055379E+01  0.14946659732E+02  0.51100000000E-03 0. -1.
        -11    1    3    3    0    0  0.89089424517E+01  0.69413545043E+01 -0.80287646646E+00  0.11322379116E+02  0.51100000000E-03 0.  1.
         12    1    3    3    0    0  0.19816100063E+02 -0.79286383811E+01 -0.27373678736E+01  0.21518232064E+02  0.00000000000E+00 0. -1.
</event>
<event>
 7    1  0.3884463E-009  0.4778727E+02  0.7816164E-02  0.1312668E+00
        -11   -1    0    0    0    0  0.00000000000E+00  0.00000000000E+00  0.45593999997E+02  0.45594000000E+02  0.51100000000E-03 0.  1.
         11   -1    0    0    0    0 -0.00000000000E+00 -0.00000000000E+00 -0.45593999997E+02  0.45594000000E+02  0.51100000000E-03 0. -1.
    9900012    2    1    2    0    0  0.10283925091E+02 -0.34564431435E+02 -0.24148788979E+02  0.47787273683E+02  0.20000012029E+02 0.  0.
        -12    1    1    2    0    0 -0.10283925091E+02  0.34564431435E+02  0.24148788979E+02  0.43400726317E+02  0.00000000000E+00 0.  1.
         11    1    3    3    0    0  0.52613704515E+01 -0.99702995110E+01 -0.59505224134E+01  0.12747454986E+02  0.51100000000E-03 0. -1.
        -11    1    3    3    0    0 -0.14990980532E+01 -0.32234196275E+01  0.26860363841E+01  0.44556167683E+01  0.51100000000E-03 0.  1.
        -12    1    3    3    0    0  0.65216526927E+01 -0.21370712297E+02 -0.20884302950E+02  0.30584201928E+02  0.00000000000E+00 0.  1.
</event>
<event>
 7    1  0.3884463E-009  0.4778727E+02  0.7816164E-02  0.1312668E+00
        -11   -1    0    0    0    0  0.00000000000E+00  0.00000000000E+00  0.45593999997E+02  0.45594000000E+02  0.51100000000E-03 0.  1.
         11   -1    0    0    0    0 -0.00000000000E+00 -0.00000000000E+00 -0.45593999997E+02  0.45594000000E+02  0.51100000000E-03 0. -1.
    9900012    2    1    2    0    0  0.30156230496E+02 -0.31004363333E+02  0.35992801635E+01  0.47787267275E+02  0.19999982812E+02 0.  0.
        -12    1    1    2    0    0 -0.30156230496E+02  0.31004363333E+02 -0.35992801635E+01  0.43400732725E+02  0.00000000000E+00 0.  1.
         11    1    3    3    0    0  0.22263444216E+02 -0.25168902407E+02  0.97826044840E+01  0.34997627741E+02  0.51100000000E-03 0. -1.
        -11    1    3    3    0    0 -0.73522204401E+00  0.31704204403E-01 -0.20296052630E+00  0.76338053874E+00  0.51100000000E-03 0.  1.
         12    1    3    3    0    0  0.86280083235E+01 -0.58671651305E+01 -0.59803637943E+01  0.12026258995E+02  0.00000000000E+00 0. -1.
</event>
<event>
 7    1  0.3884463E-009  0.4778727E+02  0.7816164E-02  0.1312668E+00
        -11   -1    0    0    0    0  0.00000000000E+00  0.00000000000E+00  0.45593999997E+02  0.45594000000E+02  0.51100000000E-03 0.  1.
         11   -1    0    0    0    0 -0.00000000000E+00 -0.00000000000E+00 -0.45593999997E+02  0.45594000000E+02  0.51100000000E-03 0. -1.
    9900012    2    1    2    0    0 -0.16791239283E+02  0.36805849805E+02 -0.15716457871E+02  0.47787270230E+02  0.19999996289E+02 0.  0.
        -12    1    1    2    0    0  0.16791239283E+02 -0.36805849805E+02  0.15716457871E+02  0.43400729770E+02  0.00000000000E+00 0.  1.
         11    1    3    3    0    0 -0.15441819049E+02  0.26608842481E+02 -0.15061594206E+02  0.34253932534E+02  0.51100000000E-03 0. -1.
        -11    1    3    3    0    0 -0.20906987691E+00  0.10054167605E+01 -0.36557668055E+01  0.37972627342E+01  0.51100000000E-03 0.  1.
        -12    1    3    3    0    0 -0.11403503577E+01  0.91915905632E+01  0.30009031407E+01  0.97360749627E+01  0.00000000000E+00 0.  1.
</event>
<event>
 7    1  0.3884463E-009  0.4778724E+02  0.7816164E-02  0.1312668E+00
        -11   -1    0    0    0    0  0.00000000000E+00  0.00000000000E+00  0.45593999997E+02  0.45594000000E+02  0.51100000000E-03 0. -1.
         11   -1    0    0    0    0 -0.00000000000E+00 -0.00000000000E+00 -0.45593999997E+02  0.45594000000E+02  0.51100000000E-03 0.  1.
    9900012    2    1    2    0    0  0.12938764308E+02  0.11195648086E+02  0.39885732157E+02  0.47787242085E+02  0.19999867963E+02 0.  0.
        -12    1    1    2    0    0 -0.12938764308E+02 -0.11195648086E+02 -0.39885732157E+02  0.43400757915E+02  0.00000000000E+00 0.  1.
         11    1    3    3    0    0  0.34970900644E+01  0.58498029320E+01  0.63334485148E+01  0.93038918530E+01  0.51100000000E-03 0. -1.
        -11    1    3    3    0    0  0.94728292755E+01 -0.20225507479E+01  0.10515745139E+02  0.14297066206E+02  0.51100000000E-03 0.  1.
         12    1    3    3    0    0 -0.31155031452E-01  0.73683959018E+01  0.23036538503E+02  0.24186284026E+02  0.00000000000E+00 0. -1.
</event>
<event>
 7    1  0.3884463E-009  0.4778728E+02  0.7816164E-02  0.1312668E+00
        -11   -1    0    0    0    0  0.00000000000E+00  0.00000000000E+00  0.45593999997E+02  0.45594000000E+02  0.51100000000E-03 0. -1.
         11   -1    0    0    0    0 -0.00000000000E+00 -0.00000000000E+00 -0.45593999997E+02  0.45594000000E+02  0.51100000000E-03 0.  1.
    9900012    2    1    2    0    0  0.40510367000E+02  0.15250506030E+02  0.31551465944E+01  0.47787277440E+02  0.20000029162E+02 0.  0.
        -12    1    1    2    0    0 -0.40510367000E+02 -0.15250506030E+02 -0.31551465944E+01  0.43400722560E+02  0.00000000000E+00 0.  1.
         11    1    3    3    0    0  0.10984077051E+02  0.23613837231E+01 -0.38776615149E+01  0.11885383496E+02  0.51100000000E-03 0.  1.
        -11    1    3    3    0    0  0.16387732021E+02  0.13366077127E+02  0.34205330106E+00  0.21150101164E+02  0.51100000000E-03 0. -1.
        -12    1    3    3    0    0  0.13138557928E+02 -0.47695481943E+00  0.66907548083E+01  0.14751792780E+02  0.00000000000E+00 0.  1.
</event>
<event>
 7    1  0.3884463E-009  0.4778727E+02  0.7816164E-02  0.1312668E+00
        -11   -1    0    0    0    0  0.00000000000E+00  0.00000000000E+00  0.45593999997E+02  0.45594000000E+02  0.51100000000E-03 0. -1.
         11   -1    0    0    0    0 -0.00000000000E+00 -0.00000000000E+00 -0.45593999997E+02  0.45594000000E+02  0.51100000000E-03 0.  1.
    9900012    2    1    2    0    0 -0.18237238889E+02 -0.23347770190E+02 -0.31716055668E+02  0.47787269105E+02  0.19999991155E+02 0.  0.
        -12    1    1    2    0    0  0.18237238889E+02  0.23347770190E+02  0.31716055668E+02  0.43400730895E+02  0.00000000000E+00 0.  1.
         11    1    3    3    0    0 -0.13143238116E+02 -0.96769308054E+01 -0.18172340085E+02  0.24425839646E+02  0.51100000000E-03 0. -1.
        -11    1    3    3    0    0 -0.10154563637E+01  0.21486312718E+01 -0.33425335417E+01  0.41012557476E+01  0.51100000000E-03 0.  1.
         12    1    3    3    0    0 -0.40785444100E+01 -0.15819470656E+02 -0.10201182041E+02  0.19260173711E+02  0.00000000000E+00 0. -1.
</event>
<event>
 7    1  0.3884463E-009  0.4778722E+02  0.7816164E-02  0.1312668E+00
        -11   -1    0    0    0    0  0.00000000000E+00  0.00000000000E+00  0.45593999997E+02  0.45594000000E+02  0.51100000000E-03 0.  1.
         11   -1    0    0    0    0 -0.00000000000E+00 -0.00000000000E+00 -0.45593999997E+02  0.45594000000E+02  0.51100000000E-03 0. -1.
    9900012    2    1    2    0    0  0.62882902755E+01 -0.41089324315E+02 -0.12480069980E+02  0.47787224500E+02  0.19999787784E+02 0.  0.
        -12    1    1    2    0    0 -0.62882902755E+01  0.41089324315E+02  0.12480069980E+02  0.43400775500E+02  0.00000000000E+00 0.  1.
         11    1    3    3    0    0  0.51133029347E+01 -0.13963202866E+02 -0.93089475626E+01  0.17543471896E+02  0.51100000000E-03 0. -1.
        -11    1    3    3    0    0  0.58974571833E+01 -0.78536732228E+01  0.12902060660E+01  0.99057971044E+01  0.51100000000E-03 0.  1.
         12    1    3    3    0    0 -0.47224698426E+01 -0.19272448227E+02 -0.44613284838E+01  0.20337955500E+02  0.00000000000E+00 0. -1.
</event>
<event>
 7    1  0.3884463E-009  0.4778727E+02  0.7816164E-02  0.1312668E+00
        -11   -1    0    0    0    0  0.00000000000E+00  0.00000000000E+00  0.45593999997E+02  0.45594000000E+02  0.51100000000E-03 0.  1.
         11   -1    0    0    0    0 -0.00000000000E+00 -0.00000000000E+00 -0.45593999997E+02  0.45594000000E+02  0.51100000000E-03 0. -1.
    9900012    2    1    2    0    0 -0.37591162054E+01  0.14502828602E+01 -0.43213298345E+02  0.47787269258E+02  0.19999991856E+02 0.  0.
        -12    1    1    2    0    0  0.37591162054E+01 -0.14502828602E+01  0.43213298345E+02  0.43400730742E+02  0.00000000000E+00 0.  1.
         11    1    3    3    0    0 -0.52819203416E+01  0.36391257812E+01 -0.33051305907E+02  0.33667948280E+02  0.51100000000E-03 0. -1.
        -11    1    3    3    0    0  0.41072780081E+01  0.12666718397E+01 -0.84436443969E+01  0.94746673370E+01  0.51100000000E-03 0.  1.
         12    1    3    3    0    0 -0.25844738719E+01 -0.34555147607E+01 -0.17183480412E+01  0.46446536412E+01  0.00000000000E+00 0. -1.
</event>
<event>
 7    1  0.3884463E-009  0.4778727E+02  0.7816164E-02  0.1312668E+00
        -11   -1    0    0    0    0  0.00000000000E+00  0.00000000000E+00  0.45593999997E+02  0.45594000000E+02  0.51100000000E-03 0.  1.
         11   -1    0    0    0    0 -0.00000000000E+00 -0.00000000000E+00 -0.45593999997E+02  0.45594000000E+02  0.51100000000E-03 0. -1.
    9900012    2    1    2    0    0 -0.13605972885E+01 -0.73143634216E+01 -0.42758297544E+02  0.47787272517E+02  0.20000006712E+02 0.  0.
        -12    1    1    2    0    0  0.13605972885E+01  0.73143634216E+01  0.42758297544E+02  0.43400727483E+02  0.00000000000E+00 0.  1.
         11    1    3    3    0    0 -0.10872521170E+01 -0.54289852807E+01 -0.11050474915E+02  0.12359975504E+02  0.51100000000E-03 0. -1.
        -11    1    3    3    0    0  0.53272647155E+01 -0.15635905973E+01 -0.32741590424E+01  0.64455164728E+01  0.51100000000E-03 0.  1.
         12    1    3    3    0    0 -0.56006098871E+01 -0.32178754359E+00 -0.28433663586E+02  0.28981780540E+02  0.00000000000E+00 0. -1.
</event>
<event>
 7    1  0.3884463E-009  0.4778730E+02  0.7816164E-02  0.1312668E+00
        -11   -1    0    0    0    0  0.00000000000E+00  0.00000000000E+00  0.45593999997E+02  0.45594000000E+02  0.51100000000E-03 0. -1.
         11   -1    0    0    0    0 -0.00000000000E+00 -0.00000000000E+00 -0.45593999997E+02  0.45594000000E+02  0.51100000000E-03 0.  1.
    9900012    2    1    2    0    0  0.31990550997E+02 -0.74939084165E+01  0.28356076315E+02  0.47787296314E+02  0.20000115215E+02 0.  0.
        -12    1    1    2    0    0 -0.31990550997E+02  0.74939084165E+01 -0.28356076315E+02  0.43400703686E+02  0.00000000000E+00 0.  1.
         11    1    3    3    0    0  0.13695067484E+02 -0.56904448629E+01  0.59612379953E+01  0.15983503834E+02  0.51100000000E-03 0. -1.
        -11    1    3    3    0    0  0.37038076139E+01 -0.62642348772E+01  0.82028418174E+01  0.10965648343E+02  0.51100000000E-03 0.  1.
         12    1    3    3    0    0  0.14591675899E+02  0.44607713236E+01  0.14191996502E+02  0.20838144137E+02  0.00000000000E+00 0. -1.
</event>
<event>
 7    1  0.3884463E-009  0.4778728E+02  0.7816164E-02  0.1312668E+00
        -11   -1    0    0    0    0  0.00000000000E+00  0.00000000000E+00  0.45593999997E+02  0.45594000000E+02  0.51100000000E-03 0.  1.
         11   -1    0    0    0    0 -0.00000000000E+00 -0.00000000000E+00 -0.45593999997E+02  0.45594000000E+02  0.51100000000E-03 0. -1.
    9900012    2    1    2    0    0  0.28850158418E+02 -0.21200738994E+02 -0.24532005046E+02  0.47787282883E+02  0.20000053978E+02 0.  0.
        -12    1    1    2    0    0 -0.28850158418E+02  0.21200738994E+02  0.24532005046E+02  0.43400717117E+02  0.00000000000E+00 0.  1.
         11    1    3    3    0    0  0.15411249848E+02 -0.10328489324E+02 -0.18668363787E+02  0.26319044821E+02  0.51100000000E-03 0. -1.
        -11    1    3    3    0    0  0.65168241555E+01 -0.21999609429E+01 -0.75852269819E+01  0.10239360031E+02  0.51100000000E-03 0.  1.
        -12    1    3    3    0    0  0.69220844149E+01 -0.86722887278E+01  0.17215857221E+01  0.11228878031E+02  0.00000000000E+00 0.  1.
</event>
<event>
 7    1  0.3884463E-009  0.4778729E+02  0.7816164E-02  0.1312668E+00
        -11   -1    0    0    0    0  0.00000000000E+00  0.00000000000E+00  0.45593999997E+02  0.45594000000E+02  0.51100000000E-03 0. -1.
         11   -1    0    0    0    0 -0.00000000000E+00 -0.00000000000E+00 -0.45593999997E+02  0.45594000000E+02  0.51100000000E-03 0.  1.
    9900012    2    1    2    0    0  0.19750107096E+02  0.92187790693E+01  0.37530905162E+02  0.47787291940E+02  0.20000095270E+02 0.  0.
        -12    1    1    2    0    0 -0.19750107096E+02 -0.92187790693E+01 -0.37530905162E+02  0.43400708060E+02  0.00000000000E+00 0.  1.
         11    1    3    3    0    0  0.24483772012E+00  0.42403630659E+01  0.16816851300E+01  0.45682260865E+01  0.51100000000E-03 0. -1.
        -11    1    3    3    0    0  0.20861127629E+01 -0.16980699552E+01  0.15013194773E+02  0.15252256410E+02  0.51100000000E-03 0.  1.
         12    1    3    3    0    0  0.17419156613E+02  0.66764859587E+01  0.20836025259E+02  0.27966809444E+02  0.00000000000E+00 0. -1.
</event>
<event>
 7    1  0.3884463E-009  0.4778727E+02  0.7816164E-02  0.1312668E+00
        -11   -1    0    0    0    0  0.00000000000E+00  0.00000000000E+00  0.45593999997E+02  0.45594000000E+02  0.51100000000E-03 0. -1.
         11   -1    0    0    0    0 -0.00000000000E+00 -0.00000000000E+00 -0.45593999997E+02  0.45594000000E+02  0.51100000000E-03 0.  1.
    9900012    2    1    2    0    0  0.11181941472E+02  0.18519244824E+02  0.37624790675E+02  0.47787272848E+02  0.20000008225E+02 0.  0.
        -12    1    1    2    0    0 -0.11181941472E+02 -0.18519244824E+02 -0.37624790675E+02  0.43400727152E+02  0.00000000000E+00 0.  1.
         11    1    3    3    0    0  0.16473508469E+01  0.10432620220E-01 -0.81656201039E-01  0.16494064535E+01  0.51100000000E-03 0. -1.
        -11    1    3    3    0    0  0.46391036116E+01 -0.22193406360E+01  0.55365157328E+01  0.75564384401E+01  0.51100000000E-03 0.  1.
         12    1    3    3    0    0  0.48954870135E+01  0.20728152840E+02  0.32169931144E+02  0.38581427955E+02  0.00000000000E+00 0. -1.
</event>
<event>
 7    1  0.3884463E-009  0.4778727E+02  0.7816164E-02  0.1312668E+00
        -11   -1    0    0    0    0  0.00000000000E+00  0.00000000000E+00  0.45593999997E+02  0.45594000000E+02  0.51100000000E-03 0. -1.
         11   -1    0    0    0    0 -0.00000000000E+00 -0.00000000000E+00 -0.45593999997E+02  0.45594000000E+02  0.51100000000E-03 0.  1.
    9900012    2    1    2    0    0  0.15036693470E+02 -0.14635662136E+02  0.37991031078E+02  0.47787271906E+02  0.20000003929E+02 0.  0.
        -12    1    1    2    0    0 -0.15036693470E+02  0.14635662136E+02 -0.37991031078E+02  0.43400728094E+02  0.00000000000E+00 0.  1.
         11    1    3    3    0    0  0.48518506400E+00 -0.26620441072E+01  0.13248121689E+02  0.13521634957E+02  0.51100000000E-03 0. -1.
        -11    1    3    3    0    0 -0.45529340334E+00 -0.28180678078E+01  0.12553120411E+02  0.12873602082E+02  0.51100000000E-03 0.  1.
         12    1    3    3    0    0  0.15006801809E+02 -0.91555502211E+01  0.12189788978E+02  0.21392034866E+02  0.00000000000E+00 0. -1.
</event>
<event>
 7    1  0.3884463E-009  0.4778727E+02  0.7816164E-02  0.1312668E+00
        -11   -1    0    0    0    0  0.00000000000E+00  0.00000000000E+00  0.45593999997E+02  0.45594000000E+02  0.51100000000E-03 0. -1.
         11   -1    0    0    0    0 -0.00000000000E+00 -0.00000000000E+00 -0.45593999997E+02  0.45594000000E+02  0.51100000000E-03 0.  1.
    9900012    2    1    2    0    0 -0.40583884643E+02  0.55030833353E+01  0.14362717871E+02  0.47787270933E+02  0.19999999492E+02 0.  0.
        -12    1    1    2    0    0  0.40583884643E+02 -0.55030833353E+01 -0.14362717871E+02  0.43400729067E+02  0.00000000000E+00 0.  1.
         11    1    3    3    0    0 -0.32772757020E+01 -0.18367935219E+01  0.49492320542E+01  0.62136337723E+01  0.51100000000E-03 0. -1.
        -11    1    3    3    0    0 -0.94262325634E+00  0.38313403684E+01  0.12610165089E+01  0.41422059967E+01  0.51100000000E-03 0.  1.
         12    1    3    3    0    0 -0.36363985685E+02  0.35085364888E+01  0.81524693080E+01  0.37431431164E+02  0.00000000000E+00 0. -1.
</event>
<event>
 7    1  0.3884463E-009  0.4778727E+02  0.7816164E-02  0.1312668E+00
        -11   -1    0    0    0    0  0.00000000000E+00  0.00000000000E+00  0.45593999997E+02  0.45594000000E+02  0.51100000000E-03 0.  1.
         11   -1    0    0    0    0 -0.00000000000E+00 -0.00000000000E+00 -0.45593999997E+02  0.45594000000E+02  0.51100000000E-03 0. -1.
    9900012    2    1    2    0    0  0.14942975555E+02  0.11181864966E+02 -0.39182859208E+02  0.47787273298E+02  0.20000010275E+02 0.  0.
        -12    1    1    2    0    0 -0.14942975555E+02 -0.11181864966E+02  0.39182859208E+02  0.43400726702E+02  0.00000000000E+00 0.  1.
         11    1    3    3    0    0 -0.20076415456E+01  0.35523581623E+01 -0.12733756689E+02  0.13371553117E+02  0.51100000000E-03 0. -1.
        -11    1    3    3    0    0  0.31976997142E+01  0.63999586452E+01 -0.43971824730E+01  0.83976168098E+01  0.51100000000E-03 0.  1.
         12    1    3    3    0    0  0.13752917386E+02  0.12295481584E+01 -0.22051920046E+02  0.26018103371E+02  0.00000000000E+00 0. -1.
</event>
<event>
 7    1  0.3884463E-009  0.4778727E+02  0.7816164E-02  0.1312668E+00
        -11   -1    0    0    0    0  0.00000000000E+00  0.00000000000E+00  0.45593999997E+02  0.45594000000E+02  0.51100000000E-03 0.  1.
         11   -1    0    0    0    0 -0.00000000000E+00 -0.00000000000E+00 -0.45593999997E+02  0.45594000000E+02  0.51100000000E-03 0. -1.
    9900012    2    1    2    0    0  0.37302406820E+02 -0.19925145494E+02 -0.97540860992E+01  0.47787272205E+02  0.20000005290E+02 0.  0.
        -12    1    1    2    0    0 -0.37302406820E+02  0.19925145494E+02  0.97540860992E+01  0.43400727795E+02  0.00000000000E+00 0.  1.
         11    1    3    3    0    0  0.18579442308E+02 -0.11771965730E+02 -0.57797180310E+01  0.22741591730E+02  0.51100000000E-03 0. -1.
        -11    1    3    3    0    0  0.16126678962E+02 -0.11820627305E+02 -0.18647994237E+01  0.20081695182E+02  0.51100000000E-03 0.  1.
        -12    1    3    3    0    0  0.25962855490E+01  0.36674475406E+01 -0.21095686445E+01  0.49639852922E+01  0.00000000000E+00 0.  1.
</event>
<event>
 7    1  0.3884463E-009  0.4778727E+02  0.7816164E-02  0.1312668E+00
        -11   -1    0    0    0    0  0.00000000000E+00  0.00000000000E+00  0.45593999997E+02  0.45594000000E+02  0.51100000000E-03 0. -1.
         11   -1    0    0    0    0 -0.00000000000E+00 -0.00000000000E+00 -0.45593999997E+02  0.45594000000E+02  0.51100000000E-03 0.  1.
    9900012    2    1    2    0    0  0.34720047454E+02 -0.18728673311E+02  0.18093606959E+02  0.47787268302E+02  0.19999987495E+02 0.  0.
        -12    1    1    2    0    0 -0.34720047454E+02  0.18728673311E+02 -0.18093606959E+02  0.43400731698E+02  0.00000000000E+00 0.  1.
         11    1    3    3    0    0  0.21192203700E+02 -0.86910969761E+01  0.46738269538E+01  0.23377111091E+02  0.51100000000E-03 0. -1.
        -11    1    3    3    0    0  0.11837041543E+02 -0.12100039226E+02  0.88051053756E+01  0.19080261599E+02  0.51100000000E-03 0.  1.
        -12    1    3    3    0    0  0.16908022112E+01  0.20624628915E+01  0.46146746292E+01  0.53298956115E+01  0.00000000000E+00 0.  1.
</event>
<event>
 7    1  0.3884463E-009  0.4778727E+02  0.7816164E-02  0.1312668E+00
        -11   -1    0    0    0    0  0.00000000000E+00  0.00000000000E+00  0.45593999997E+02  0.45594000000E+02  0.51100000000E-03 0. -1.
         11   -1    0    0    0    0 -0.00000000000E+00 -0.00000000000E+00 -0.45593999997E+02  0.45594000000E+02  0.51100000000E-03 0.  1.
    9900012    2    1    2    0    0  0.40204532538E+02  0.83999898713E+01  0.14023515479E+02  0.47787271287E+02  0.20000001105E+02 0.  0.
        -12    1    1    2    0    0 -0.40204532538E+02 -0.83999898713E+01 -0.14023515479E+02  0.43400728713E+02  0.00000000000E+00 0.  1.
         11    1    3    3    0    0  0.18254397232E+02  0.23007637039E+01 -0.30596012411E+01  0.18651479618E+02  0.51100000000E-03 0. -1.
        -11    1    3    3    0    0  0.55582946946E+01  0.35642983778E+01  0.25344151383E+01  0.70726319848E+01  0.51100000000E-03 0.  1.
        -12    1    3    3    0    0  0.16391840611E+02  0.25349277897E+01  0.14548701582E+02  0.22063159684E+02  0.00000000000E+00 0.  1.
</event>
<event>
 7    1  0.3884463E-009  0.4778727E+02  0.7816164E-02  0.1312668E+00
        -11   -1    0    0    0    0  0.00000000000E+00  0.00000000000E+00  0.45593999997E+02  0.45594000000E+02  0.51100000000E-03 0.  1.
         11   -1    0    0    0    0 -0.00000000000E+00 -0.00000000000E+00 -0.45593999997E+02  0.45594000000E+02  0.51100000000E-03 0. -1.
    9900012    2    1    2    0    0 -0.49589397883E+01  0.13124926463E+01 -0.43096512591E+02  0.47787272837E+02  0.20000008174E+02 0.  0.
        -12    1    1    2    0    0  0.49589397883E+01 -0.13124926463E+01  0.43096512591E+02  0.43400727163E+02  0.00000000000E+00 0.  1.
         11    1    3    3    0    0  0.65522745756E+00  0.41578147101E+01 -0.28495041891E+02  0.28804238557E+02  0.51100000000E-03 0. -1.
        -11    1    3    3    0    0 -0.75343666297E+01 -0.24408145281E+01 -0.15016731589E+02  0.16977234284E+02  0.51100000000E-03 0.  1.
        -12    1    3    3    0    0  0.19201993839E+01 -0.40450753569E+00  0.41526088892E+00  0.20057999965E+01  0.00000000000E+00 0.  1.
</event>
<event>
 7    1  0.3884463E-009  0.4778727E+02  0.7816164E-02  0.1312668E+00
        -11   -1    0    0    0    0  0.00000000000E+00  0.00000000000E+00  0.45593999997E+02  0.45594000000E+02  0.51100000000E-03 0.  1.
         11   -1    0    0    0    0 -0.00000000000E+00 -0.00000000000E+00 -0.45593999997E+02  0.45594000000E+02  0.51100000000E-03 0. -1.
    9900012    2    1    2    0    0 -0.20559217995E+02 -0.11584011448E+02 -0.36424612761E+02  0.47787272119E+02  0.20000004901E+02 0.  0.
        -12    1    1    2    0    0  0.20559217995E+02  0.11584011448E+02  0.36424612761E+02  0.43400727881E+02  0.00000000000E+00 0.  1.
         11    1    3    3    0    0 -0.12162875096E+02  0.96384245332E-01 -0.17951002715E+02  0.21683710920E+02  0.51100000000E-03 0. -1.
        -11    1    3    3    0    0 -0.31447581124E+00  0.45250467763E+00 -0.83191680341E+01  0.83373984288E+01  0.51100000000E-03 0.  1.
        -12    1    3    3    0    0 -0.80818670874E+01 -0.12132900371E+02 -0.10154442012E+02  0.17766162771E+02  0.00000000000E+00 0.  1.
</event>
<event>
 7    1  0.3884463E-009  0.4778727E+02  0.7816164E-02  0.1312668E+00
        -11   -1    0    0    0    0  0.00000000000E+00  0.00000000000E+00  0.45593999997E+02  0.45594000000E+02  0.51100000000E-03 0.  1.
         11   -1    0    0    0    0 -0.00000000000E+00 -0.00000000000E+00 -0.45593999997E+02  0.45594000000E+02  0.51100000000E-03 0. -1.
    9900012    2    1    2    0    0 -0.23829747117E+00  0.30902741037E+02 -0.30472723165E+02  0.47787273666E+02  0.20000011951E+02 0.  0.
        -12    1    1    2    0    0  0.23829747117E+00 -0.30902741037E+02  0.30472723165E+02  0.43400726334E+02  0.00000000000E+00 0.  1.
         11    1    3    3    0    0 -0.27557743506E+01  0.13974322587E+02 -0.15992576100E+02  0.21415846343E+02  0.51100000000E-03 0. -1.
        -11    1    3    3    0    0 -0.41213635260E+01  0.10213415698E+02 -0.28230673143E+01  0.11369661686E+02  0.51100000000E-03 0.  1.
        -12    1    3    3    0    0  0.66388404054E+01  0.67150027517E+01 -0.11657079751E+02  0.15001765636E+02  0.00000000000E+00 0.  1.
</event>
<event>
 7    1  0.3884463E-009  0.4778727E+02  0.7816164E-02  0.1312668E+00
        -11   -1    0    0    0    0  0.00000000000E+00  0.00000000000E+00  0.45593999997E+02  0.45594000000E+02  0.51100000000E-03 0.  1.
         11   -1    0    0    0    0 -0.00000000000E+00 -0.00000000000E+00 -0.45593999997E+02  0.45594000000E+02  0.51100000000E-03 0. -1.
    9900012    2    1    2    0    0 -0.31662954381E+02  0.24425100172E+02 -0.16866989334E+02  0.47787268120E+02  0.19999986668E+02 0.  0.
        -12    1    1    2    0    0  0.31662954381E+02 -0.24425100172E+02  0.16866989334E+02  0.43400731880E+02  0.00000000000E+00 0.  1.
         11    1    3    3    0    0  0.28574963601E+00  0.51280381158E+00  0.83719677245E+00  0.10225063817E+01  0.51100000000E-03 0. -1.
        -11    1    3    3    0    0 -0.18960620649E+02  0.45737298509E+01 -0.11559929556E+02  0.22672805555E+02  0.51100000000E-03 0.  1.
         12    1    3    3    0    0 -0.12988083367E+02  0.19338566509E+02 -0.61442565505E+01  0.24091956183E+02  0.00000000000E+00 0. -1.
</event>
<event>
 7    1  0.3884463E-009  0.4778727E+02  0.7816164E-02  0.1312668E+00
        -11   -1    0    0    0    0  0.00000000000E+00  0.00000000000E+00  0.45593999997E+02  0.45594000000E+02  0.51100000000E-03 0.  1.
         11   -1    0    0    0    0 -0.00000000000E+00 -0.00000000000E+00 -0.45593999997E+02  0.45594000000E+02  0.51100000000E-03 0. -1.
    9900012    2    1    2    0    0 -0.24882529126E+02  0.21247608276E+02  0.28513538771E+02  0.47787274126E+02  0.20000014048E+02 0.  0.
        -12    1    1    2    0    0  0.24882529126E+02 -0.21247608276E+02 -0.28513538771E+02  0.43400725874E+02  0.00000000000E+00 0.  1.
         11    1    3    3    0    0 -0.72932682298E+01  0.22413242238E+01  0.43094934418E+01  0.87628208776E+01  0.51100000000E-03 0. -1.
        -11    1    3    3    0    0  0.35502673167E+00  0.52343053326E+01  0.12498978335E+02  0.13555384760E+02  0.51100000000E-03 0.  1.
         12    1    3    3    0    0 -0.17944287628E+02  0.13771978720E+02  0.11705066994E+02  0.25469068488E+02  0.00000000000E+00 0. -1.
</event>
<event>
 7    1  0.3884463E-009  0.4778729E+02  0.7816164E-02  0.1312668E+00
        -11   -1    0    0    0    0  0.00000000000E+00  0.00000000000E+00  0.45593999997E+02  0.45594000000E+02  0.51100000000E-03 0. -1.
         11   -1    0    0    0    0 -0.00000000000E+00 -0.00000000000E+00 -0.45593999997E+02  0.45594000000E+02  0.51100000000E-03 0.  1.
    9900012    2    1    2    0    0  0.41232110884E+00 -0.26681698039E+02  0.34227742220E+02  0.47787293135E+02  0.20000100720E+02 0.  0.
        -12    1    1    2    0    0 -0.41232110884E+00  0.26681698039E+02 -0.34227742220E+02  0.43400706865E+02  0.00000000000E+00 0.  1.
         11    1    3    3    0    0  0.43325107014E+01 -0.94077967435E+01  0.25789806764E+02  0.27791930875E+02  0.51100000000E-03 0. -1.
        -11    1    3    3    0    0  0.17948535751E+00 -0.64810745186E+01  0.40491430073E+01  0.76440893024E+01  0.51100000000E-03 0.  1.
         12    1    3    3    0    0 -0.40996749501E+01 -0.10792826777E+02  0.43887924478E+01  0.12351272958E+02  0.00000000000E+00 0. -1.
</event>
<event>
 7    1  0.3884463E-009  0.4778724E+02  0.7816164E-02  0.1312668E+00
        -11   -1    0    0    0    0  0.00000000000E+00  0.00000000000E+00  0.45593999997E+02  0.45594000000E+02  0.51100000000E-03 0.  1.
         11   -1    0    0    0    0 -0.00000000000E+00 -0.00000000000E+00 -0.45593999997E+02  0.45594000000E+02  0.51100000000E-03 0. -1.
    9900012    2    1    2    0    0  0.32551558743E+02  0.34535517363E+01 -0.28497273906E+02  0.47787244059E+02  0.19999876964E+02 0.  0.
        -12    1    1    2    0    0 -0.32551558743E+02 -0.34535517363E+01  0.28497273906E+02  0.43400755941E+02  0.00000000000E+00 0.  1.
         11    1    3    3    0    0  0.72652368544E+01 -0.16104305709E+01 -0.47434046627E+01  0.88247969512E+01  0.51100000000E-03 0. -1.
        -11    1    3    3    0    0  0.61472311862E+00 -0.99267473587E+00 -0.10011812827E+02  0.10079666859E+02  0.51100000000E-03 0.  1.
         12    1    3    3    0    0  0.24671598770E+02  0.60566570431E+01 -0.13742056416E+02  0.28882780249E+02  0.00000000000E+00 0. -1.
</event>
<event>
 7    1  0.3884463E-009  0.4778727E+02  0.7816164E-02  0.1312668E+00
        -11   -1    0    0    0    0  0.00000000000E+00  0.00000000000E+00  0.45593999997E+02  0.45594000000E+02  0.51100000000E-03 0.  1.
         11   -1    0    0    0    0 -0.00000000000E+00 -0.00000000000E+00 -0.45593999997E+02  0.45594000000E+02  0.51100000000E-03 0. -1.
    9900012    2    1    2    0    0  0.18392287759E+02 -0.31016134981E+01 -0.39188353532E+02  0.47787270653E+02  0.19999998216E+02 0.  0.
        -12    1    1    2    0    0 -0.18392287759E+02  0.31016134981E+01  0.39188353532E+02  0.43400729347E+02  0.00000000000E+00 0.  1.
         11    1    3    3    0    0  0.18343451423E+01 -0.12481574115E+01  0.54802004825E+00  0.22853982715E+01  0.51100000000E-03 0. -1.
        -11    1    3    3    0    0  0.34765708404E+01  0.57554300170E+01 -0.15951967413E+02  0.17311175122E+02  0.51100000000E-03 0.  1.
         12    1    3    3    0    0  0.13081371776E+02 -0.76088861036E+01 -0.23784406167E+02  0.28190697260E+02  0.00000000000E+00 0. -1.
</event>
<event>
 7    1  0.3884463E-009  0.4778727E+02  0.7816164E-02  0.1312668E+00
        -11   -1    0    0    0    0  0.00000000000E+00  0.00000000000E+00  0.45593999997E+02  0.45594000000E+02  0.51100000000E-03 0.  1.
         11   -1    0    0    0    0 -0.00000000000E+00 -0.00000000000E+00 -0.45593999997E+02  0.45594000000E+02  0.51100000000E-03 0. -1.
    9900012    2    1    2    0    0  0.19678624861E+02 -0.66855697424E+01 -0.38100898090E+02  0.47787267812E+02  0.19999985263E+02 0.  0.
        -12    1    1    2    0    0 -0.19678624861E+02  0.66855697424E+01  0.38100898090E+02  0.43400732188E+02  0.00000000000E+00 0.  1.
         11    1    3    3    0    0  0.99550080479E+01 -0.66506226194E+00 -0.21331469716E+02  0.23549439347E+02  0.51100000000E-03 0. -1.
        -11    1    3    3    0    0  0.18202290907E+01 -0.16698176604E+01 -0.14798575457E+02  0.15003311660E+02  0.51100000000E-03 0.  1.
        -12    1    3    3    0    0  0.79033877225E+01 -0.43506898201E+01 -0.19708529166E+01  0.92345168050E+01  0.00000000000E+00 0.  1.
</event>
<event>
 7    1  0.3884463E-009  0.4778727E+02  0.7816164E-02  0.1312668E+00
        -11   -1    0    0    0    0  0.00000000000E+00  0.00000000000E+00  0.45593999997E+02  0.45594000000E+02  0.51100000000E-03 0.  1.
         11   -1    0    0    0    0 -0.00000000000E+00 -0.00000000000E+00 -0.45593999997E+02  0.45594000000E+02  0.51100000000E-03 0. -1.
    9900012    2    1    2    0    0  0.21545142813E+02 -0.85415537040E+01 -0.36694305610E+02  0.47787269790E+02  0.19999994282E+02 0.  0.
        -12    1    1    2    0    0 -0.21545142813E+02  0.85415537040E+01  0.36694305610E+02  0.43400730210E+02  0.00000000000E+00 0.  1.
         11    1    3    3    0    0  0.56906673971E+01 -0.16844742113E+01 -0.15253533215E+02  0.16367389059E+02  0.51100000000E-03 0. -1.
        -11    1    3    3    0    0 -0.12306823869E+01 -0.34075112002E+01 -0.98311131239E+01  0.10477427988E+02  0.51100000000E-03 0.  1.
        -12    1    3    3    0    0  0.17085157803E+02 -0.34495682925E+01 -0.11609659271E+02  0.20942452744E+02  0.00000000000E+00 0.  1.
</event>
<event>
 7    1  0.3884463E-009  0.4778728E+02  0.7816164E-02  0.1312668E+00
        -11   -1    0    0    0    0  0.00000000000E+00  0.00000000000E+00  0.45593999997E+02  0.45594000000E+02  0.51100000000E-03 0.  1.
         11   -1    0    0    0    0 -0.00000000000E+00 -0.00000000000E+00 -0.45593999997E+02  0.45594000000E+02  0.51100000000E-03 0. -1.
    9900012    2    1    2    0    0 -0.25327465132E+02  0.35237902314E+02  0.65757443492E+00  0.47787278190E+02  0.20000032578E+02 0.  0.
        -12    1    1    2    0    0  0.25327465132E+02 -0.35237902314E+02 -0.65757443492E+00  0.43400721810E+02  0.00000000000E+00 0.  1.
         11    1    3    3    0    0 -0.21442892189E+02  0.36424124755E+02 -0.10507820454E+01  0.42280239270E+02  0.51100000000E-03 0. -1.
        -11    1    3    3    0    0 -0.98323424337E+00 -0.11093275965E+00 -0.99134736783E+00  0.14006518194E+01  0.51100000000E-03 0.  1.
        -12    1    3    3    0    0 -0.29013386993E+01 -0.10752896807E+01  0.26997038482E+01  0.41063870998E+01  0.00000000000E+00 0.  1.
</event>
<event>
 7    1  0.3884463E-009  0.4778727E+02  0.7816164E-02  0.1312668E+00
        -11   -1    0    0    0    0  0.00000000000E+00  0.00000000000E+00  0.45593999997E+02  0.45594000000E+02  0.51100000000E-03 0. -1.
         11   -1    0    0    0    0 -0.00000000000E+00 -0.00000000000E+00 -0.45593999997E+02  0.45594000000E+02  0.51100000000E-03 0.  1.
    9900012    2    1    2    0    0  0.31342011230E+02  0.20638090842E+02  0.21802997725E+02  0.47787272225E+02  0.20000005385E+02 0.  0.
        -12    1    1    2    0    0 -0.31342011230E+02 -0.20638090842E+02 -0.21802997725E+02  0.43400727775E+02  0.00000000000E+00 0.  1.
         11    1    3    3    0    0 -0.11455261790E+01  0.28046421616E+00  0.18153263137E+00  0.11932496640E+01  0.51100000000E-03 0. -1.
        -11    1    3    3    0    0  0.11044548206E+02  0.32085274429E+01 -0.22928298089E+00  0.11503445761E+02  0.51100000000E-03 0.  1.
         12    1    3    3    0    0  0.21442989202E+02  0.17149099183E+02  0.21850748075E+02  0.35090576800E+02  0.00000000000E+00 0. -1.
</event>
<event>
 7    1  0.3884463E-009  0.4778727E+02  0.7816164E-02  0.1312668E+00
        -11   -1    0    0    0    0  0.00000000000E+00  0.00000000000E+00  0.45593999997E+02  0.45594000000E+02  0.51100000000E-03 0. -1.
         11   -1    0    0    0    0 -0.00000000000E+00 -0.00000000000E+00 -0.45593999997E+02  0.45594000000E+02  0.51100000000E-03 0.  1.
    9900012    2    1    2    0    0  0.11835187845E+02 -0.37313321625E+02  0.18742130175E+02  0.47787273215E+02  0.20000009895E+02 0.  0.
        -12    1    1    2    0    0 -0.11835187845E+02  0.37313321625E+02 -0.18742130175E+02  0.43400726785E+02  0.00000000000E+00 0.  1.
         11    1    3    3    0    0 -0.42845856428E+00 -0.14969843974E+02  0.10620723062E+02  0.18359726686E+02  0.51100000000E-03 0. -1.
        -11    1    3    3    0    0 -0.18933260946E+01 -0.54565548516E+01  0.39576807817E+01  0.70015649665E+01  0.51100000000E-03 0.  1.
         12    1    3    3    0    0  0.14156972503E+02 -0.16886922799E+02  0.41637263314E+01  0.22425981563E+02  0.00000000000E+00 0. -1.
</event>
<event>
 7    1  0.3884463E-009  0.4778727E+02  0.7816164E-02  0.1312668E+00
        -11   -1    0    0    0    0  0.00000000000E+00  0.00000000000E+00  0.45593999997E+02  0.45594000000E+02  0.51100000000E-03 0.  1.
         11   -1    0    0    0    0 -0.00000000000E+00 -0.00000000000E+00 -0.45593999997E+02  0.45594000000E+02  0.51100000000E-03 0. -1.
    9900012    2    1    2    0    0 -0.32135186539E+02  0.27412613940E+02 -0.99750690189E+01  0.47787267071E+02  0.19999981882E+02 0.  0.
        -12    1    1    2    0    0  0.32135186539E+02 -0.27412613940E+02  0.99750690189E+01  0.43400732929E+02  0.00000000000E+00 0.  1.
         11    1    3    3    0    0 -0.44088154639E+01  0.10991497314E+02 -0.11507786441E+01  0.11898527587E+02  0.51100000000E-03 0.  1.
        -11    1    3    3    0    0 -0.76544985369E+01  0.11529148896E+02 -0.12917880492E+01  0.13898968982E+02  0.51100000000E-03 0. -1.
         12    1    3    3    0    0 -0.20071872538E+02  0.48919677294E+01 -0.75325023256E+01  0.21989770502E+02  0.00000000000E+00 0. -1.
</event>
<event>
 7    1  0.3884463E-009  0.4778727E+02  0.7816164E-02  0.1312668E+00
        -11   -1    0    0    0    0  0.00000000000E+00  0.00000000000E+00  0.45593999997E+02  0.45594000000E+02  0.51100000000E-03 0. -1.
         11   -1    0    0    0    0 -0.00000000000E+00 -0.00000000000E+00 -0.45593999997E+02  0.45594000000E+02  0.51100000000E-03 0.  1.
    9900012    2    1    2    0    0  0.23374404704E+02 -0.23948487904E+02 -0.27635677933E+02  0.47787267714E+02  0.19999984816E+02 0.  0.
        -12    1    1    2    0    0 -0.23374404704E+02  0.23948487904E+02  0.27635677933E+02  0.43400732286E+02  0.00000000000E+00 0.  1.
         11    1    3    3    0    0  0.17590929443E+02 -0.18807409941E+02 -0.27628331997E+02  0.37768825724E+02  0.51100000000E-03 0. -1.
        -11    1    3    3    0    0  0.55726623201E+00  0.75568160668E+00 -0.17158358129E+01  0.19559379188E+01  0.51100000000E-03 0.  1.
        -12    1    3    3    0    0  0.52262090298E+01 -0.58967595696E+01  0.17084898774E+01  0.80625040717E+01  0.00000000000E+00 0.  1.
</event>
<event>
 7    1  0.3884463E-009  0.4778728E+02  0.7816164E-02  0.1312668E+00
        -11   -1    0    0    0    0  0.00000000000E+00  0.00000000000E+00  0.45593999997E+02  0.45594000000E+02  0.51100000000E-03 0.  1.
         11   -1    0    0    0    0 -0.00000000000E+00 -0.00000000000E+00 -0.45593999997E+02  0.45594000000E+02  0.51100000000E-03 0. -1.
    9900012    2    1    2    0    0 -0.21436983389E+02 -0.34156854504E+02 -0.16043300335E+02  0.47787280512E+02  0.20000043167E+02 0.  0.
        -12    1    1    2    0    0  0.21436983389E+02  0.34156854504E+02  0.16043300335E+02  0.43400719488E+02  0.00000000000E+00 0.  1.
         11    1    3    3    0    0 -0.13278021785E+02 -0.15376801658E+02 -0.15474698960E+02  0.25538562996E+02  0.51100000000E-03 0. -1.
        -11    1    3    3    0    0 -0.22509482393E+01 -0.27650661543E-02  0.10768473238E+01  0.24952707351E+01  0.51100000000E-03 0.  1.
        -12    1    3    3    0    0 -0.59080133647E+01 -0.18777287781E+02 -0.16454486981E+01  0.19753446781E+02  0.00000000000E+00 0.  1.
</event>
<event>
 7    1  0.3884463E-009  0.4778727E+02  0.7816164E-02  0.1312668E+00
        -11   -1    0    0    0    0  0.00000000000E+00  0.00000000000E+00  0.45593999997E+02  0.45594000000E+02  0.51100000000E-03 0. -1.
         11   -1    0    0    0    0 -0.00000000000E+00 -0.00000000000E+00 -0.45593999997E+02  0.45594000000E+02  0.51100000000E-03 0.  1.
    9900012    2    1    2    0    0  0.36706397548E+02  0.16425010875E+02  0.16324300128E+02  0.47787269846E+02  0.19999994536E+02 0.  0.
        -12    1    1    2    0    0 -0.36706397548E+02 -0.16425010875E+02 -0.16324300128E+02  0.43400730154E+02  0.00000000000E+00 0.  1.
         11    1    3    3    0    0  0.14291177791E+02  0.86897758205E+00  0.12461413073E+02  0.18981035291E+02  0.51100000000E-03 0. -1.
        -11    1    3    3    0    0  0.73294228652E+00  0.64982302652E+00 -0.16539002772E+01  0.19222020574E+01  0.51100000000E-03 0.  1.
        -12    1    3    3    0    0  0.21682277471E+02  0.14906210266E+02  0.55167873321E+01  0.26884032497E+02  0.00000000000E+00 0.  1.
</event>
<event>
 7    1  0.3884463E-009  0.4778727E+02  0.7816164E-02  0.1312668E+00
        -11   -1    0    0    0    0  0.00000000000E+00  0.00000000000E+00  0.45593999997E+02  0.45594000000E+02  0.51100000000E-03 0.  1.
         11   -1    0    0    0    0 -0.00000000000E+00 -0.00000000000E+00 -0.45593999997E+02  0.45594000000E+02  0.51100000000E-03 0. -1.
    9900012    2    1    2    0    0 -0.83317555272E+00  0.40342924718E+01 -0.43204784043E+02  0.47787273492E+02  0.20000011160E+02 0.  0.
        -12    1    1    2    0    0  0.83317555272E+00 -0.40342924718E+01  0.43204784043E+02  0.43400726508E+02  0.00000000000E+00 0.  1.
         11    1    3    3    0    0 -0.19037174737E+01 -0.29540295714E+01 -0.26000765867E+02  0.26237192244E+02  0.51100000000E-03 0. -1.
        -11    1    3    3    0    0 -0.44137809174E+01  0.43971133401E+00 -0.57857804908E+01  0.72904090552E+01  0.51100000000E-03 0.  1.
         12    1    3    3    0    0  0.54843228383E+01  0.65486107093E+01 -0.11418237684E+02  0.14259672192E+02  0.00000000000E+00 0. -1.
</event>
<event>
 7    1  0.3884463E-009  0.4778727E+02  0.7816164E-02  0.1312668E+00
        -11   -1    0    0    0    0  0.00000000000E+00  0.00000000000E+00  0.45593999997E+02  0.45594000000E+02  0.51100000000E-03 0.  1.
         11   -1    0    0    0    0 -0.00000000000E+00 -0.00000000000E+00 -0.45593999997E+02  0.45594000000E+02  0.51100000000E-03 0. -1.
    9900012    2    1    2    0    0  0.18505571531E+02 -0.36704886994E+02 -0.13925450005E+02  0.47787273453E+02  0.20000010983E+02 0.  0.
        -12    1    1    2    0    0 -0.18505571531E+02  0.36704886994E+02  0.13925450005E+02  0.43400726547E+02  0.00000000000E+00 0.  1.
         11    1    3    3    0    0  0.57495944246E+01 -0.14227333117E+02 -0.11100830025E+02  0.18939463328E+02  0.51100000000E-03 0. -1.
        -11    1    3    3    0    0  0.55370882506E+01 -0.20072190867E+02 -0.38343648260E+01  0.21172022727E+02  0.51100000000E-03 0.  1.
        -12    1    3    3    0    0  0.72188888558E+01 -0.24053630107E+01  0.10097448456E+01  0.76757873980E+01  0.00000000000E+00 0.  1.
</event>
<event>
 7    1  0.3884463E-009  0.4778727E+02  0.7816164E-02  0.1312668E+00
        -11   -1    0    0    0    0  0.00000000000E+00  0.00000000000E+00  0.45593999997E+02  0.45594000000E+02  0.51100000000E-03 0. -1.
         11   -1    0    0    0    0 -0.00000000000E+00 -0.00000000000E+00 -0.45593999997E+02  0.45594000000E+02  0.51100000000E-03 0.  1.
    9900012    2    1    2    0    0 -0.31606975348E+02  0.23980540303E+02  0.17594205958E+02  0.47787270891E+02  0.19999999302E+02 0.  0.
        -12    1    1    2    0    0  0.31606975348E+02 -0.23980540303E+02 -0.17594205958E+02  0.43400729109E+02  0.00000000000E+00 0.  1.
         11    1    3    3    0    0 -0.65637191766E+01 -0.31142298487E+00  0.44381969524E+01  0.79295010029E+01  0.51100000000E-03 0. -1.
        -11    1    3    3    0    0 -0.12037444225E+02  0.64854317826E+01 -0.90884954279E+00  0.13703535917E+02  0.51100000000E-03 0.  1.
        -12    1    3    3    0    0 -0.13005811946E+02  0.17806531505E+02  0.14064858549E+02  0.26154233971E+02  0.00000000000E+00 0.  1.
</event>
<event>
 7    1  0.3884463E-009  0.4778727E+02  0.7816164E-02  0.1312668E+00
        -11   -1    0    0    0    0  0.00000000000E+00  0.00000000000E+00  0.45593999997E+02  0.45594000000E+02  0.51100000000E-03 0.  1.
         11   -1    0    0    0    0 -0.00000000000E+00 -0.00000000000E+00 -0.45593999997E+02  0.45594000000E+02  0.51100000000E-03 0. -1.
    9900012    2    1    2    0    0 -0.14351534619E+02  0.18060747449E+02 -0.36762293469E+02  0.47787269989E+02  0.19999995189E+02 0.  0.
        -12    1    1    2    0    0  0.14351534619E+02 -0.18060747449E+02  0.36762293469E+02  0.43400730011E+02  0.00000000000E+00 0.  1.
         11    1    3    3    0    0 -0.20497970199E+01  0.12033139355E+02 -0.88538126838E+01  0.15079393551E+02  0.51100000000E-03 0. -1.
        -11    1    3    3    0    0 -0.30641558952E+01  0.65549530831E+01 -0.82031564790E+01  0.10938383690E+02  0.51100000000E-03 0.  1.
        -12    1    3    3    0    0 -0.92375817042E+01 -0.52734498965E+00 -0.19705324307E+02  0.21769492748E+02  0.00000000000E+00 0.  1.
</event>
<event>
 7    1  0.3884463E-009  0.4778727E+02  0.7816164E-02  0.1312668E+00
        -11   -1    0    0    0    0  0.00000000000E+00  0.00000000000E+00  0.45593999997E+02  0.45594000000E+02  0.51100000000E-03 0. -1.
         11   -1    0    0    0    0 -0.00000000000E+00 -0.00000000000E+00 -0.45593999997E+02  0.45594000000E+02  0.51100000000E-03 0.  1.
    9900012    2    1    2    0    0 -0.19401703819E+02 -0.38352083254E+02 -0.60261828088E+01  0.47787270971E+02  0.19999999666E+02 0.  0.
        -12    1    1    2    0    0  0.19401703819E+02  0.38352083254E+02  0.60261828088E+01  0.43400729029E+02  0.00000000000E+00 0.  1.
         11    1    3    3    0    0  0.19657815276E+01 -0.30877676383E+01  0.97803723327E+00  0.37888208050E+01  0.51100000000E-03 0. -1.
        -11    1    3    3    0    0 -0.13996031196E+02 -0.25192596984E+02  0.15600979685E+01  0.28861561600E+02  0.51100000000E-03 0.  1.
        -12    1    3    3    0    0 -0.73714541502E+01 -0.10071718632E+02 -0.85643180106E+01  0.15136888567E+02  0.00000000000E+00 0.  1.
</event>
<event>
 7    1  0.3884463E-009  0.4778726E+02  0.7816164E-02  0.1312668E+00
        -11   -1    0    0    0    0  0.00000000000E+00  0.00000000000E+00  0.45593999997E+02  0.45594000000E+02  0.51100000000E-03 0. -1.
         11   -1    0    0    0    0 -0.00000000000E+00 -0.00000000000E+00 -0.45593999997E+02  0.45594000000E+02  0.51100000000E-03 0.  1.
    9900012    2    1    2    0    0  0.24798839812E+02 -0.34848549930E+02 -0.73634172905E+01  0.47787264955E+02  0.19999972234E+02 0.  0.
        -12    1    1    2    0    0 -0.24798839812E+02  0.34848549930E+02  0.73634172905E+01  0.43400735045E+02  0.00000000000E+00 0.  1.
         11    1    3    3    0    0  0.22075816883E+02 -0.17953959228E+02  0.21326994133E+00  0.28455787238E+02  0.51100000000E-03 0. -1.
        -11    1    3    3    0    0 -0.24112707617E+00  0.26929188499E+00 -0.88794800915E-01  0.37221655521E+00  0.51100000000E-03 0.  1.
        -12    1    3    3    0    0  0.29641500058E+01 -0.17163882588E+02 -0.74878924309E+01  0.18959261162E+02  0.00000000000E+00 0.  1.
</event>
<event>
 7    1  0.3884463E-009  0.4778727E+02  0.7816164E-02  0.1312668E+00
        -11   -1    0    0    0    0  0.00000000000E+00  0.00000000000E+00  0.45593999997E+02  0.45594000000E+02  0.51100000000E-03 0. -1.
         11   -1    0    0    0    0 -0.00000000000E+00 -0.00000000000E+00 -0.45593999997E+02  0.45594000000E+02  0.51100000000E-03 0.  1.
    9900012    2    1    2    0    0  0.31544315324E+02  0.28877861441E+02  0.73924619426E+01  0.47787271846E+02  0.20000003657E+02 0.  0.
        -12    1    1    2    0    0 -0.31544315324E+02 -0.28877861441E+02 -0.73924619426E+01  0.43400728154E+02  0.00000000000E+00 0.  1.
         11    1    3    3    0    0  0.11789293201E+02  0.46103342154E+01 -0.51043008623E+01  0.13649047707E+02  0.51100000000E-03 0. -1.
        -11    1    3    3    0    0  0.22767100620E+01  0.18208841983E+01 -0.32506793915E+00  0.29333764498E+01  0.51100000000E-03 0.  1.
        -12    1    3    3    0    0  0.17478312062E+02  0.22446643027E+02  0.12821830744E+02  0.31204847690E+02  0.00000000000E+00 0.  1.
</event>
<event>
 7    1  0.3884463E-009  0.4778727E+02  0.7816164E-02  0.1312668E+00
        -11   -1    0    0    0    0  0.00000000000E+00  0.00000000000E+00  0.45593999997E+02  0.45594000000E+02  0.51100000000E-03 0. -1.
         11   -1    0    0    0    0 -0.00000000000E+00 -0.00000000000E+00 -0.45593999997E+02  0.45594000000E+02  0.51100000000E-03 0.  1.
    9900012    2    1    2    0    0 -0.11829296382E+02  0.90481706328E+01  0.40765446227E+02  0.47787271311E+02  0.20000001215E+02 0.  0.
        -12    1    1    2    0    0  0.11829296382E+02 -0.90481706328E+01 -0.40765446227E+02  0.43400728689E+02  0.00000000000E+00 0.  1.
         11    1    3    3    0    0 -0.58145984582E+01  0.30740331406E+01  0.10569037766E+02  0.12448445467E+02  0.51100000000E-03 0. -1.
        -11    1    3    3    0    0 -0.79302581800E+01 -0.18693574560E+01  0.68793718896E+01  0.10663453941E+02  0.51100000000E-03 0.  1.
        -12    1    3    3    0    0  0.19155602564E+01  0.78434949482E+01  0.23317036571E+02  0.24675371903E+02  0.00000000000E+00 0.  1.
</event>
<event>
 7    1  0.3884463E-009  0.4778727E+02  0.7816164E-02  0.1312668E+00
        -11   -1    0    0    0    0  0.00000000000E+00  0.00000000000E+00  0.45593999997E+02  0.45594000000E+02  0.51100000000E-03 0.  1.
         11   -1    0    0    0    0 -0.00000000000E+00 -0.00000000000E+00 -0.45593999997E+02  0.45594000000E+02  0.51100000000E-03 0. -1.
    9900012    2    1    2    0    0  0.12252861874E+01 -0.43245231075E+02 -0.34600440082E+01  0.47787271417E+02  0.20000001700E+02 0.  0.
        -12    1    1    2    0    0 -0.12252861874E+01  0.43245231075E+02  0.34600440082E+01  0.43400728583E+02  0.00000000000E+00 0.  1.
         11    1    3    3    0    0 -0.60766032452E-01 -0.21111025736E+02 -0.41208173684E+01  0.21509538261E+02  0.51100000000E-03 0. -1.
        -11    1    3    3    0    0  0.60168092617E+01 -0.17360399811E+02 -0.30121601081E+01  0.18618769671E+02  0.51100000000E-03 0.  1.
         12    1    3    3    0    0 -0.47307570419E+01 -0.47738055277E+01  0.36729334683E+01  0.76589634853E+01  0.00000000000E+00 0. -1.
</event>
<event>
 7    1  0.3884463E-009  0.4778727E+02  0.7816164E-02  0.1312668E+00
        -11   -1    0    0    0    0  0.00000000000E+00  0.00000000000E+00  0.45593999997E+02  0.45594000000E+02  0.51100000000E-03 0.  1.
         11   -1    0    0    0    0 -0.00000000000E+00 -0.00000000000E+00 -0.45593999997E+02  0.45594000000E+02  0.51100000000E-03 0. -1.
    9900012    2    1    2    0    0  0.34002071494E+02  0.11130987032E+02 -0.24567938880E+02  0.47787270064E+02  0.19999995529E+02 0.  0.
        -12    1    1    2    0    0 -0.34002071494E+02 -0.11130987032E+02  0.24567938880E+02  0.43400729936E+02  0.00000000000E+00 0.  1.
         11    1    3    3    0    0  0.44098005428E+01  0.60616082303E+00  0.30081609791E+00  0.44614193208E+01  0.51100000000E-03 0. -1.
        -11    1    3    3    0    0  0.41243027102E+01  0.41506994328E+00  0.22985285384E+01  0.47397668304E+01  0.51100000000E-03 0.  1.
         12    1    3    3    0    0  0.25467968241E+02  0.10109756265E+02 -0.27167283516E+02  0.38586083913E+02  0.00000000000E+00 0. -1.
</event>
<event>
 7    1  0.3884463E-009  0.4778727E+02  0.7816164E-02  0.1312668E+00
        -11   -1    0    0    0    0  0.00000000000E+00  0.00000000000E+00  0.45593999997E+02  0.45594000000E+02  0.51100000000E-03 0.  1.
         11   -1    0    0    0    0 -0.00000000000E+00 -0.00000000000E+00 -0.45593999997E+02  0.45594000000E+02  0.51100000000E-03 0. -1.
    9900012    2    1    2    0    0 -0.37954121982E+02 -0.18094163003E+02 -0.10756804884E+02  0.47787274643E+02  0.20000016409E+02 0.  0.
        -12    1    1    2    0    0  0.37954121982E+02  0.18094163003E+02  0.10756804884E+02  0.43400725357E+02  0.00000000000E+00 0.  1.
         11    1    3    3    0    0 -0.25002290663E+02 -0.71276277287E+01 -0.17272489968E+01  0.26055728829E+02  0.51100000000E-03 0.  1.
        -11    1    3    3    0    0 -0.78593975370E+01 -0.89184702448E+01 -0.89849320642E+00  0.11921263836E+02  0.51100000000E-03 0. -1.
        -12    1    3    3    0    0 -0.50924337818E+01 -0.20480650295E+01 -0.81310626804E+01  0.98102819786E+01  0.00000000000E+00 0.  1.
</event>
<event>
 7    1  0.3884463E-009  0.4778728E+02  0.7816164E-02  0.1312668E+00
        -11   -1    0    0    0    0  0.00000000000E+00  0.00000000000E+00  0.45593999997E+02  0.45594000000E+02  0.51100000000E-03 0.  1.
         11   -1    0    0    0    0 -0.00000000000E+00 -0.00000000000E+00 -0.45593999997E+02  0.45594000000E+02  0.51100000000E-03 0. -1.
    9900012    2    1    2    0    0  0.35171089806E+02  0.22335921088E+02 -0.12154173479E+02  0.47787275790E+02  0.20000021637E+02 0.  0.
        -12    1    1    2    0    0 -0.35171089806E+02 -0.22335921088E+02  0.12154173479E+02  0.43400724210E+02  0.00000000000E+00 0.  1.
         11    1    3    3    0    0  0.32870963886E+02  0.17125613668E+02 -0.15668176799E+02  0.40240261862E+02  0.51100000000E-03 0. -1.
        -11    1    3    3    0    0  0.48665652709E+00 -0.41500309695E+00  0.85059943651E+00  0.10642282689E+01  0.51100000000E-03 0.  1.
         12    1    3    3    0    0  0.18134693930E+01  0.56253105169E+01  0.26634038831E+01  0.64827856586E+01  0.00000000000E+00 0. -1.
</event>
<event>
 7    1  0.3884463E-009  0.4778727E+02  0.7816164E-02  0.1312668E+00
        -11   -1    0    0    0    0  0.00000000000E+00  0.00000000000E+00  0.45593999997E+02  0.45594000000E+02  0.51100000000E-03 0. -1.
         11   -1    0    0    0    0 -0.00000000000E+00 -0.00000000000E+00 -0.45593999997E+02  0.45594000000E+02  0.51100000000E-03 0.  1.
    9900012    2    1    2    0    0 -0.27195602216E+02 -0.19940460061E+01  0.33764569852E+02  0.47787272165E+02  0.20000005107E+02 0.  0.
        -12    1    1    2    0    0  0.27195602216E+02  0.19940460061E+01 -0.33764569852E+02  0.43400727835E+02  0.00000000000E+00 0.  1.
         11    1    3    3    0    0 -0.62262532531E+00 -0.16258075774E+01  0.35263055427E+01  0.39326509655E+01  0.51100000000E-03 0. -1.
        -11    1    3    3    0    0 -0.59927260162E+01 -0.78214603439E+01  0.86533496151E+01  0.13113674803E+02  0.51100000000E-03 0.  1.
         12    1    3    3    0    0 -0.20580250874E+02  0.74532219153E+01  0.21584914694E+02  0.30740946396E+02  0.00000000000E+00 0. -1.
</event>
<event>
 7    1  0.3884463E-009  0.4778727E+02  0.7816164E-02  0.1312668E+00
        -11   -1    0    0    0    0  0.00000000000E+00  0.00000000000E+00  0.45593999997E+02  0.45594000000E+02  0.51100000000E-03 0.  1.
         11   -1    0    0    0    0 -0.00000000000E+00 -0.00000000000E+00 -0.45593999997E+02  0.45594000000E+02  0.51100000000E-03 0. -1.
    9900012    2    1    2    0    0 -0.28797364092E+02 -0.26618921657E+01 -0.32361238019E+02  0.47787267579E+02  0.19999984200E+02 0.  0.
        -12    1    1    2    0    0  0.28797364092E+02  0.26618921657E+01  0.32361238019E+02  0.43400732421E+02  0.00000000000E+00 0.  1.
         11    1    3    3    0    0 -0.94408335357E+01  0.57907353328E+01 -0.12996637390E+02  0.17075553790E+02  0.51100000000E-03 0. -1.
        -11    1    3    3    0    0 -0.74769936358E+01  0.18965970884E+01 -0.39351644286E+01  0.86595631349E+01  0.51100000000E-03 0.  1.
        -12    1    3    3    0    0 -0.11879536920E+02 -0.10349224587E+02 -0.15429436201E+02  0.22052150654E+02  0.00000000000E+00 0.  1.
</event>
<event>
 7    1  0.3884463E-009  0.4778727E+02  0.7816164E-02  0.1312668E+00
        -11   -1    0    0    0    0  0.00000000000E+00  0.00000000000E+00  0.45593999997E+02  0.45594000000E+02  0.51100000000E-03 0.  1.
         11   -1    0    0    0    0 -0.00000000000E+00 -0.00000000000E+00 -0.45593999997E+02  0.45594000000E+02  0.51100000000E-03 0. -1.
    9900012    2    1    2    0    0  0.14251299033E+02  0.24102795789E+02 -0.33159899692E+02  0.47787271474E+02  0.20000001961E+02 0.  0.
        -12    1    1    2    0    0 -0.14251299033E+02 -0.24102795789E+02  0.33159899692E+02  0.43400728526E+02  0.00000000000E+00 0.  1.
         11    1    3    3    0    0  0.13389861938E+02  0.75592654967E+01 -0.13139289126E+02  0.20225523888E+02  0.51100000000E-03 0. -1.
        -11    1    3    3    0    0  0.25224359628E+01  0.28788510965E+01 -0.94823868279E+01  0.10225758018E+02  0.51100000000E-03 0.  1.
        -12    1    3    3    0    0 -0.16609988679E+01  0.13664679196E+02 -0.10538223738E+02  0.17335989569E+02  0.00000000000E+00 0.  1.
</event>
<event>
 7    1  0.3884463E-009  0.4778727E+02  0.7816164E-02  0.1312668E+00
        -11   -1    0    0    0    0  0.00000000000E+00  0.00000000000E+00  0.45593999997E+02  0.45594000000E+02  0.51100000000E-03 0.  1.
         11   -1    0    0    0    0 -0.00000000000E+00 -0.00000000000E+00 -0.45593999997E+02  0.45594000000E+02  0.51100000000E-03 0. -1.
    9900012    2    1    2    0    0 -0.13185762439E+02  0.22959793379E+02 -0.34389049028E+02  0.47787272631E+02  0.20000007234E+02 0.  0.
        -12    1    1    2    0    0  0.13185762439E+02 -0.22959793379E+02  0.34389049028E+02  0.43400727369E+02  0.00000000000E+00 0.  1.
         11    1    3    3    0    0  0.36651956179E+01  0.87591090282E+01 -0.92635143267E+01  0.13265306172E+02  0.51100000000E-03 0.  1.
        -11    1    3    3    0    0 -0.10151754489E+02  0.13567732288E+02 -0.17956293431E+02  0.24689470482E+02  0.51100000000E-03 0. -1.
        -12    1    3    3    0    0 -0.66992035675E+01  0.63295206316E+00 -0.71692412707E+01  0.98324959777E+01  0.00000000000E+00 0.  1.
</event>
<event>
 7    1  0.3884463E-009  0.4778727E+02  0.7816164E-02  0.1312668E+00
        -11   -1    0    0    0    0  0.00000000000E+00  0.00000000000E+00  0.45593999997E+02  0.45594000000E+02  0.51100000000E-03 0. -1.
         11   -1    0    0    0    0 -0.00000000000E+00 -0.00000000000E+00 -0.45593999997E+02  0.45594000000E+02  0.51100000000E-03 0.  1.
    9900012    2    1    2    0    0  0.42433357994E+02  0.64546944833E+01  0.64319893933E+01  0.47787269141E+02  0.19999991322E+02 0.  0.
        -12    1    1    2    0    0 -0.42433357994E+02 -0.64546944833E+01 -0.64319893933E+01  0.43400730859E+02  0.00000000000E+00 0.  1.
         11    1    3    3    0    0  0.16215003877E+02 -0.40643103879E+01 -0.40455121471E+01  0.17199160982E+02  0.51100000000E-03 0. -1.
        -11    1    3    3    0    0  0.17302133388E+01  0.21484956083E+01  0.17952732095E+01  0.32913033489E+01  0.51100000000E-03 0.  1.
         12    1    3    3    0    0  0.24488140778E+02  0.83705092629E+01  0.86822283309E+01  0.27296804811E+02  0.00000000000E+00 0. -1.
</event>
<event>
 7    1  0.3884463E-009  0.4778727E+02  0.7816164E-02  0.1312668E+00
        -11   -1    0    0    0    0  0.00000000000E+00  0.00000000000E+00  0.45593999997E+02  0.45594000000E+02  0.51100000000E-03 0.  1.
         11   -1    0    0    0    0 -0.00000000000E+00 -0.00000000000E+00 -0.45593999997E+02  0.45594000000E+02  0.51100000000E-03 0. -1.
    9900012    2    1    2    0    0  0.36457317343E+02  0.46967569623E+01 -0.23074390199E+02  0.47787274235E+02  0.20000014549E+02 0.  0.
        -12    1    1    2    0    0 -0.36457317343E+02 -0.46967569623E+01  0.23074390199E+02  0.43400725765E+02  0.00000000000E+00 0.  1.
         11    1    3    3    0    0  0.37787826950E+01 -0.25584995782E+01  0.11268312149E+01  0.47005178008E+01  0.51100000000E-03 0. -1.
        -11    1    3    3    0    0  0.94206893956E+01 -0.21863791900E+01 -0.27137293917E+01  0.10044599052E+02  0.51100000000E-03 0.  1.
         12    1    3    3    0    0  0.23257845252E+02  0.94416357305E+01 -0.21487492023E+02  0.33042157382E+02  0.00000000000E+00 0. -1.
</event>
<event>
 7    1  0.3884463E-009  0.4778727E+02  0.7816164E-02  0.1312668E+00
        -11   -1    0    0    0    0  0.00000000000E+00  0.00000000000E+00  0.45593999997E+02  0.45594000000E+02  0.51100000000E-03 0.  1.
         11   -1    0    0    0    0 -0.00000000000E+00 -0.00000000000E+00 -0.45593999997E+02  0.45594000000E+02  0.51100000000E-03 0. -1.
    9900012    2    1    2    0    0  0.17828240822E+02  0.30477724402E+02 -0.25236588459E+02  0.47787271290E+02  0.20000001121E+02 0.  0.
        -12    1    1    2    0    0 -0.17828240822E+02 -0.30477724402E+02  0.25236588459E+02  0.43400728710E+02  0.00000000000E+00 0.  1.
         11    1    3    3    0    0  0.13199108469E+02  0.17756331844E+02 -0.84153344998E+01  0.23671114041E+02  0.51100000000E-03 0. -1.
        -11    1    3    3    0    0  0.56708251137E+01  0.17024672664E+01 -0.38403207468E+01  0.70572456357E+01  0.51100000000E-03 0.  1.
         12    1    3    3    0    0 -0.10416927614E+01  0.11018925291E+02 -0.12980933212E+02  0.17058911613E+02  0.00000000000E+00 0. -1.
</event>
<event>
 7    1  0.3884463E-009  0.4778727E+02  0.7816164E-02  0.1312668E+00
        -11   -1    0    0    0    0  0.00000000000E+00  0.00000000000E+00  0.45593999997E+02  0.45594000000E+02  0.51100000000E-03 0.  1.
         11   -1    0    0    0    0 -0.00000000000E+00 -0.00000000000E+00 -0.45593999997E+02  0.45594000000E+02  0.51100000000E-03 0. -1.
    9900012    2    1    2    0    0 -0.15035006132E+02 -0.36848961528E+02  0.17312593235E+02  0.47787271209E+02  0.20000000751E+02 0.  0.
        -12    1    1    2    0    0  0.15035006132E+02  0.36848961528E+02 -0.17312593235E+02  0.43400728791E+02  0.00000000000E+00 0.  1.
         11    1    3    3    0    0 -0.49308048780E+01 -0.12820634876E+02  0.16488056313E+01  0.13834741618E+02  0.51100000000E-03 0. -1.
        -11    1    3    3    0    0  0.15589086004E+01 -0.15462597900E+02  0.66489720394E+01  0.16903578298E+02  0.51100000000E-03 0.  1.
        -12    1    3    3    0    0 -0.11663109855E+02 -0.85657287515E+01  0.90148155641E+01  0.17048951293E+02  0.00000000000E+00 0.  1.
</event>
<event>
 7    1  0.3884463E-009  0.4778727E+02  0.7816164E-02  0.1312668E+00
        -11   -1    0    0    0    0  0.00000000000E+00  0.00000000000E+00  0.45593999997E+02  0.45594000000E+02  0.51100000000E-03 0.  1.
         11   -1    0    0    0    0 -0.00000000000E+00 -0.00000000000E+00 -0.45593999997E+02  0.45594000000E+02  0.51100000000E-03 0. -1.
    9900012    2    1    2    0    0  0.11609430364E+02 -0.41637623800E+02 -0.38926569748E+01  0.47787269967E+02  0.19999995087E+02 0.  0.
        -12    1    1    2    0    0 -0.11609430364E+02  0.41637623800E+02  0.38926569748E+01  0.43400730033E+02  0.00000000000E+00 0.  1.
         11    1    3    3    0    0  0.37483681038E+00 -0.58886300624E-01 -0.16546249918E+00  0.41394242423E+00  0.51100000000E-03 0. -1.
        -11    1    3    3    0    0  0.44051780820E+01 -0.92803524433E+00 -0.41904389249E+01  0.61503351122E+01  0.51100000000E-03 0.  1.
         12    1    3    3    0    0  0.68294154712E+01 -0.40650702255E+02  0.46324444924E+00  0.41222992431E+02  0.00000000000E+00 0. -1.
</event>
<event>
 7    1  0.3884463E-009  0.4778727E+02  0.7816164E-02  0.1312668E+00
        -11   -1    0    0    0    0  0.00000000000E+00  0.00000000000E+00  0.45593999997E+02  0.45594000000E+02  0.51100000000E-03 0.  1.
         11   -1    0    0    0    0 -0.00000000000E+00 -0.00000000000E+00 -0.45593999997E+02  0.45594000000E+02  0.51100000000E-03 0. -1.
    9900012    2    1    2    0    0  0.21232870170E+02  0.50532011839E+01 -0.37513375763E+02  0.47787274442E+02  0.20000015491E+02 0.  0.
        -12    1    1    2    0    0 -0.21232870170E+02 -0.50532011839E+01  0.37513375763E+02  0.43400725558E+02  0.00000000000E+00 0.  1.
         11    1    3    3    0    0  0.14900246802E+02  0.13968880868E+01 -0.28574250136E+02  0.32256106742E+02  0.51100000000E-03 0. -1.
        -11    1    3    3    0    0  0.88614571939E+01  0.42083155383E+01 -0.83361342792E+01  0.12873479648E+02  0.51100000000E-03 0.  1.
         12    1    3    3    0    0 -0.25288338259E+01 -0.55200244120E+00 -0.60299134729E+00  0.26576880515E+01  0.00000000000E+00 0. -1.
</event>
<event>
 7    1  0.3884463E-009  0.4778727E+02  0.7816164E-02  0.1312668E+00
        -11   -1    0    0    0    0  0.00000000000E+00  0.00000000000E+00  0.45593999997E+02  0.45594000000E+02  0.51100000000E-03 0. -1.
         11   -1    0    0    0    0 -0.00000000000E+00 -0.00000000000E+00 -0.45593999997E+02  0.45594000000E+02  0.51100000000E-03 0.  1.
    9900012    2    1    2    0    0  0.35717169808E+02  0.11968329053E+02  0.21556110203E+02  0.47787274125E+02  0.20000014045E+02 0.  0.
        -12    1    1    2    0    0 -0.35717169808E+02 -0.11968329053E+02 -0.21556110203E+02  0.43400725875E+02  0.00000000000E+00 0.  1.
         11    1    3    3    0    0  0.11186902213E+02  0.12645563633E+02  0.87825678783E+01  0.19031304725E+02  0.51100000000E-03 0. -1.
        -11    1    3    3    0    0  0.36743597428E+01 -0.30280353142E+01  0.19991320152E+01  0.51639564734E+01  0.51100000000E-03 0.  1.
        -12    1    3    3    0    0  0.20855907851E+02  0.23508007336E+01  0.10774410310E+02  0.23592012926E+02  0.00000000000E+00 0.  1.
</event>
<event>
 7    1  0.3884463E-009  0.4778727E+02  0.7816164E-02  0.1312668E+00
        -11   -1    0    0    0    0  0.00000000000E+00  0.00000000000E+00  0.45593999997E+02  0.45594000000E+02  0.51100000000E-03 0.  1.
         11   -1    0    0    0    0 -0.00000000000E+00 -0.00000000000E+00 -0.45593999997E+02  0.45594000000E+02  0.51100000000E-03 0. -1.
    9900012    2    1    2    0    0 -0.33250365175E+02  0.24890093865E+02 -0.12590458309E+02  0.47787271926E+02  0.20000004020E+02 0.  0.
        -12    1    1    2    0    0  0.33250365175E+02 -0.24890093865E+02  0.12590458309E+02  0.43400728074E+02  0.00000000000E+00 0.  1.
         11    1    3    3    0    0 -0.10770370062E+01  0.58390342578E+01 -0.24964556306E+01  0.64410108488E+01  0.51100000000E-03 0. -1.
        -11    1    3    3    0    0 -0.48926777654E+01  0.80659561347E+01  0.18333213436E+01  0.96103595923E+01  0.51100000000E-03 0.  1.
         12    1    3    3    0    0 -0.27280650403E+02  0.10985103473E+02 -0.11927324022E+02  0.31735901485E+02  0.00000000000E+00 0. -1.
</event>
<event>
 7    1  0.3884463E-009  0.4778728E+02  0.7816164E-02  0.1312668E+00
        -11   -1    0    0    0    0  0.00000000000E+00  0.00000000000E+00  0.45593999997E+02  0.45594000000E+02  0.51100000000E-03 0. -1.
         11   -1    0    0    0    0 -0.00000000000E+00 -0.00000000000E+00 -0.45593999997E+02  0.45594000000E+02  0.51100000000E-03 0.  1.
    9900012    2    1    2    0    0  0.76099458251E+01 -0.38329690544E+02 -0.18882437253E+02  0.47787275475E+02  0.20000020200E+02 0.  0.
        -12    1    1    2    0    0 -0.76099458251E+01  0.38329690544E+02  0.18882437253E+02  0.43400724525E+02  0.00000000000E+00 0.  1.
         11    1    3    3    0    0  0.51943938081E+01 -0.10986563416E+02 -0.93871044679E+01  0.15355911998E+02  0.51100000000E-03 0. -1.
        -11    1    3    3    0    0  0.41727199067E-01 -0.25128501410E+01 -0.69116844559E+01  0.73544231093E+01  0.51100000000E-03 0.  1.
        -12    1    3    3    0    0  0.23738248179E+01 -0.24830276987E+02 -0.25836483296E+01  0.25076940368E+02  0.00000000000E+00 0.  1.
</event>
<event>
 7    1  0.3884463E-009  0.4778727E+02  0.7816164E-02  0.1312668E+00
        -11   -1    0    0    0    0  0.00000000000E+00  0.00000000000E+00  0.45593999997E+02  0.45594000000E+02  0.51100000000E-03 0.  1.
         11   -1    0    0    0    0 -0.00000000000E+00 -0.00000000000E+00 -0.45593999997E+02  0.45594000000E+02  0.51100000000E-03 0. -1.
    9900012    2    1    2    0    0  0.24664864647E+02  0.26941153241E+02 -0.23440179330E+02  0.47787270824E+02  0.19999998993E+02 0.  0.
        -12    1    1    2    0    0 -0.24664864647E+02 -0.26941153241E+02  0.23440179330E+02  0.43400729176E+02  0.00000000000E+00 0.  1.
         11    1    3    3    0    0  0.68896279801E+00  0.94585975111E+01 -0.63318415157E+01  0.11403155434E+02  0.51100000000E-03 0. -1.
        -11    1    3    3    0    0 -0.60334577827E+00 -0.75726363532E+00 -0.20621226741E+01  0.22781186373E+01  0.51100000000E-03 0.  1.
         12    1    3    3    0    0  0.24579247627E+02  0.18239819365E+02 -0.15046215140E+02  0.34105996752E+02  0.00000000000E+00 0. -1.
</event>
<event>
 7    1  0.3884463E-009  0.4778727E+02  0.7816164E-02  0.1312668E+00
        -11   -1    0    0    0    0  0.00000000000E+00  0.00000000000E+00  0.45593999997E+02  0.45594000000E+02  0.51100000000E-03 0.  1.
         11   -1    0    0    0    0 -0.00000000000E+00 -0.00000000000E+00 -0.45593999997E+02  0.45594000000E+02  0.51100000000E-03 0. -1.
    9900012    2    1    2    0    0  0.30920879738E+02  0.20082290464E+02 -0.22895933228E+02  0.47787274747E+02  0.20000016883E+02 0.  0.
        -12    1    1    2    0    0 -0.30920879738E+02 -0.20082290464E+02  0.22895933228E+02  0.43400725253E+02  0.00000000000E+00 0.  1.
         11    1    3    3    0    0  0.15995764159E+02  0.89421094807E+01 -0.72324513308E+01  0.19701120413E+02  0.51100000000E-03 0. -1.
        -11    1    3    3    0    0  0.86547788994E+01  0.13180809015E+02 -0.71393360937E+01  0.17309218475E+02  0.51100000000E-03 0.  1.
        -12    1    3    3    0    0  0.62703366798E+01 -0.20406280320E+01 -0.85241458040E+01  0.10776935860E+02  0.00000000000E+00 0.  1.
</event>
<event>
 7    1  0.3884463E-009  0.4778727E+02  0.7816164E-02  0.1312668E+00
        -11   -1    0    0    0    0  0.00000000000E+00  0.00000000000E+00  0.45593999997E+02  0.45594000000E+02  0.51100000000E-03 0.  1.
         11   -1    0    0    0    0 -0.00000000000E+00 -0.00000000000E+00 -0.45593999997E+02  0.45594000000E+02  0.51100000000E-03 0. -1.
    9900012    2    1    2    0    0 -0.94826479139E+01 -0.11546168989E+00 -0.42351972067E+02  0.47787268660E+02  0.19999989130E+02 0.  0.
        -12    1    1    2    0    0  0.94826479139E+01  0.11546168989E+00  0.42351972067E+02  0.43400731340E+02  0.00000000000E+00 0.  1.
         11    1    3    3    0    0  0.29773141810E+01 -0.21645197188E+01 -0.81442009571E+01  0.89374243961E+01  0.51100000000E-03 0. -1.
        -11    1    3    3    0    0 -0.70384338677E+01 -0.48515191590E+01 -0.23493462915E+02  0.25000391786E+02  0.51100000000E-03 0.  1.
        -12    1    3    3    0    0 -0.54215282272E+01  0.69005771879E+01 -0.10714308195E+02  0.13849452478E+02  0.00000000000E+00 0.  1.
</event>
<event>
 7    1  0.3884463E-009  0.4778727E+02  0.7816164E-02  0.1312668E+00
        -11   -1    0    0    0    0  0.00000000000E+00  0.00000000000E+00  0.45593999997E+02  0.45594000000E+02  0.51100000000E-03 0.  1.
         11   -1    0    0    0    0 -0.00000000000E+00 -0.00000000000E+00 -0.45593999997E+02  0.45594000000E+02  0.51100000000E-03 0. -1.
    9900012    2    1    2    0    0  0.13125777892E+02 -0.11352314928E+02 -0.39780176471E+02  0.47787267984E+02  0.19999986045E+02 0.  0.
        -12    1    1    2    0    0 -0.13125777892E+02  0.11352314928E+02  0.39780176471E+02  0.43400732016E+02  0.00000000000E+00 0.  1.
         11    1    3    3    0    0  0.67188533180E+00 -0.93382714338E+01 -0.18563233033E+02  0.20790583546E+02  0.51100000000E-03 0. -1.
        -11    1    3    3    0    0 -0.14681524201E+01  0.16485732663E+01 -0.38603630664E+01  0.44469842150E+01  0.51100000000E-03 0.  1.
         12    1    3    3    0    0  0.13922044980E+02 -0.36626167602E+01 -0.17356580371E+02  0.22549700223E+02  0.00000000000E+00 0. -1.
</event>
<event>
 7    1  0.3884463E-009  0.4778727E+02  0.7816164E-02  0.1312668E+00
        -11   -1    0    0    0    0  0.00000000000E+00  0.00000000000E+00  0.45593999997E+02  0.45594000000E+02  0.51100000000E-03 0.  1.
         11   -1    0    0    0    0 -0.00000000000E+00 -0.00000000000E+00 -0.45593999997E+02  0.45594000000E+02  0.51100000000E-03 0. -1.
    9900012    2    1    2    0    0  0.42643322694E+02 -0.41579276938E+01 -0.69196817773E+01  0.47787270409E+02  0.19999997103E+02 0.  0.
        -12    1    1    2    0    0 -0.42643322694E+02  0.41579276938E+01  0.69196817773E+01  0.43400729591E+02  0.00000000000E+00 0.  1.
         11    1    3    3    0    0  0.26880167170E+01  0.15728938025E+01  0.44907386038E+00  0.31466007656E+01  0.51100000000E-03 0. -1.
        -11    1    3    3    0    0  0.50940076664E+01  0.41091388931E+01 -0.51881396445E+01  0.83516902349E+01  0.51100000000E-03 0.  1.
         12    1    3    3    0    0  0.34861298311E+02 -0.98399603895E+01 -0.21806159932E+01  0.36288979408E+02  0.00000000000E+00 0. -1.
</event>
<event>
 7    1  0.3884463E-009  0.4778727E+02  0.7816164E-02  0.1312668E+00
        -11   -1    0    0    0    0  0.00000000000E+00  0.00000000000E+00  0.45593999997E+02  0.45594000000E+02  0.51100000000E-03 0. -1.
         11   -1    0    0    0    0 -0.00000000000E+00 -0.00000000000E+00 -0.45593999997E+02  0.45594000000E+02  0.51100000000E-03 0.  1.
    9900012    2    1    2    0    0 -0.32223207622E+02  0.28218321400E+02  0.70010653196E+01  0.47787266277E+02  0.19999978265E+02 0.  0.
        -12    1    1    2    0    0  0.32223207622E+02 -0.28218321400E+02 -0.70010653196E+01  0.43400733723E+02  0.00000000000E+00 0.  1.
         11    1    3    3    0    0 -0.22057712734E+02  0.22411614623E+02  0.88744399934E+01  0.32673825098E+02  0.51100000000E-03 0. -1.
        -11    1    3    3    0    0 -0.71679228800E+01  0.42879418674E+01  0.32698069882E+01  0.89697938590E+01  0.51100000000E-03 0.  1.
        -12    1    3    3    0    0 -0.29975720076E+01  0.15187649095E+01 -0.51431816621E+01  0.61436473207E+01  0.00000000000E+00 0.  1.
</event>
<event>
 7    1  0.3884463E-009  0.4778721E+02  0.7816164E-02  0.1312668E+00
        -11   -1    0    0    0    0  0.00000000000E+00  0.00000000000E+00  0.45593999997E+02  0.45594000000E+02  0.51100000000E-03 0.  1.
         11   -1    0    0    0    0 -0.00000000000E+00 -0.00000000000E+00 -0.45593999997E+02  0.45594000000E+02  0.51100000000E-03 0. -1.
    9900012    2    1    2    0    0  0.14703284252E+02  0.40738625219E+02 -0.27939375906E+01  0.47787213835E+02  0.19999739156E+02 0.  0.
        -12    1    1    2    0    0 -0.14703284252E+02 -0.40738625219E+02  0.27939375906E+01  0.43400786165E+02  0.00000000000E+00 0.  1.
         11    1    3    3    0    0  0.37381607824E+01  0.18880496291E+02  0.16100833863E+01  0.19314226751E+02  0.51100000000E-03 0. -1.
        -11    1    3    3    0    0 -0.23716772036E+01  0.79179162473E+01 -0.39849624576E+01  0.91759564356E+01  0.51100000000E-03 0.  1.
        -12    1    3    3    0    0  0.13336800673E+02  0.13940212680E+02 -0.41905851924E+00  0.19297030648E+02  0.00000000000E+00 0.  1.
</event>
<event>
 7    1  0.3884463E-009  0.4778727E+02  0.7816164E-02  0.1312668E+00
        -11   -1    0    0    0    0  0.00000000000E+00  0.00000000000E+00  0.45593999997E+02  0.45594000000E+02  0.51100000000E-03 0.  1.
         11   -1    0    0    0    0 -0.00000000000E+00 -0.00000000000E+00 -0.45593999997E+02  0.45594000000E+02  0.51100000000E-03 0. -1.
    9900012    2    1    2    0    0 -0.11097506026E+02  0.26801727767E+02 -0.32282129615E+02  0.47787272544E+02  0.20000006835E+02 0.  0.
        -12    1    1    2    0    0  0.11097506026E+02 -0.26801727767E+02  0.32282129615E+02  0.43400727456E+02  0.00000000000E+00 0.  1.
         11    1    3    3    0    0 -0.90587466408E+01  0.14053193506E+02 -0.90444087107E+01  0.19009325806E+02  0.51100000000E-03 0. -1.
        -11    1    3    3    0    0 -0.88047648865E+00  0.95566742455E+01 -0.62468986345E+01  0.11451157334E+02  0.51100000000E-03 0.  1.
        -12    1    3    3    0    0 -0.11582828963E+01  0.31918600153E+01 -0.16990822270E+02  0.17326789403E+02  0.00000000000E+00 0.  1.
</event>
<event>
 7    1  0.3884463E-009  0.4778727E+02  0.7816164E-02  0.1312668E+00
        -11   -1    0    0    0    0  0.00000000000E+00  0.00000000000E+00  0.45593999997E+02  0.45594000000E+02  0.51100000000E-03 0.  1.
         11   -1    0    0    0    0 -0.00000000000E+00 -0.00000000000E+00 -0.45593999997E+02  0.45594000000E+02  0.51100000000E-03 0. -1.
    9900012    2    1    2    0    0  0.89221021887E+01  0.31483157478E+02 -0.28510181672E+02  0.47787267619E+02  0.19999984380E+02 0.  0.
        -12    1    1    2    0    0 -0.89221021887E+01 -0.31483157478E+02  0.28510181672E+02  0.43400732381E+02  0.00000000000E+00 0.  1.
         11    1    3    3    0    0  0.96528136705E+01  0.11155978075E+02 -0.19703874416E+02  0.24614534849E+02  0.51100000000E-03 0. -1.
        -11    1    3    3    0    0 -0.19989276428E+01  0.17486697120E+01 -0.20800191698E+01  0.33734311154E+01  0.51100000000E-03 0.  1.
         12    1    3    3    0    0  0.12682161609E+01  0.18578509691E+02 -0.67262880865E+01  0.19799301654E+02  0.00000000000E+00 0. -1.
</event>
<event>
 7    1  0.3884463E-009  0.4778727E+02  0.7816164E-02  0.1312668E+00
        -11   -1    0    0    0    0  0.00000000000E+00  0.00000000000E+00  0.45593999997E+02  0.45594000000E+02  0.51100000000E-03 0.  1.
         11   -1    0    0    0    0 -0.00000000000E+00 -0.00000000000E+00 -0.45593999997E+02  0.45594000000E+02  0.51100000000E-03 0. -1.
    9900012    2    1    2    0    0  0.25065976561E+02 -0.27611541736E+02 -0.22201865855E+02  0.47787271141E+02  0.20000000440E+02 0.  0.
        -12    1    1    2    0    0 -0.25065976561E+02  0.27611541736E+02  0.22201865855E+02  0.43400728859E+02  0.00000000000E+00 0.  1.
         11    1    3    3    0    0  0.60828503785E+01 -0.51833753422E+01 -0.60483246658E+01  0.10022508678E+02  0.51100000000E-03 0. -1.
        -11    1    3    3    0    0  0.20952101799E+01 -0.14595092705E+02 -0.32071144833E+01  0.15089473826E+02  0.51100000000E-03 0.  1.
        -12    1    3    3    0    0  0.16887916003E+02 -0.78330736888E+01 -0.12946426706E+02  0.22675288638E+02  0.00000000000E+00 0.  1.
</event>
<event>
 7    1  0.3884463E-009  0.4778727E+02  0.7816164E-02  0.1312668E+00
        -11   -1    0    0    0    0  0.00000000000E+00  0.00000000000E+00  0.45593999997E+02  0.45594000000E+02  0.51100000000E-03 0.  1.
         11   -1    0    0    0    0 -0.00000000000E+00 -0.00000000000E+00 -0.45593999997E+02  0.45594000000E+02  0.51100000000E-03 0. -1.
    9900012    2    1    2    0    0 -0.37619677259E+02  0.10051370699E+01 -0.21618808540E+02  0.47787270740E+02  0.19999998611E+02 0.  0.
        -12    1    1    2    0    0  0.37619677259E+02 -0.10051370699E+01  0.21618808540E+02  0.43400729260E+02  0.00000000000E+00 0.  1.
         11    1    3    3    0    0 -0.12827951168E+02 -0.33282046431E+01 -0.40144015892E+01  0.13847335401E+02  0.51100000000E-03 0. -1.
        -11    1    3    3    0    0  0.15320413013E+01 -0.12391044585E+01 -0.42355815156E+00  0.20154235726E+01  0.51100000000E-03 0.  1.
         12    1    3    3    0    0 -0.26323767393E+02  0.55724461715E+01 -0.17180848799E+02  0.31924511767E+02  0.00000000000E+00 0. -1.
</event>
<event>
 7    1  0.3884463E-009  0.4778727E+02  0.7816164E-02  0.1312668E+00
        -11   -1    0    0    0    0  0.00000000000E+00  0.00000000000E+00  0.45593999997E+02  0.45594000000E+02  0.51100000000E-03 0. -1.
         11   -1    0    0    0    0 -0.00000000000E+00 -0.00000000000E+00 -0.45593999997E+02  0.45594000000E+02  0.51100000000E-03 0.  1.
    9900012    2    1    2    0    0  0.63219762879E+01 -0.40404768708E+02  0.14529634726E+02  0.47787274155E+02  0.20000014184E+02 0.  0.
        -12    1    1    2    0    0 -0.63219762879E+01  0.40404768708E+02 -0.14529634726E+02  0.43400725845E+02  0.00000000000E+00 0.  1.
         11    1    3    3    0    0 -0.29286701084E+01 -0.93017711803E+01 -0.31656302854E-01  0.97519771368E+01  0.51100000000E-03 0. -1.
        -11    1    3    3    0    0  0.12753810601E+01 -0.11374168201E+02 -0.12654136443E+01  0.11515188712E+02  0.51100000000E-03 0.  1.
        -12    1    3    3    0    0  0.79752653362E+01 -0.19728829327E+02  0.15826704673E+02  0.26520108307E+02  0.00000000000E+00 0.  1.
</event>
<event>
 7    1  0.3884463E-009  0.4778727E+02  0.7816164E-02  0.1312668E+00
        -11   -1    0    0    0    0  0.00000000000E+00  0.00000000000E+00  0.45593999997E+02  0.45594000000E+02  0.51100000000E-03 0.  1.
         11   -1    0    0    0    0 -0.00000000000E+00 -0.00000000000E+00 -0.45593999997E+02  0.45594000000E+02  0.51100000000E-03 0. -1.
    9900012    2    1    2    0    0  0.15695413096E+02  0.17540821616E+02 -0.36463639716E+02  0.47787269170E+02  0.19999991454E+02 0.  0.
        -12    1    1    2    0    0 -0.15695413096E+02 -0.17540821616E+02  0.36463639716E+02  0.43400730830E+02  0.00000000000E+00 0.  1.
         11    1    3    3    0    0  0.17334882973E+01  0.94600449087E+01 -0.18340892699E+02  0.20709557615E+02  0.51100000000E-03 0. -1.
        -11    1    3    3    0    0  0.93220173038E+01  0.11087716870E+02 -0.11843245054E+02  0.18710957369E+02  0.51100000000E-03 0.  1.
        -12    1    3    3    0    0  0.46399074954E+01 -0.30069401624E+01 -0.62795019630E+01  0.83667541861E+01  0.00000000000E+00 0.  1.
</event>
<event>
 7    1  0.3884463E-009  0.4778727E+02  0.7816164E-02  0.1312668E+00
        -11   -1    0    0    0    0  0.00000000000E+00  0.00000000000E+00  0.45593999997E+02  0.45594000000E+02  0.51100000000E-03 0.  1.
         11   -1    0    0    0    0 -0.00000000000E+00 -0.00000000000E+00 -0.45593999997E+02  0.45594000000E+02  0.51100000000E-03 0. -1.
    9900012    2    1    2    0    0  0.11073793222E+02  0.21620427172E+02 -0.35965978826E+02  0.47787269588E+02  0.19999993359E+02 0.  0.
        -12    1    1    2    0    0 -0.11073793222E+02 -0.21620427172E+02  0.35965978826E+02  0.43400730412E+02  0.00000000000E+00 0.  1.
         11    1    3    3    0    0 -0.18712609226E+01 -0.66445274071E+00 -0.58793312569E+01  0.62056144880E+01  0.51100000000E-03 0. -1.
        -11    1    3    3    0    0  0.13125833069E+02  0.10265545590E+02 -0.16742464357E+02  0.23621579816E+02  0.51100000000E-03 0.  1.
         12    1    3    3    0    0 -0.18077892513E+00  0.12019334323E+02 -0.13344183212E+02  0.17960075283E+02  0.00000000000E+00 0. -1.
</event>
<event>
 7    1  0.3884463E-009  0.4778727E+02  0.7816164E-02  0.1312668E+00
        -11   -1    0    0    0    0  0.00000000000E+00  0.00000000000E+00  0.45593999997E+02  0.45594000000E+02  0.51100000000E-03 0.  1.
         11   -1    0    0    0    0 -0.00000000000E+00 -0.00000000000E+00 -0.45593999997E+02  0.45594000000E+02  0.51100000000E-03 0. -1.
    9900012    2    1    2    0    0 -0.23613290399E+02 -0.12082727470E+02 -0.34351759044E+02  0.47787272633E+02  0.20000007242E+02 0.  0.
        -12    1    1    2    0    0  0.23613290399E+02  0.12082727470E+02  0.34351759044E+02  0.43400727367E+02  0.00000000000E+00 0.  1.
         11    1    3    3    0    0 -0.46836212360E+01  0.55119203990E+00 -0.82878420530E+01  0.95356408648E+01  0.51100000000E-03 0. -1.
        -11    1    3    3    0    0 -0.16215437389E+02 -0.25921009677E+01 -0.21068421308E+02  0.26712127841E+02  0.51100000000E-03 0.  1.
         12    1    3    3    0    0 -0.27142317741E+01 -0.10041818542E+02 -0.49954956833E+01  0.11539503927E+02  0.00000000000E+00 0. -1.
</event>
<event>
 7    1  0.3884463E-009  0.4778727E+02  0.7816164E-02  0.1312668E+00
        -11   -1    0    0    0    0  0.00000000000E+00  0.00000000000E+00  0.45593999997E+02  0.45594000000E+02  0.51100000000E-03 0. -1.
         11   -1    0    0    0    0 -0.00000000000E+00 -0.00000000000E+00 -0.45593999997E+02  0.45594000000E+02  0.51100000000E-03 0.  1.
    9900012    2    1    2    0    0  0.34869734567E+02 -0.88655351266E+01  0.24271941745E+02  0.47787271228E+02  0.20000000837E+02 0.  0.
        -12    1    1    2    0    0 -0.34869734567E+02  0.88655351266E+01 -0.24271941745E+02  0.43400728772E+02  0.00000000000E+00 0.  1.
         11    1    3    3    0    0  0.84476082296E+01 -0.30856261723E+01  0.47079165010E+01  0.10151238925E+02  0.51100000000E-03 0. -1.
        -11    1    3    3    0    0  0.11533988708E+02 -0.61011813682E+01  0.18590501720E+02  0.22712641064E+02  0.51100000000E-03 0.  1.
        -12    1    3    3    0    0  0.14888137629E+02  0.32127241387E+00  0.97352352367E+00  0.14923391239E+02  0.00000000000E+00 0.  1.
</event>
<event>
 7    1  0.3884463E-009  0.4778726E+02  0.7816164E-02  0.1312668E+00
        -11   -1    0    0    0    0  0.00000000000E+00  0.00000000000E+00  0.45593999997E+02  0.45594000000E+02  0.51100000000E-03 0.  1.
         11   -1    0    0    0    0 -0.00000000000E+00 -0.00000000000E+00 -0.45593999997E+02  0.45594000000E+02  0.51100000000E-03 0. -1.
    9900012    2    1    2    0    0  0.27603153030E+02 -0.10287007512E+02 -0.31872672005E+02  0.47787264966E+02  0.19999972286E+02 0.  0.
        -12    1    1    2    0    0 -0.27603153030E+02  0.10287007512E+02  0.31872672005E+02  0.43400735034E+02  0.00000000000E+00 0.  1.
         11    1    3    3    0    0  0.53575210872E+00 -0.43295667459E+01 -0.63629594800E+01  0.77148838056E+01  0.51100000000E-03 0. -1.
        -11    1    3    3    0    0  0.37001616201E+01 -0.60838029581E+01 -0.89254513783E+01  0.11417860440E+02  0.51100000000E-03 0.  1.
         12    1    3    3    0    0  0.23367239301E+02  0.12636219249E+00 -0.16584261147E+02  0.28654520721E+02  0.00000000000E+00 0. -1.
</event>
<event>
 7    1  0.3884463E-009  0.4778728E+02  0.7816164E-02  0.1312668E+00
        -11   -1    0    0    0    0  0.00000000000E+00  0.00000000000E+00  0.45593999997E+02  0.45594000000E+02  0.51100000000E-03 0.  1.
         11   -1    0    0    0    0 -0.00000000000E+00 -0.00000000000E+00 -0.45593999997E+02  0.45594000000E+02  0.51100000000E-03 0. -1.
    9900012    2    1    2    0    0  0.30133254726E+02  0.10418223732E+02 -0.29446052017E+02  0.47787281049E+02  0.20000045613E+02 0.  0.
        -12    1    1    2    0    0 -0.30133254726E+02 -0.10418223732E+02  0.29446052017E+02  0.43400718951E+02  0.00000000000E+00 0.  1.
         11    1    3    3    0    0  0.24653028881E+02  0.10439124127E+02 -0.21413062053E+02  0.34282158221E+02  0.51100000000E-03 0. -1.
        -11    1    3    3    0    0  0.81087265072E+01 -0.67202639982E+00 -0.62956687197E+01  0.10287784501E+02  0.51100000000E-03 0.  1.
        -12    1    3    3    0    0 -0.26285006619E+01  0.65112600478E+00 -0.17373212441E+01  0.32173383268E+01  0.00000000000E+00 0.  1.
</event>
<event>
 7    1  0.3884463E-009  0.4778727E+02  0.7816164E-02  0.1312668E+00
        -11   -1    0    0    0    0  0.00000000000E+00  0.00000000000E+00  0.45593999997E+02  0.45594000000E+02  0.51100000000E-03 0.  1.
         11   -1    0    0    0    0 -0.00000000000E+00 -0.00000000000E+00 -0.45593999997E+02  0.45594000000E+02  0.51100000000E-03 0. -1.
    9900012    2    1    2    0    0  0.96795836052E+01 -0.20146602549E+02 -0.37202734651E+02  0.47787269608E+02  0.19999993451E+02 0.  0.
        -12    1    1    2    0    0 -0.96795836052E+01  0.20146602549E+02  0.37202734651E+02  0.43400730392E+02  0.00000000000E+00 0.  1.
         11    1    3    3    0    0  0.10084476813E+02 -0.75996068278E+01 -0.14342687318E+02  0.19109248449E+02  0.51100000000E-03 0. -1.
        -11    1    3    3    0    0  0.13241156575E+01  0.11670992132E+01  0.21656133594E+00  0.17782862315E+01  0.51100000000E-03 0.  1.
        -12    1    3    3    0    0 -0.17290088650E+01 -0.13714094935E+02 -0.23076608668E+02  0.26899734927E+02  0.00000000000E+00 0.  1.
</event>
<event>
 7    1  0.3884463E-009  0.4778729E+02  0.7816164E-02  0.1312668E+00
        -11   -1    0    0    0    0  0.00000000000E+00  0.00000000000E+00  0.45593999997E+02  0.45594000000E+02  0.51100000000E-03 0.  1.
         11   -1    0    0    0    0 -0.00000000000E+00 -0.00000000000E+00 -0.45593999997E+02  0.45594000000E+02  0.51100000000E-03 0. -1.
    9900012    2    1    2    0    0 -0.28975645648E+02 -0.15241298258E+02 -0.28490983364E+02  0.47787293251E+02  0.20000101247E+02 0.  0.
        -12    1    1    2    0    0  0.28975645648E+02  0.15241298258E+02  0.28490983364E+02  0.43400706749E+02  0.00000000000E+00 0.  1.
         11    1    3    3    0    0 -0.23213860831E+02 -0.58844050285E+01 -0.24651064807E+02  0.34368365594E+02  0.51100000000E-03 0. -1.
        -11    1    3    3    0    0  0.31652588096E+00  0.86934727060E+00 -0.23581738993E-01  0.92547807632E+00  0.51100000000E-03 0.  1.
         12    1    3    3    0    0 -0.60783106981E+01 -0.10226240500E+02 -0.38163368175E+01  0.12493449580E+02  0.00000000000E+00 0. -1.
</event>
<event>
 7    1  0.3884463E-009  0.4778728E+02  0.7816164E-02  0.1312668E+00
        -11   -1    0    0    0    0  0.00000000000E+00  0.00000000000E+00  0.45593999997E+02  0.45594000000E+02  0.51100000000E-03 0.  1.
         11   -1    0    0    0    0 -0.00000000000E+00 -0.00000000000E+00 -0.45593999997E+02  0.45594000000E+02  0.51100000000E-03 0. -1.
    9900012    2    1    2    0    0 -0.46776852006E+01  0.23206645200E+02 -0.36375730438E+02  0.47787275523E+02  0.20000020418E+02 0.  0.
        -12    1    1    2    0    0  0.46776852006E+01 -0.23206645200E+02  0.36375730438E+02  0.43400724477E+02  0.00000000000E+00 0.  1.
         11    1    3    3    0    0 -0.35189975915E+01  0.93754995350E+01 -0.17592441540E+02  0.20242957669E+02  0.51100000000E-03 0. -1.
        -11    1    3    3    0    0  0.21348121013E+01  0.91727029598E+01 -0.19634222776E+02  0.21776101730E+02  0.51100000000E-03 0.  1.
        -12    1    3    3    0    0 -0.32934997104E+01  0.46584427056E+01  0.85093387834E+00  0.57682161236E+01  0.00000000000E+00 0.  1.
</event>
<event>
 7    1  0.3884463E-009  0.4778727E+02  0.7816164E-02  0.1312668E+00
        -11   -1    0    0    0    0  0.00000000000E+00  0.00000000000E+00  0.45593999997E+02  0.45594000000E+02  0.51100000000E-03 0. -1.
         11   -1    0    0    0    0 -0.00000000000E+00 -0.00000000000E+00 -0.45593999997E+02  0.45594000000E+02  0.51100000000E-03 0.  1.
    9900012    2    1    2    0    0  0.22343498191E+02  0.45747758021E+01  0.36925098750E+02  0.47787269560E+02  0.19999993230E+02 0.  0.
        -12    1    1    2    0    0 -0.22343498191E+02 -0.45747758021E+01 -0.36925098750E+02  0.43400730440E+02  0.00000000000E+00 0.  1.
         11    1    3    3    0    0  0.17651255315E+02  0.39192788267E+01  0.34589156938E+02  0.39029954377E+02  0.51100000000E-03 0. -1.
        -11    1    3    3    0    0  0.41866810597E+01  0.28208921048E+00  0.47061367120E+01  0.63052038533E+01  0.51100000000E-03 0.  1.
        -12    1    3    3    0    0  0.50556181651E+00  0.37340776488E+00 -0.23701948999E+01  0.24521113296E+01  0.00000000000E+00 0.  1.
</event>
<event>
 7    1  0.3884463E-009  0.4778728E+02  0.7816164E-02  0.1312668E+00
        -11   -1    0    0    0    0  0.00000000000E+00  0.00000000000E+00  0.45593999997E+02  0.45594000000E+02  0.51100000000E-03 0. -1.
         11   -1    0    0    0    0 -0.00000000000E+00 -0.00000000000E+00 -0.45593999997E+02  0.45594000000E+02  0.51100000000E-03 0.  1.
    9900012    2    1    2    0    0  0.69811359664E+01  0.42809468485E+02  0.14952872602E+01  0.47787277249E+02  0.20000028288E+02 0.  0.
        -12    1    1    2    0    0 -0.69811359664E+01 -0.42809468485E+02 -0.14952872602E+01  0.43400722751E+02  0.00000000000E+00 0.  1.
         11    1    3    3    0    0 -0.36622772281E+00  0.47126874240E+01  0.25557246295E+01  0.53735718237E+01  0.51100000000E-03 0. -1.
        -11    1    3    3    0    0 -0.20046201598E+01 -0.68369121081E+00 -0.13661394451E+01  0.25203715800E+01  0.51100000000E-03 0.  1.
         12    1    3    3    0    0  0.93519838490E+01  0.38780472272E+02  0.30570207581E+00  0.39893333845E+02  0.00000000000E+00 0. -1.
</event>
<event>
 7    1  0.3884463E-009  0.4778727E+02  0.7816164E-02  0.1312668E+00
        -11   -1    0    0    0    0  0.00000000000E+00  0.00000000000E+00  0.45593999997E+02  0.45594000000E+02  0.51100000000E-03 0.  1.
         11   -1    0    0    0    0 -0.00000000000E+00 -0.00000000000E+00 -0.45593999997E+02  0.45594000000E+02  0.51100000000E-03 0. -1.
    9900012    2    1    2    0    0  0.25800519312E+02 -0.32128731005E+02 -0.13627223687E+02  0.47787269843E+02  0.19999994522E+02 0.  0.
        -12    1    1    2    0    0 -0.25800519312E+02  0.32128731005E+02  0.13627223687E+02  0.43400730157E+02  0.00000000000E+00 0.  1.
         11    1    3    3    0    0 -0.16637532548E+01 -0.16384879094E+00 -0.12217350452E+00  0.16762601068E+01  0.51100000000E-03 0. -1.
        -11    1    3    3    0    0  0.10363076890E+02 -0.98923782216E+01  0.15130006534E+01  0.14406306978E+02  0.51100000000E-03 0.  1.
         12    1    3    3    0    0  0.17101195676E+02 -0.22072503992E+02 -0.15018050836E+02  0.31704702758E+02  0.00000000000E+00 0. -1.
</event>
<event>
 7    1  0.3884463E-009  0.4778727E+02  0.7816164E-02  0.1312668E+00
        -11   -1    0    0    0    0  0.00000000000E+00  0.00000000000E+00  0.45593999997E+02  0.45594000000E+02  0.51100000000E-03 0. -1.
         11   -1    0    0    0    0 -0.00000000000E+00 -0.00000000000E+00 -0.45593999997E+02  0.45594000000E+02  0.51100000000E-03 0.  1.
    9900012    2    1    2    0    0  0.26927562998E+02  0.33147032214E+02  0.77332956656E+01  0.47787271257E+02  0.20000000967E+02 0.  0.
        -12    1    1    2    0    0 -0.26927562998E+02 -0.33147032214E+02 -0.77332956656E+01  0.43400728743E+02  0.00000000000E+00 0.  1.
         11    1    3    3    0    0  0.14691049486E+02  0.18767978476E+02  0.80413207234E+01  0.25154061109E+02  0.51100000000E-03 0. -1.
        -11    1    3    3    0    0  0.11918218028E+02  0.10576971736E+02  0.44403816927E+01  0.16541863314E+02  0.51100000000E-03 0.  1.
        -12    1    3    3    0    0  0.31829548375E+00  0.38020820028E+01 -0.47484067505E+01  0.60913468330E+01  0.00000000000E+00 0.  1.
</event>
<event>
 7    1  0.3884463E-009  0.4778727E+02  0.7816164E-02  0.1312668E+00
        -11   -1    0    0    0    0  0.00000000000E+00  0.00000000000E+00  0.45593999997E+02  0.45594000000E+02  0.51100000000E-03 0.  1.
         11   -1    0    0    0    0 -0.00000000000E+00 -0.00000000000E+00 -0.45593999997E+02  0.45594000000E+02  0.51100000000E-03 0. -1.
    9900012    2    1    2    0    0  0.15383631539E+02  0.24969722807E+02 -0.31991873459E+02  0.47787272543E+02  0.20000006834E+02 0.  0.
        -12    1    1    2    0    0 -0.15383631539E+02 -0.24969722807E+02  0.31991873459E+02  0.43400727457E+02  0.00000000000E+00 0.  1.
         11    1    3    3    0    0 -0.17609537198E+01  0.99476542722E+01 -0.13478089716E+02  0.16843861973E+02  0.51100000000E-03 0. -1.
        -11    1    3    3    0    0  0.47497210150E+01  0.10791720440E+01 -0.84321300976E+01  0.97378272866E+01  0.51100000000E-03 0.  1.
        -12    1    3    3    0    0  0.12394864243E+02  0.13942896491E+02 -0.10081653645E+02  0.21205583283E+02  0.00000000000E+00 0.  1.
</event>
<event>
 7    1  0.3884463E-009  0.4778727E+02  0.7816164E-02  0.1312668E+00
        -11   -1    0    0    0    0  0.00000000000E+00  0.00000000000E+00  0.45593999997E+02  0.45594000000E+02  0.51100000000E-03 0.  1.
         11   -1    0    0    0    0 -0.00000000000E+00 -0.00000000000E+00 -0.45593999997E+02  0.45594000000E+02  0.51100000000E-03 0. -1.
    9900012    2    1    2    0    0  0.13251675973E+02 -0.90535025912E+01 -0.40324316387E+02  0.47787270544E+02  0.19999997718E+02 0.  0.
        -12    1    1    2    0    0 -0.13251675973E+02  0.90535025912E+01  0.40324316387E+02  0.43400729456E+02  0.00000000000E+00 0.  1.
         11    1    3    3    0    0  0.57346704898E+00 -0.61980760550E+01 -0.16949349160E+02  0.18056174801E+02  0.51100000000E-03 0. -1.
        -11    1    3    3    0    0  0.15175469224E+01 -0.61874181775E+01 -0.56127046781E+01  0.84905563086E+01  0.51100000000E-03 0.  1.
         12    1    3    3    0    0  0.11160662001E+02  0.33319916413E+01 -0.17762262549E+02  0.21240539435E+02  0.00000000000E+00 0. -1.
</event>
<event>
 7    1  0.3884463E-009  0.4778727E+02  0.7816164E-02  0.1312668E+00
        -11   -1    0    0    0    0  0.00000000000E+00  0.00000000000E+00  0.45593999997E+02  0.45594000000E+02  0.51100000000E-03 0.  1.
         11   -1    0    0    0    0 -0.00000000000E+00 -0.00000000000E+00 -0.45593999997E+02  0.45594000000E+02  0.51100000000E-03 0. -1.
    9900012    2    1    2    0    0  0.89145246068E+00 -0.61111812615E+01 -0.42959075634E+02  0.47787269554E+02  0.19999993204E+02 0.  0.
        -12    1    1    2    0    0 -0.89145246068E+00  0.61111812615E+01  0.42959075634E+02  0.43400730446E+02  0.00000000000E+00 0.  1.
         11    1    3    3    0    0  0.17271185095E+01 -0.43774632550E+01 -0.79196261967E+01  0.92122528326E+01  0.51100000000E-03 0. -1.
        -11    1    3    3    0    0  0.55331921222E+01 -0.20713346793E+01 -0.46363045034E+01  0.75101239753E+01  0.51100000000E-03 0.  1.
         12    1    3    3    0    0 -0.63688581710E+01  0.33761667282E+00 -0.30403144934E+02  0.31064892746E+02  0.00000000000E+00 0. -1.
</event>
<event>
 7    1  0.3884463E-009  0.4778727E+02  0.7816164E-02  0.1312668E+00
        -11   -1    0    0    0    0  0.00000000000E+00  0.00000000000E+00  0.45593999997E+02  0.45594000000E+02  0.51100000000E-03 0.  1.
         11   -1    0    0    0    0 -0.00000000000E+00 -0.00000000000E+00 -0.45593999997E+02  0.45594000000E+02  0.51100000000E-03 0. -1.
    9900012    2    1    2    0    0  0.27551226966E+02 -0.24043955334E+02 -0.23376093982E+02  0.47787266535E+02  0.19999979440E+02 0.  0.
        -12    1    1    2    0    0 -0.27551226966E+02  0.24043955334E+02  0.23376093982E+02  0.43400733465E+02  0.00000000000E+00 0.  1.
         11    1    3    3    0    0  0.14908171353E+02 -0.74292105530E+01 -0.69383381564E+01  0.18044037219E+02  0.51100000000E-03 0. -1.
        -11    1    3    3    0    0  0.14509256034E+02 -0.15771558404E+02 -0.17279711759E+02  0.27529057446E+02  0.51100000000E-03 0.  1.
        -12    1    3    3    0    0 -0.18662004205E+01 -0.84318637687E+00  0.84195593306E+00  0.22141718697E+01  0.00000000000E+00 0.  1.
</event>
<event>
 7    1  0.3884463E-009  0.4778727E+02  0.7816164E-02  0.1312668E+00
        -11   -1    0    0    0    0  0.00000000000E+00  0.00000000000E+00  0.45593999997E+02  0.45594000000E+02  0.51100000000E-03 0.  1.
         11   -1    0    0    0    0 -0.00000000000E+00 -0.00000000000E+00 -0.45593999997E+02  0.45594000000E+02  0.51100000000E-03 0. -1.
    9900012    2    1    2    0    0 -0.17081939329E+02  0.15320284271E+02 -0.36839101932E+02  0.47787271981E+02  0.20000004271E+02 0.  0.
        -12    1    1    2    0    0  0.17081939329E+02 -0.15320284271E+02  0.36839101932E+02  0.43400728019E+02  0.00000000000E+00 0.  1.
         11    1    3    3    0    0 -0.12751861173E+02  0.41983599197E+01 -0.16181997500E+02  0.21026013240E+02  0.51100000000E-03 0. -1.
        -11    1    3    3    0    0 -0.40868974176E+01 -0.56703485439E+00 -0.10472029060E+02  0.11255560934E+02  0.51100000000E-03 0.  1.
         12    1    3    3    0    0 -0.24318073836E+00  0.11688959206E+02 -0.10185075372E+02  0.15505697808E+02  0.00000000000E+00 0. -1.
</event>
<event>
 7    1  0.3884463E-009  0.4778727E+02  0.7816164E-02  0.1312668E+00
        -11   -1    0    0    0    0  0.00000000000E+00  0.00000000000E+00  0.45593999997E+02  0.45594000000E+02  0.51100000000E-03 0.  1.
         11   -1    0    0    0    0 -0.00000000000E+00 -0.00000000000E+00 -0.45593999997E+02  0.45594000000E+02  0.51100000000E-03 0. -1.
    9900012    2    1    2    0    0  0.33518026614E+02 -0.11574108861E+02 -0.25024093398E+02  0.47787270116E+02  0.19999995767E+02 0.  0.
        -12    1    1    2    0    0 -0.33518026614E+02  0.11574108861E+02  0.25024093398E+02  0.43400729884E+02  0.00000000000E+00 0.  1.
         11    1    3    3    0    0  0.82201657131E+01 -0.35674234898E+01 -0.34502742746E+01  0.96021886848E+01  0.51100000000E-03 0. -1.
        -11    1    3    3    0    0  0.46702094321E+01  0.51396755759E+01 -0.35371109682E+01  0.77934764660E+01  0.51100000000E-03 0.  1.
         12    1    3    3    0    0  0.20627651469E+02 -0.13146360947E+02 -0.18036708156E+02  0.30391604965E+02  0.00000000000E+00 0. -1.
</event>
<event>
 7    1  0.3884463E-009  0.4778728E+02  0.7816164E-02  0.1312668E+00
        -11   -1    0    0    0    0  0.00000000000E+00  0.00000000000E+00  0.45593999997E+02  0.45594000000E+02  0.51100000000E-03 0.  1.
         11   -1    0    0    0    0 -0.00000000000E+00 -0.00000000000E+00 -0.45593999997E+02  0.45594000000E+02  0.51100000000E-03 0. -1.
    9900012    2    1    2    0    0  0.38739634127E+02 -0.11176793103E+02 -0.16060588131E+02  0.47787280566E+02  0.20000043411E+02 0.  0.
        -12    1    1    2    0    0 -0.38739634127E+02  0.11176793103E+02  0.16060588131E+02  0.43400719434E+02  0.00000000000E+00 0.  1.
         11    1    3    3    0    0  0.16813091230E+02 -0.29519516459E+01 -0.96375753790E+01  0.19602982291E+02  0.51100000000E-03 0. -1.
        -11    1    3    3    0    0  0.21259406333E+02 -0.34762057320E+01 -0.82293311136E+01  0.23060100927E+02  0.51100000000E-03 0.  1.
        -12    1    3    3    0    0  0.66713656373E+00 -0.47486357248E+01  0.18063183620E+01  0.51241973485E+01  0.00000000000E+00 0.  1.
</event>
<event>
 7    1  0.3884463E-009  0.4778727E+02  0.7816164E-02  0.1312668E+00
        -11   -1    0    0    0    0  0.00000000000E+00  0.00000000000E+00  0.45593999997E+02  0.45594000000E+02  0.51100000000E-03 0. -1.
         11   -1    0    0    0    0 -0.00000000000E+00 -0.00000000000E+00 -0.45593999997E+02  0.45594000000E+02  0.51100000000E-03 0.  1.
    9900012    2    1    2    0    0 -0.99710747444E+00  0.10954665067E+02  0.41983618427E+02  0.47787272745E+02  0.20000007753E+02 0.  0.
        -12    1    1    2    0    0  0.99710747444E+00 -0.10954665067E+02 -0.41983618427E+02  0.43400727255E+02  0.00000000000E+00 0.  1.
         11    1    3    3    0    0 -0.13033738063E+01 -0.13387288209E+01  0.15413603532E+01  0.24221416421E+01  0.51100000000E-03 0. -1.
        -11    1    3    3    0    0  0.43726584920E+01 -0.64833885992E+00  0.25171984005E+01  0.50869218210E+01  0.51100000000E-03 0.  1.
         12    1    3    3    0    0 -0.40663921601E+01  0.12941732748E+02  0.37925059673E+02  0.40278209282E+02  0.00000000000E+00 0. -1.
</event>
<event>
 7    1  0.3884463E-009  0.4778727E+02  0.7816164E-02  0.1312668E+00
        -11   -1    0    0    0    0  0.00000000000E+00  0.00000000000E+00  0.45593999997E+02  0.45594000000E+02  0.51100000000E-03 0.  1.
         11   -1    0    0    0    0 -0.00000000000E+00 -0.00000000000E+00 -0.45593999997E+02  0.45594000000E+02  0.51100000000E-03 0. -1.
    9900012    2    1    2    0    0  0.18516844059E+02 -0.14746138373E+02 -0.36377209715E+02  0.47787268468E+02  0.19999988255E+02 0.  0.
        -12    1    1    2    0    0 -0.18516844059E+02  0.14746138373E+02  0.36377209715E+02  0.43400731532E+02  0.00000000000E+00 0.  1.
         11    1    3    3    0    0 -0.12682795593E+01  0.94829729266E+00 -0.25518323187E+01  0.30032730878E+01  0.51100000000E-03 0. -1.
        -11    1    3    3    0    0  0.39054742541E+01 -0.72951707280E+01 -0.24501140069E+01  0.86299075318E+01  0.51100000000E-03 0.  1.
         12    1    3    3    0    0  0.15879649364E+02 -0.83992649375E+01 -0.31375263390E+02  0.36154087849E+02  0.00000000000E+00 0. -1.
</event>
<event>
 7    1  0.3884463E-009  0.4778726E+02  0.7816164E-02  0.1312668E+00
        -11   -1    0    0    0    0  0.00000000000E+00  0.00000000000E+00  0.45593999997E+02  0.45594000000E+02  0.51100000000E-03 0.  1.
         11   -1    0    0    0    0 -0.00000000000E+00 -0.00000000000E+00 -0.45593999997E+02  0.45594000000E+02  0.51100000000E-03 0. -1.
    9900012    2    1    2    0    0 -0.26245938774E+01 -0.35528260592E+02 -0.24788671778E+02  0.47787262193E+02  0.19999959641E+02 0.  0.
        -12    1    1    2    0    0  0.26245938774E+01  0.35528260592E+02  0.24788671778E+02  0.43400737807E+02  0.00000000000E+00 0.  1.
         11    1    3    3    0    0  0.26788398132E+01 -0.48730770893E+01 -0.20669250483E+01  0.59325578362E+01  0.51100000000E-03 0. -1.
        -11    1    3    3    0    0 -0.16653265774E+01 -0.74683561677E+01 -0.15520641205E+02  0.17304333565E+02  0.51100000000E-03 0.  1.
         12    1    3    3    0    0 -0.36381071133E+01 -0.23186827335E+02 -0.72011055246E+01  0.24550370792E+02  0.00000000000E+00 0. -1.
</event>
<event>
 7    1  0.3884463E-009  0.4778727E+02  0.7816164E-02  0.1312668E+00
        -11   -1    0    0    0    0  0.00000000000E+00  0.00000000000E+00  0.45593999997E+02  0.45594000000E+02  0.51100000000E-03 0.  1.
         11   -1    0    0    0    0 -0.00000000000E+00 -0.00000000000E+00 -0.45593999997E+02  0.45594000000E+02  0.51100000000E-03 0. -1.
    9900012    2    1    2    0    0 -0.41671437338E+02  0.11620854231E+02  0.34741910091E+01  0.47787274821E+02  0.20000017219E+02 0.  0.
        -12    1    1    2    0    0  0.41671437338E+02 -0.11620854231E+02 -0.34741910091E+01  0.43400725179E+02  0.00000000000E+00 0.  1.
         11    1    3    3    0    0 -0.16270153130E+01  0.39396517573E+01  0.22828975103E+01  0.48352514000E+01  0.51100000000E-03 0. -1.
        -11    1    3    3    0    0 -0.57710316302E+00 -0.61661162907E+00  0.24609866526E+01  0.26018673155E+01  0.51100000000E-03 0.  1.
         12    1    3    3    0    0 -0.39467318862E+02  0.82978141031E+01 -0.12696931538E+01  0.40350156106E+02  0.00000000000E+00 0. -1.
</event>
<event>
 7    1  0.3884463E-009  0.4778727E+02  0.7816164E-02  0.1312668E+00
        -11   -1    0    0    0    0  0.00000000000E+00  0.00000000000E+00  0.45593999997E+02  0.45594000000E+02  0.51100000000E-03 0.  1.
         11   -1    0    0    0    0 -0.00000000000E+00 -0.00000000000E+00 -0.45593999997E+02  0.45594000000E+02  0.51100000000E-03 0. -1.
    9900012    2    1    2    0    0  0.35833657944E+02  0.11464076475E+02 -0.21636716889E+02  0.47787267186E+02  0.19999982409E+02 0.  0.
        -12    1    1    2    0    0 -0.35833657944E+02 -0.11464076475E+02  0.21636716889E+02  0.43400732814E+02  0.00000000000E+00 0.  1.
         11    1    3    3    0    0  0.33988917935E+00  0.18633220327E+01  0.19131906696E+01  0.26921724408E+01  0.51100000000E-03 0. -1.
        -11    1    3    3    0    0  0.14829912355E+02  0.14677306925E+01 -0.38067315043E+01  0.15380888754E+02  0.51100000000E-03 0.  1.
         12    1    3    3    0    0  0.20663856409E+02  0.81330237503E+01 -0.19743176054E+02  0.29714205992E+02  0.00000000000E+00 0. -1.
</event>
<event>
 7    1  0.3884463E-009  0.4778727E+02  0.7816164E-02  0.1312668E+00
        -11   -1    0    0    0    0  0.00000000000E+00  0.00000000000E+00  0.45593999997E+02  0.45594000000E+02  0.51100000000E-03 0. -1.
         11   -1    0    0    0    0 -0.00000000000E+00 -0.00000000000E+00 -0.45593999997E+02  0.45594000000E+02  0.51100000000E-03 0.  1.
    9900012    2    1    2    0    0  0.79843609362E+01 -0.20935269346E+02  0.37169712137E+02  0.47787273940E+02  0.20000013202E+02 0.  0.
        -12    1    1    2    0    0 -0.79843609362E+01  0.20935269346E+02 -0.37169712137E+02  0.43400726060E+02  0.00000000000E+00 0.  1.
         11    1    3    3    0    0  0.21114538843E+01 -0.45416844540E+01  0.59211467977E+00  0.50433852956E+01  0.51100000000E-03 0. -1.
        -11    1    3    3    0    0  0.34505633849E+01  0.17084763070E+01  0.66032510769E+01  0.76438343788E+01  0.51100000000E-03 0.  1.
         12    1    3    3    0    0  0.24223436670E+01 -0.18102061199E+02  0.29974346381E+02  0.35100054266E+02  0.00000000000E+00 0. -1.
</event>
<event>
 7    1  0.3884463E-009  0.4778727E+02  0.7816164E-02  0.1312668E+00
        -11   -1    0    0    0    0  0.00000000000E+00  0.00000000000E+00  0.45593999997E+02  0.45594000000E+02  0.51100000000E-03 0.  1.
         11   -1    0    0    0    0 -0.00000000000E+00 -0.00000000000E+00 -0.45593999997E+02  0.45594000000E+02  0.51100000000E-03 0. -1.
    9900012    2    1    2    0    0  0.34768205811E+02  0.21136508133E+02 -0.15101107285E+02  0.47787267833E+02  0.19999985358E+02 0.  0.
        -12    1    1    2    0    0 -0.34768205811E+02 -0.21136508133E+02  0.15101107285E+02  0.43400732167E+02  0.00000000000E+00 0.  1.
         11    1    3    3    0    0  0.66040757341E+01  0.17726294932E+01  0.32966763559E+01  0.75910543983E+01  0.51100000000E-03 0.  1.
        -11    1    3    3    0    0  0.81721087727E-01  0.23124350899E+01  0.39488477477E+00  0.23473322363E+01  0.51100000000E-03 0. -1.
        -12    1    3    3    0    0  0.28082408989E+02  0.17051443550E+02 -0.18792668416E+02  0.37848881198E+02  0.00000000000E+00 0.  1.
</event>
<event>
 7    1  0.3884463E-009  0.4778727E+02  0.7816164E-02  0.1312668E+00
        -11   -1    0    0    0    0  0.00000000000E+00  0.00000000000E+00  0.45593999997E+02  0.45594000000E+02  0.51100000000E-03 0.  1.
         11   -1    0    0    0    0 -0.00000000000E+00 -0.00000000000E+00 -0.45593999997E+02  0.45594000000E+02  0.51100000000E-03 0. -1.
    9900012    2    1    2    0    0  0.19828345356E+02  0.15112562386E+02 -0.35525627112E+02  0.47787274163E+02  0.20000014221E+02 0.  0.
        -12    1    1    2    0    0 -0.19828345356E+02 -0.15112562386E+02  0.35525627112E+02  0.43400725837E+02  0.00000000000E+00 0.  1.
         11    1    3    3    0    0  0.36176268621E+01  0.78430985620E+01 -0.19903198248E+02  0.21696514004E+02  0.51100000000E-03 0. -1.
        -11    1    3    3    0    0  0.85312493757E+01  0.96064887324E+01 -0.10187742140E+02  0.16396857377E+02  0.51100000000E-03 0.  1.
        -12    1    3    3    0    0  0.76794691186E+01 -0.23370249082E+01 -0.54346867242E+01  0.96939027825E+01  0.00000000000E+00 0.  1.
</event>
<event>
 7    1  0.3884463E-009  0.4778727E+02  0.7816164E-02  0.1312668E+00
        -11   -1    0    0    0    0  0.00000000000E+00  0.00000000000E+00  0.45593999997E+02  0.45594000000E+02  0.51100000000E-03 0.  1.
         11   -1    0    0    0    0 -0.00000000000E+00 -0.00000000000E+00 -0.45593999997E+02  0.45594000000E+02  0.51100000000E-03 0. -1.
    9900012    2    1    2    0    0  0.72427561505E+01 -0.23807629813E+02 -0.35557878535E+02  0.47787268671E+02  0.19999989179E+02 0.  0.
        -12    1    1    2    0    0 -0.72427561505E+01  0.23807629813E+02  0.35557878535E+02  0.43400731329E+02  0.00000000000E+00 0.  1.
         11    1    3    3    0    0  0.79394918274E+01 -0.29086806656E+01 -0.98196050284E+01  0.12958417992E+02  0.51100000000E-03 0.  1.
        -11    1    3    3    0    0 -0.12845805291E+01 -0.14228264678E+01 -0.88139153564E+01  0.90199604469E+01  0.51100000000E-03 0. -1.
        -12    1    3    3    0    0  0.58784485226E+00 -0.19476122679E+02 -0.16924358150E+02  0.25808890232E+02  0.00000000000E+00 0.  1.
</event>
<event>
 7    1  0.3884463E-009  0.4778727E+02  0.7816164E-02  0.1312668E+00
        -11   -1    0    0    0    0  0.00000000000E+00  0.00000000000E+00  0.45593999997E+02  0.45594000000E+02  0.51100000000E-03 0.  1.
         11   -1    0    0    0    0 -0.00000000000E+00 -0.00000000000E+00 -0.45593999997E+02  0.45594000000E+02  0.51100000000E-03 0. -1.
    9900012    2    1    2    0    0  0.20023943526E+02  0.34661008773E+02 -0.16771389617E+02  0.47787270131E+02  0.19999995835E+02 0.  0.
        -12    1    1    2    0    0 -0.20023943526E+02 -0.34661008773E+02  0.16771389617E+02  0.43400729869E+02  0.00000000000E+00 0.  1.
         11    1    3    3    0    0  0.15835986752E+02  0.10935765540E+02 -0.54999943800E+01  0.20015478580E+02  0.51100000000E-03 0.  1.
        -11    1    3    3    0    0  0.48993128998E+01  0.71453213321E+01 -0.51791765295E+01  0.10093698708E+02  0.51100000000E-03 0. -1.
        -12    1    3    3    0    0 -0.71135612539E+00  0.16579921901E+02 -0.60922187074E+01  0.17678092843E+02  0.00000000000E+00 0.  1.
</event>
<event>
 7    1  0.3884463E-009  0.4778728E+02  0.7816164E-02  0.1312668E+00
        -11   -1    0    0    0    0  0.00000000000E+00  0.00000000000E+00  0.45593999997E+02  0.45594000000E+02  0.51100000000E-03 0. -1.
         11   -1    0    0    0    0 -0.00000000000E+00 -0.00000000000E+00 -0.45593999997E+02  0.45594000000E+02  0.51100000000E-03 0.  1.
    9900012    2    1    2    0    0  0.18118777192E+02 -0.16813969988E+02  0.35673845401E+02  0.47787275128E+02  0.20000018619E+02 0.  0.
        -12    1    1    2    0    0 -0.18118777192E+02  0.16813969988E+02 -0.35673845401E+02  0.43400724872E+02  0.00000000000E+00 0.  1.
         11    1    3    3    0    0  0.61375066753E+01 -0.28803720511E+01  0.14836176192E+01  0.69402199420E+01  0.51100000000E-03 0.  1.
        -11    1    3    3    0    0  0.12484660600E+02 -0.69103838780E+01  0.16543174419E+02  0.21847122826E+02  0.51100000000E-03 0. -1.
        -12    1    3    3    0    0 -0.50339008399E+00 -0.70232140590E+01  0.17647053363E+02  0.18999932360E+02  0.00000000000E+00 0.  1.
</event>
<event>
 7    1  0.3884463E-009  0.4778727E+02  0.7816164E-02  0.1312668E+00
        -11   -1    0    0    0    0  0.00000000000E+00  0.00000000000E+00  0.45593999997E+02  0.45594000000E+02  0.51100000000E-03 0.  1.
         11   -1    0    0    0    0 -0.00000000000E+00 -0.00000000000E+00 -0.45593999997E+02  0.45594000000E+02  0.51100000000E-03 0. -1.
    9900012    2    1    2    0    0 -0.25567414863E+02 -0.95461386306E+01 -0.33746135685E+02  0.47787272596E+02  0.20000007076E+02 0.  0.
        -12    1    1    2    0    0  0.25567414863E+02  0.95461386306E+01  0.33746135685E+02  0.43400727404E+02  0.00000000000E+00 0.  1.
         11    1    3    3    0    0 -0.71387620165E+01 -0.54271565529E+01 -0.11239117476E+02  0.14378237489E+02  0.51100000000E-03 0. -1.
        -11    1    3    3    0    0  0.27143113601E+01 -0.15244579103E+01 -0.13734085472E+01  0.34026033237E+01  0.51100000000E-03 0.  1.
        -12    1    3    3    0    0 -0.21142964206E+02 -0.25945241674E+01 -0.21133609661E+02  0.30006431784E+02  0.00000000000E+00 0.  1.
</event>
<event>
 7    1  0.3884463E-009  0.4778727E+02  0.7816164E-02  0.1312668E+00
        -11   -1    0    0    0    0  0.00000000000E+00  0.00000000000E+00  0.45593999997E+02  0.45594000000E+02  0.51100000000E-03 0.  1.
         11   -1    0    0    0    0 -0.00000000000E+00 -0.00000000000E+00 -0.45593999997E+02  0.45594000000E+02  0.51100000000E-03 0. -1.
    9900012    2    1    2    0    0  0.60312176447E+01  0.33130073367E+02 -0.27379661305E+02  0.47787271887E+02  0.20000003840E+02 0.  0.
        -12    1    1    2    0    0 -0.60312176447E+01 -0.33130073367E+02  0.27379661305E+02  0.43400728113E+02  0.00000000000E+00 0.  1.
         11    1    3    3    0    0  0.30422297373E+01  0.34369280004E+01 -0.76803086363E+01  0.89473335058E+01  0.51100000000E-03 0. -1.
        -11    1    3    3    0    0 -0.18403457343E+01  0.41844031819E+00 -0.57542364365E+01  0.60558403174E+01  0.51100000000E-03 0.  1.
        -12    1    3    3    0    0  0.48293336417E+01  0.29274705048E+02 -0.13945116233E+02  0.32784098063E+02  0.00000000000E+00 0.  1.
</event>
<event>
 7    1  0.3884463E-009  0.4778727E+02  0.7816164E-02  0.1312668E+00
        -11   -1    0    0    0    0  0.00000000000E+00  0.00000000000E+00  0.45593999997E+02  0.45594000000E+02  0.51100000000E-03 0. -1.
         11   -1    0    0    0    0 -0.00000000000E+00 -0.00000000000E+00 -0.45593999997E+02  0.45594000000E+02  0.51100000000E-03 0.  1.
    9900012    2    1    2    0    0  0.28834899495E+02 -0.21779490159E+02  0.24038010869E+02  0.47787267437E+02  0.19999983552E+02 0.  0.
        -12    1    1    2    0    0 -0.28834899495E+02  0.21779490159E+02 -0.24038010869E+02  0.43400732563E+02  0.00000000000E+00 0.  1.
         11    1    3    3    0    0  0.15318798617E+02 -0.57516574554E+01  0.85443993444E+01  0.18459520984E+02  0.51100000000E-03 0. -1.
        -11    1    3    3    0    0  0.13820309823E+02 -0.11933094160E+02  0.17006017816E+02  0.24952040840E+02  0.51100000000E-03 0.  1.
        -12    1    3    3    0    0 -0.30420894535E+00 -0.40947385435E+01 -0.15124062913E+01  0.43757056130E+01  0.00000000000E+00 0.  1.
</event>
<event>
 7    1  0.3884463E-009  0.4778727E+02  0.7816164E-02  0.1312668E+00
        -11   -1    0    0    0    0  0.00000000000E+00  0.00000000000E+00  0.45593999997E+02  0.45594000000E+02  0.51100000000E-03 0.  1.
         11   -1    0    0    0    0 -0.00000000000E+00 -0.00000000000E+00 -0.45593999997E+02  0.45594000000E+02  0.51100000000E-03 0. -1.
    9900012    2    1    2    0    0  0.15173776439E+02  0.30762522969E+01 -0.40545236958E+02  0.47787273513E+02  0.20000011255E+02 0.  0.
        -12    1    1    2    0    0 -0.15173776439E+02 -0.30762522969E+01  0.40545236958E+02  0.43400726487E+02  0.00000000000E+00 0.  1.
         11    1    3    3    0    0  0.23520973277E+01 -0.21791347576E+01 -0.26734467074E+02  0.26926060241E+02  0.51100000000E-03 0. -1.
        -11    1    3    3    0    0 -0.83086896600E+00  0.10604123024E+01 -0.10412497085E+01  0.17026504945E+01  0.51100000000E-03 0.  1.
        -12    1    3    3    0    0  0.13652548077E+02  0.41949747522E+01 -0.12769520176E+02  0.19158562777E+02  0.00000000000E+00 0.  1.
</event>
<event>
 7    1  0.3884463E-009  0.4778727E+02  0.7816164E-02  0.1312668E+00
        -11   -1    0    0    0    0  0.00000000000E+00  0.00000000000E+00  0.45593999997E+02  0.45594000000E+02  0.51100000000E-03 0. -1.
         11   -1    0    0    0    0 -0.00000000000E+00 -0.00000000000E+00 -0.45593999997E+02  0.45594000000E+02  0.51100000000E-03 0.  1.
    9900012    2    1    2    0    0 -0.25969632751E+02  0.12866108253E+02  0.32305794996E+02  0.47787274694E+02  0.20000016638E+02 0.  0.
        -12    1    1    2    0    0  0.25969632751E+02 -0.12866108253E+02 -0.32305794996E+02  0.43400725306E+02  0.00000000000E+00 0.  1.
         11    1    3    3    0    0 -0.15298922045E+02  0.10380268149E+02  0.12825388594E+02  0.22501057207E+02  0.51100000000E-03 0. -1.
        -11    1    3    3    0    0 -0.37088641702E+01  0.58061925302E+01  0.39393062721E+01  0.79363517624E+01  0.51100000000E-03 0.  1.
        -12    1    3    3    0    0 -0.69618465364E+01 -0.33203524257E+01  0.15541100129E+02  0.17349865725E+02  0.00000000000E+00 0.  1.
</event>
<event>
 7    1  0.3884463E-009  0.4778727E+02  0.7816164E-02  0.1312668E+00
        -11   -1    0    0    0    0  0.00000000000E+00  0.00000000000E+00  0.45593999997E+02  0.45594000000E+02  0.51100000000E-03 0. -1.
         11   -1    0    0    0    0 -0.00000000000E+00 -0.00000000000E+00 -0.45593999997E+02  0.45594000000E+02  0.51100000000E-03 0.  1.
    9900012    2    1    2    0    0  0.41219665512E+02  0.11944089068E+02 -0.64731005468E+01  0.47787272825E+02  0.20000008120E+02 0.  0.
        -12    1    1    2    0    0 -0.41219665512E+02 -0.11944089068E+02  0.64731005468E+01  0.43400727175E+02  0.00000000000E+00 0.  1.
         11    1    3    3    0    0  0.15537563156E+02  0.42403143549E+01 -0.37090122231E+00  0.16110049740E+02  0.51100000000E-03 0. -1.
        -11    1    3    3    0    0  0.13344626084E+02  0.10569584419E+02  0.11850187008E+01  0.17064566496E+02  0.51100000000E-03 0.  1.
        -12    1    3    3    0    0  0.12337476273E+02 -0.28658097065E+01 -0.72872180253E+01  0.14612656590E+02  0.00000000000E+00 0.  1.
</event>
<event>
 7    1  0.3884463E-009  0.4778727E+02  0.7816164E-02  0.1312668E+00
        -11   -1    0    0    0    0  0.00000000000E+00  0.00000000000E+00  0.45593999997E+02  0.45594000000E+02  0.51100000000E-03 0.  1.
         11   -1    0    0    0    0 -0.00000000000E+00 -0.00000000000E+00 -0.45593999997E+02  0.45594000000E+02  0.51100000000E-03 0. -1.
    9900012    2    1    2    0    0  0.34298126466E+02  0.75726023624E+01 -0.25493478609E+02  0.47787271467E+02  0.20000001926E+02 0.  0.
        -12    1    1    2    0    0 -0.34298126466E+02 -0.75726023624E+01  0.25493478609E+02  0.43400728533E+02  0.00000000000E+00 0.  1.
         11    1    3    3    0    0  0.80011948045E+01  0.16012250783E+00 -0.60066801303E+01  0.10006246248E+02  0.51100000000E-03 0. -1.
        -11    1    3    3    0    0  0.18214721960E+02  0.73535228336E+01 -0.36194261418E+01  0.19973748772E+02  0.51100000000E-03 0.  1.
        -12    1    3    3    0    0  0.80822097012E+01  0.58957020909E-01 -0.15867372337E+02  0.17807276447E+02  0.00000000000E+00 0.  1.
</event>
<event>
 7    1  0.3884463E-009  0.4778727E+02  0.7816164E-02  0.1312668E+00
        -11   -1    0    0    0    0  0.00000000000E+00  0.00000000000E+00  0.45593999997E+02  0.45594000000E+02  0.51100000000E-03 0.  1.
         11   -1    0    0    0    0 -0.00000000000E+00 -0.00000000000E+00 -0.45593999997E+02  0.45594000000E+02  0.51100000000E-03 0. -1.
    9900012    2    1    2    0    0  0.14126590215E+01 -0.29587360653E+02 -0.31720900938E+02  0.47787273367E+02  0.20000010589E+02 0.  0.
        -12    1    1    2    0    0 -0.14126590215E+01  0.29587360653E+02  0.31720900938E+02  0.43400726633E+02  0.00000000000E+00 0.  1.
         11    1    3    3    0    0  0.12771547117E+01 -0.18103383524E+02 -0.16657727335E+02  0.24634193703E+02  0.51100000000E-03 0. -1.
        -11    1    3    3    0    0 -0.16841486630E+01 -0.13037758413E+02 -0.73157956204E+01  0.15044612557E+02  0.51100000000E-03 0.  1.
        -12    1    3    3    0    0  0.18196529728E+01  0.15537812837E+01 -0.77473779833E+01  0.81084671076E+01  0.00000000000E+00 0.  1.
</event>
<event>
 7    1  0.3884463E-009  0.4778727E+02  0.7816164E-02  0.1312668E+00
        -11   -1    0    0    0    0  0.00000000000E+00  0.00000000000E+00  0.45593999997E+02  0.45594000000E+02  0.51100000000E-03 0. -1.
         11   -1    0    0    0    0 -0.00000000000E+00 -0.00000000000E+00 -0.45593999997E+02  0.45594000000E+02  0.51100000000E-03 0.  1.
    9900012    2    1    2    0    0 -0.39452743673E+02 -0.40293252206E+01 -0.17631485352E+02  0.47787265896E+02  0.19999976525E+02 0.  0.
        -12    1    1    2    0    0  0.39452743673E+02  0.40293252206E+01  0.17631485352E+02  0.43400734104E+02  0.00000000000E+00 0.  1.
         11    1    3    3    0    0  0.56943128084E+00  0.19541682749E+01  0.27844771695E+00  0.20543999178E+01  0.51100000000E-03 0. -1.
        -11    1    3    3    0    0 -0.13539634958E+02 -0.45493779700E+01 -0.10844584852E+01  0.14324615359E+02  0.51100000000E-03 0.  1.
         12    1    3    3    0    0 -0.26482539996E+02 -0.14341155255E+01 -0.16825474584E+02  0.31408250619E+02  0.00000000000E+00 0. -1.
</event>
<event>
 7    1  0.3884463E-009  0.4778727E+02  0.7816164E-02  0.1312668E+00
        -11   -1    0    0    0    0  0.00000000000E+00  0.00000000000E+00  0.45593999997E+02  0.45594000000E+02  0.51100000000E-03 0.  1.
         11   -1    0    0    0    0 -0.00000000000E+00 -0.00000000000E+00 -0.45593999997E+02  0.45594000000E+02  0.51100000000E-03 0. -1.
    9900012    2    1    2    0    0 -0.34975177956E+02  0.23070100103E+02  0.11319474089E+02  0.47787273215E+02  0.20000009896E+02 0.  0.
        -12    1    1    2    0    0  0.34975177956E+02 -0.23070100103E+02 -0.11319474089E+02  0.43400726785E+02  0.00000000000E+00 0.  1.
         11    1    3    3    0    0 -0.88967526874E+01 -0.51167207231E+00  0.81252280846E+01  0.12059574967E+02  0.51100000000E-03 0. -1.
        -11    1    3    3    0    0 -0.29711888778E+01  0.38503136401E+01  0.21684602631E+01  0.53249505771E+01  0.51100000000E-03 0.  1.
         12    1    3    3    0    0 -0.23107236391E+02  0.19731458536E+02  0.10257857413E+01  0.30402747671E+02  0.00000000000E+00 0. -1.
</event>
<event>
 7    1  0.3884463E-009  0.4778727E+02  0.7816164E-02  0.1312668E+00
        -11   -1    0    0    0    0  0.00000000000E+00  0.00000000000E+00  0.45593999997E+02  0.45594000000E+02  0.51100000000E-03 0.  1.
         11   -1    0    0    0    0 -0.00000000000E+00 -0.00000000000E+00 -0.45593999997E+02  0.45594000000E+02  0.51100000000E-03 0. -1.
    9900012    2    1    2    0    0  0.93210854834E+01 -0.14485887225E+02 -0.39835909138E+02  0.47787271663E+02  0.20000002821E+02 0.  0.
        -12    1    1    2    0    0 -0.93210854834E+01  0.14485887225E+02  0.39835909138E+02  0.43400728337E+02  0.00000000000E+00 0.  1.
         11    1    3    3    0    0  0.22100016953E+01 -0.22341588820E+00  0.56911393304E+00  0.22930139734E+01  0.51100000000E-03 0. -1.
        -11    1    3    3    0    0  0.93757073306E+00 -0.35155138125E+01 -0.45602933780E+00  0.36668568643E+01  0.51100000000E-03 0.  1.
         12    1    3    3    0    0  0.61735130551E+01 -0.10746957524E+02 -0.39948993734E+02  0.41827400825E+02  0.00000000000E+00 0. -1.
</event>
<event>
 7    1  0.3884463E-009  0.4778727E+02  0.7816164E-02  0.1312668E+00
        -11   -1    0    0    0    0  0.00000000000E+00  0.00000000000E+00  0.45593999997E+02  0.45594000000E+02  0.51100000000E-03 0.  1.
         11   -1    0    0    0    0 -0.00000000000E+00 -0.00000000000E+00 -0.45593999997E+02  0.45594000000E+02  0.51100000000E-03 0. -1.
    9900012    2    1    2    0    0  0.27235802422E+02  0.10540524968E+02 -0.32105012725E+02  0.47787269105E+02  0.19999991158E+02 0.  0.
        -12    1    1    2    0    0 -0.27235802422E+02 -0.10540524968E+02  0.32105012725E+02  0.43400730895E+02  0.00000000000E+00 0.  1.
         11    1    3    3    0    0  0.12824720464E+02  0.16784851564E+01 -0.14509013368E+02  0.19437135503E+02  0.51100000000E-03 0. -1.
        -11    1    3    3    0    0  0.19029900351E+01  0.33706877942E+00 -0.12089057229E+02  0.12242560655E+02  0.51100000000E-03 0.  1.
        -12    1    3    3    0    0  0.12508091923E+02  0.85249710318E+01 -0.55069421275E+01  0.16107572947E+02  0.00000000000E+00 0.  1.
</event>
<event>
 7    1  0.3884463E-009  0.4778727E+02  0.7816164E-02  0.1312668E+00
        -11   -1    0    0    0    0  0.00000000000E+00  0.00000000000E+00  0.45593999997E+02  0.45594000000E+02  0.51100000000E-03 0.  1.
         11   -1    0    0    0    0 -0.00000000000E+00 -0.00000000000E+00 -0.45593999997E+02  0.45594000000E+02  0.51100000000E-03 0. -1.
    9900012    2    1    2    0    0  0.23696771538E+02  0.33048664346E+02 -0.15161530404E+02  0.47787271889E+02  0.20000003851E+02 0.  0.
        -12    1    1    2    0    0 -0.23696771538E+02 -0.33048664346E+02  0.15161530404E+02  0.43400728111E+02  0.00000000000E+00 0.  1.
         11    1    3    3    0    0  0.20918128258E+02  0.26611690097E+02 -0.90426698144E+01  0.35035981751E+02  0.51100000000E-03 0. -1.
        -11    1    3    3    0    0  0.57467288135E+01  0.57121835043E+01 -0.40249320728E+01  0.90473206472E+01  0.51100000000E-03 0.  1.
        -12    1    3    3    0    0 -0.29680855331E+01  0.72479074452E+00 -0.20939285169E+01  0.37039694908E+01  0.00000000000E+00 0.  1.
</event>
<event>
 7    1  0.3884463E-009  0.4778727E+02  0.7816164E-02  0.1312668E+00
        -11   -1    0    0    0    0  0.00000000000E+00  0.00000000000E+00  0.45593999997E+02  0.45594000000E+02  0.51100000000E-03 0.  1.
         11   -1    0    0    0    0 -0.00000000000E+00 -0.00000000000E+00 -0.45593999997E+02  0.45594000000E+02  0.51100000000E-03 0. -1.
    9900012    2    1    2    0    0 -0.34697832837E+02 -0.19423914650E+02 -0.17389518162E+02  0.47787269524E+02  0.19999993068E+02 0.  0.
        -12    1    1    2    0    0  0.34697832837E+02  0.19423914650E+02  0.17389518162E+02  0.43400730476E+02  0.00000000000E+00 0.  1.
         11    1    3    3    0    0 -0.54415923858E+01  0.20755949436E+01 -0.42309699554E+01  0.71986199432E+01  0.51100000000E-03 0.  1.
        -11    1    3    3    0    0 -0.16222855188E+02 -0.42403651352E+01 -0.59028497145E+01  0.17776539650E+02  0.51100000000E-03 0. -1.
        -12    1    3    3    0    0 -0.13033385264E+02 -0.17259144459E+02 -0.72556984919E+01  0.22812109931E+02  0.00000000000E+00 0.  1.
</event>
<event>
 7    1  0.3884463E-009  0.4778727E+02  0.7816164E-02  0.1312668E+00
        -11   -1    0    0    0    0  0.00000000000E+00  0.00000000000E+00  0.45593999997E+02  0.45594000000E+02  0.51100000000E-03 0.  1.
         11   -1    0    0    0    0 -0.00000000000E+00 -0.00000000000E+00 -0.45593999997E+02  0.45594000000E+02  0.51100000000E-03 0. -1.
    9900012    2    1    2    0    0  0.26084602856E+02 -0.30186178460E+02 -0.17088343160E+02  0.47787270189E+02  0.19999996101E+02 0.  0.
        -12    1    1    2    0    0 -0.26084602856E+02  0.30186178460E+02  0.17088343160E+02  0.43400729811E+02  0.00000000000E+00 0.  1.
         11    1    3    3    0    0  0.21218923767E+01 -0.27417368357E+01 -0.42511364186E+00  0.34928884901E+01  0.51100000000E-03 0. -1.
        -11    1    3    3    0    0  0.92376436658E+01 -0.18117219611E+02 -0.17520431127E+02  0.26842749749E+02  0.51100000000E-03 0.  1.
        -12    1    3    3    0    0  0.14725066813E+02 -0.93272220128E+01  0.85720160884E+00  0.17451631950E+02  0.00000000000E+00 0.  1.
</event>
<event>
 7    1  0.3884463E-009  0.4778727E+02  0.7816164E-02  0.1312668E+00
        -11   -1    0    0    0    0  0.00000000000E+00  0.00000000000E+00  0.45593999997E+02  0.45594000000E+02  0.51100000000E-03 0.  1.
         11   -1    0    0    0    0 -0.00000000000E+00 -0.00000000000E+00 -0.45593999997E+02  0.45594000000E+02  0.51100000000E-03 0. -1.
    9900012    2    1    2    0    0 -0.52026190653E+01  0.10575344958E+02 -0.41769821943E+02  0.47787271996E+02  0.20000004341E+02 0.  0.
        -12    1    1    2    0    0  0.52026190653E+01 -0.10575344958E+02  0.41769821943E+02  0.43400728004E+02  0.00000000000E+00 0.  1.
         11    1    3    3    0    0  0.27026261579E+01  0.95927236761E+01 -0.33399241297E+02  0.34854466789E+02  0.51100000000E-03 0. -1.
        -11    1    3    3    0    0 -0.51305069685E+00 -0.13401309984E+01 -0.34946159820E+01  0.37777656403E+01  0.51100000000E-03 0.  1.
        -12    1    3    3    0    0 -0.73921945264E+01  0.23227522801E+01 -0.48759646632E+01  0.91550395667E+01  0.00000000000E+00 0.  1.
</event>
<event>
 7    1  0.3884463E-009  0.4778727E+02  0.7816164E-02  0.1312668E+00
        -11   -1    0    0    0    0  0.00000000000E+00  0.00000000000E+00  0.45593999997E+02  0.45594000000E+02  0.51100000000E-03 0.  1.
         11   -1    0    0    0    0 -0.00000000000E+00 -0.00000000000E+00 -0.45593999997E+02  0.45594000000E+02  0.51100000000E-03 0. -1.
    9900012    2    1    2    0    0 -0.27391380626E+02 -0.28853804441E+02 -0.17343392495E+02  0.47787273893E+02  0.20000012990E+02 0.  0.
        -12    1    1    2    0    0  0.27391380626E+02  0.28853804441E+02  0.17343392495E+02  0.43400726107E+02  0.00000000000E+00 0.  1.
         11    1    3    3    0    0 -0.93830678972E+01 -0.82641709031E+01 -0.23816191546E+01  0.12728338224E+02  0.51100000000E-03 0.  1.
        -11    1    3    3    0    0 -0.20707701441E+02 -0.15285536315E+02 -0.11707278592E+02  0.28275729728E+02  0.51100000000E-03 0. -1.
        -12    1    3    3    0    0  0.26993887118E+01 -0.53040972235E+01 -0.32544947491E+01  0.67832059416E+01  0.00000000000E+00 0.  1.
</event>
<event>
 7    1  0.3884463E-009  0.4778727E+02  0.7816164E-02  0.1312668E+00
        -11   -1    0    0    0    0  0.00000000000E+00  0.00000000000E+00  0.45593999997E+02  0.45594000000E+02  0.51100000000E-03 0.  1.
         11   -1    0    0    0    0 -0.00000000000E+00 -0.00000000000E+00 -0.45593999997E+02  0.45594000000E+02  0.51100000000E-03 0. -1.
    9900012    2    1    2    0    0 -0.68697561176E+01  0.54845306037E+01 -0.42501174916E+02  0.47787268505E+02  0.19999988421E+02 0.  0.
        -12    1    1    2    0    0  0.68697561176E+01 -0.54845306037E+01  0.42501174916E+02  0.43400731495E+02  0.00000000000E+00 0.  1.
         11    1    3    3    0    0 -0.20592997994E+01 -0.30605686906E+01 -0.46050867665E+01  0.59003915770E+01  0.51100000000E-03 0.  1.
        -11    1    3    3    0    0  0.62651534408E-01 -0.41252559717E+01 -0.67510931577E+01  0.79119479985E+01  0.51100000000E-03 0. -1.
         12    1    3    3    0    0 -0.48731078526E+01  0.12670355266E+02 -0.31144994992E+02  0.33974928929E+02  0.00000000000E+00 0. -1.
</event>
<event>
 7    1  0.3884463E-009  0.4778727E+02  0.7816164E-02  0.1312668E+00
        -11   -1    0    0    0    0  0.00000000000E+00  0.00000000000E+00  0.45593999997E+02  0.45594000000E+02  0.51100000000E-03 0. -1.
         11   -1    0    0    0    0 -0.00000000000E+00 -0.00000000000E+00 -0.45593999997E+02  0.45594000000E+02  0.51100000000E-03 0.  1.
    9900012    2    1    2    0    0 -0.22964381452E+02  0.23088212973E+02  0.28691375624E+02  0.47787269258E+02  0.19999991854E+02 0.  0.
        -12    1    1    2    0    0  0.22964381452E+02 -0.23088212973E+02 -0.28691375624E+02  0.43400730742E+02  0.00000000000E+00 0.  1.
         11    1    3    3    0    0 -0.43165062920E+01  0.10382820073E+02  0.92204400820E+01  0.14541378711E+02  0.51100000000E-03 0. -1.
        -11    1    3    3    0    0 -0.12912884729E+02  0.12592053190E+02  0.66902266560E+01  0.19236983353E+02  0.51100000000E-03 0.  1.
        -12    1    3    3    0    0 -0.57349904316E+01  0.11333970955E+00  0.12780708886E+02  0.14008907194E+02  0.00000000000E+00 0.  1.
</event>
<event>
 7    1  0.3884463E-009  0.4778727E+02  0.7816164E-02  0.1312668E+00
        -11   -1    0    0    0    0  0.00000000000E+00  0.00000000000E+00  0.45593999997E+02  0.45594000000E+02  0.51100000000E-03 0.  1.
         11   -1    0    0    0    0 -0.00000000000E+00 -0.00000000000E+00 -0.45593999997E+02  0.45594000000E+02  0.51100000000E-03 0. -1.
    9900012    2    1    2    0    0 -0.62922878736E+01 -0.15184140208E+02 -0.40168048958E+02  0.47787272384E+02  0.20000006106E+02 0.  0.
        -12    1    1    2    0    0  0.62922878736E+01  0.15184140208E+02  0.40168048958E+02  0.43400727616E+02  0.00000000000E+00 0.  1.
         11    1    3    3    0    0 -0.85809578854E+01 -0.14893751668E+02 -0.26438117187E+02  0.31534595568E+02  0.51100000000E-03 0. -1.
        -11    1    3    3    0    0  0.15051143819E+01 -0.30437261280E+01 -0.12800060228E+02  0.13242778415E+02  0.51100000000E-03 0.  1.
         12    1    3    3    0    0  0.78355562995E+00  0.27533375879E+01 -0.92987154310E+00  0.30098984011E+01  0.00000000000E+00 0. -1.
</event>
<event>
 7    1  0.3884463E-009  0.4778727E+02  0.7816164E-02  0.1312668E+00
        -11   -1    0    0    0    0  0.00000000000E+00  0.00000000000E+00  0.45593999997E+02  0.45594000000E+02  0.51100000000E-03 0.  1.
         11   -1    0    0    0    0 -0.00000000000E+00 -0.00000000000E+00 -0.45593999997E+02  0.45594000000E+02  0.51100000000E-03 0. -1.
    9900012    2    1    2    0    0  0.11518126611E+02 -0.41608521881E+02  0.44369710787E+01  0.47787273668E+02  0.20000011962E+02 0.  0.
        -12    1    1    2    0    0 -0.11518126611E+02  0.41608521881E+02 -0.44369710787E+01  0.43400726332E+02  0.00000000000E+00 0.  1.
         11    1    3    3    0    0  0.51571960067E+01 -0.12206804291E+02 -0.93303102215E+00  0.13284324928E+02  0.51100000000E-03 0. -1.
        -11    1    3    3    0    0  0.24811198841E+01 -0.29060328540E+02  0.18032626245E+01  0.29221745449E+02  0.51100000000E-03 0.  1.
        -12    1    3    3    0    0  0.38798107201E+01 -0.34138905040E+00  0.35667394763E+01  0.52812032909E+01  0.00000000000E+00 0.  1.
</event>
<event>
 7    1  0.3884463E-009  0.4778727E+02  0.7816164E-02  0.1312668E+00
        -11   -1    0    0    0    0  0.00000000000E+00  0.00000000000E+00  0.45593999997E+02  0.45594000000E+02  0.51100000000E-03 0.  1.
         11   -1    0    0    0    0 -0.00000000000E+00 -0.00000000000E+00 -0.45593999997E+02  0.45594000000E+02  0.51100000000E-03 0. -1.
    9900012    2    1    2    0    0  0.13330067473E+02 -0.37660459884E+02 -0.16959433229E+02  0.47787270594E+02  0.19999997948E+02 0.  0.
        -12    1    1    2    0    0 -0.13330067473E+02  0.37660459884E+02  0.16959433229E+02  0.43400729406E+02  0.00000000000E+00 0.  1.
         11    1    3    3    0    0  0.83541038207E+01 -0.29664832879E+02 -0.12597481889E+02  0.33293992110E+02  0.51100000000E-03 0. -1.
        -11    1    3    3    0    0  0.73284359547E+01 -0.86420332271E+01 -0.31041847071E+01  0.11748475424E+02  0.51100000000E-03 0.  1.
        -12    1    3    3    0    0 -0.23524723021E+01  0.64640622277E+00 -0.12577666328E+01  0.27448030603E+01  0.00000000000E+00 0.  1.
</event>
<event>
 7    1  0.3884463E-009  0.4778726E+02  0.7816164E-02  0.1312668E+00
        -11   -1    0    0    0    0  0.00000000000E+00  0.00000000000E+00  0.45593999997E+02  0.45594000000E+02  0.51100000000E-03 0.  1.
         11   -1    0    0    0    0 -0.00000000000E+00 -0.00000000000E+00 -0.45593999997E+02  0.45594000000E+02  0.51100000000E-03 0. -1.
    9900012    2    1    2    0    0  0.21198841742E+02 -0.50129466846E+01 -0.37538026536E+02  0.47787263119E+02  0.19999963863E+02 0.  0.
        -12    1    1    2    0    0 -0.21198841742E+02  0.50129466846E+01  0.37538026536E+02  0.43400736881E+02  0.00000000000E+00 0.  1.
         11    1    3    3    0    0  0.12692931963E+02 -0.13832979595E+01 -0.20254710096E+02  0.23943210235E+02  0.51100000000E-03 0. -1.
        -11    1    3    3    0    0  0.33268130515E+01  0.51078424944E+01 -0.82024092411E+01  0.10219454861E+02  0.51100000000E-03 0.  1.
        -12    1    3    3    0    0  0.51790967278E+01 -0.87374912195E+01 -0.90809071988E+01  0.13624598023E+02  0.00000000000E+00 0.  1.
</event>
<event>
 7    1  0.3884463E-009  0.4778727E+02  0.7816164E-02  0.1312668E+00
        -11   -1    0    0    0    0  0.00000000000E+00  0.00000000000E+00  0.45593999997E+02  0.45594000000E+02  0.51100000000E-03 0.  1.
         11   -1    0    0    0    0 -0.00000000000E+00 -0.00000000000E+00 -0.45593999997E+02  0.45594000000E+02  0.51100000000E-03 0. -1.
    9900012    2    1    2    0    0 -0.55748913737E+01  0.17451579990E+02 -0.39344455032E+02  0.47787271899E+02  0.20000003895E+02 0.  0.
        -12    1    1    2    0    0  0.55748913737E+01 -0.17451579990E+02  0.39344455032E+02  0.43400728101E+02  0.00000000000E+00 0.  1.
         11    1    3    3    0    0 -0.25765538251E+01  0.16372441576E+02 -0.26686128781E+02  0.31414088278E+02  0.51100000000E-03 0. -1.
        -11    1    3    3    0    0 -0.38111238332E+00  0.52064065827E+01 -0.84056975843E+01  0.98948303822E+01  0.51100000000E-03 0.  1.
        -12    1    3    3    0    0 -0.26172251652E+01 -0.41272681690E+01 -0.42526286663E+01  0.64783532381E+01  0.00000000000E+00 0.  1.
</event>
<event>
 7    1  0.3884463E-009  0.4778727E+02  0.7816164E-02  0.1312668E+00
        -11   -1    0    0    0    0  0.00000000000E+00  0.00000000000E+00  0.45593999997E+02  0.45594000000E+02  0.51100000000E-03 0.  1.
         11   -1    0    0    0    0 -0.00000000000E+00 -0.00000000000E+00 -0.45593999997E+02  0.45594000000E+02  0.51100000000E-03 0. -1.
    9900012    2    1    2    0    0  0.28983332811E+02  0.18546419857E+02 -0.26450332639E+02  0.47787269971E+02  0.19999995106E+02 0.  0.
        -12    1    1    2    0    0 -0.28983332811E+02 -0.18546419857E+02  0.26450332639E+02  0.43400730029E+02  0.00000000000E+00 0.  1.
         11    1    3    3    0    0  0.14384633041E+02  0.24223185611E+01 -0.38781967293E+01  0.15093896285E+02  0.51100000000E-03 0. -1.
        -11    1    3    3    0    0  0.59453497794E+01  0.48832082573E+01 -0.24517005469E+01  0.80748834491E+01  0.51100000000E-03 0.  1.
        -12    1    3    3    0    0  0.86533499906E+01  0.11240893038E+02 -0.20120435362E+02  0.24618490237E+02  0.00000000000E+00 0.  1.
</event>
<event>
 7    1  0.3884463E-009  0.4778727E+02  0.7816164E-02  0.1312668E+00
        -11   -1    0    0    0    0  0.00000000000E+00  0.00000000000E+00  0.45593999997E+02  0.45594000000E+02  0.51100000000E-03 0.  1.
         11   -1    0    0    0    0 -0.00000000000E+00 -0.00000000000E+00 -0.45593999997E+02  0.45594000000E+02  0.51100000000E-03 0. -1.
    9900012    2    1    2    0    0 -0.21633354776E+02  0.87528837132E+01 -0.36592466558E+02  0.47787267046E+02  0.19999981771E+02 0.  0.
        -12    1    1    2    0    0  0.21633354776E+02 -0.87528837132E+01  0.36592466558E+02  0.43400732954E+02  0.00000000000E+00 0.  1.
         11    1    3    3    0    0 -0.11596191868E+02  0.11571683843E+02 -0.27036629038E+02  0.31612574125E+02  0.51100000000E-03 0. -1.
        -11    1    3    3    0    0  0.49109459017E+00 -0.77534827405E+00 -0.39851635126E+01  0.40894825254E+01  0.51100000000E-03 0.  1.
         12    1    3    3    0    0 -0.10528257498E+02 -0.20434518554E+01 -0.55706740066E+01  0.12085210396E+02  0.00000000000E+00 0. -1.
</event>
<event>
 7    1  0.3884463E-009  0.4778726E+02  0.7816164E-02  0.1312668E+00
        -11   -1    0    0    0    0  0.00000000000E+00  0.00000000000E+00  0.45593999997E+02  0.45594000000E+02  0.51100000000E-03 0.  1.
         11   -1    0    0    0    0 -0.00000000000E+00 -0.00000000000E+00 -0.45593999997E+02  0.45594000000E+02  0.51100000000E-03 0. -1.
    9900012    2    1    2    0    0 -0.58955338804E+01 -0.40671974207E+02 -0.13951953372E+02  0.47787264885E+02  0.19999971916E+02 0.  0.
        -12    1    1    2    0    0  0.58955338804E+01  0.40671974207E+02  0.13951953372E+02  0.43400735115E+02  0.00000000000E+00 0.  1.
         11    1    3    3    0    0 -0.16815715648E+01 -0.22597409775E+02 -0.87209535967E+01  0.24280149163E+02  0.51100000000E-03 0.  1.
        -11    1    3    3    0    0 -0.35518043159E+01 -0.19282473526E+02 -0.73839713774E+01  0.20951184519E+02  0.51100000000E-03 0. -1.
        -12    1    3    3    0    0 -0.66215799980E+00  0.12079090935E+01  0.21529716025E+01  0.25559312033E+01  0.00000000000E+00 0.  1.
</event>
<event>
 7    1  0.3884463E-009  0.4778730E+02  0.7816164E-02  0.1312668E+00
        -11   -1    0    0    0    0  0.00000000000E+00  0.00000000000E+00  0.45593999997E+02  0.45594000000E+02  0.51100000000E-03 0.  1.
         11   -1    0    0    0    0 -0.00000000000E+00 -0.00000000000E+00 -0.45593999997E+02  0.45594000000E+02  0.51100000000E-03 0. -1.
    9900012    2    1    2    0    0  0.19978231753E+02  0.37910584477E+02  0.68759320452E+01  0.47787301839E+02  0.20000140405E+02 0.  0.
        -12    1    1    2    0    0 -0.19978231753E+02 -0.37910584477E+02 -0.68759320452E+01  0.43400698161E+02  0.00000000000E+00 0.  1.
         11    1    3    3    0    0  0.36933452657E+01  0.74444633533E+01  0.42412902711E+01  0.93300255785E+01  0.51100000000E-03 0. -1.
        -11    1    3    3    0    0  0.35760789911E+01 -0.13812472597E+01 -0.10381857105E+01  0.39716513912E+01  0.51100000000E-03 0.  1.
        -12    1    3    3    0    0  0.12708807496E+02  0.31847368383E+02  0.36728274845E+01  0.34485624870E+02  0.00000000000E+00 0.  1.
</event>
<event>
 7    1  0.3884463E-009  0.4778727E+02  0.7816164E-02  0.1312668E+00
        -11   -1    0    0    0    0  0.00000000000E+00  0.00000000000E+00  0.45593999997E+02  0.45594000000E+02  0.51100000000E-03 0.  1.
         11   -1    0    0    0    0 -0.00000000000E+00 -0.00000000000E+00 -0.45593999997E+02  0.45594000000E+02  0.51100000000E-03 0. -1.
    9900012    2    1    2    0    0 -0.28917927122E+02  0.30641697138E+02  0.10414569693E+02  0.47787269886E+02  0.19999994718E+02 0.  0.
        -12    1    1    2    0    0  0.28917927122E+02 -0.30641697138E+02 -0.10414569693E+02  0.43400730114E+02  0.00000000000E+00 0.  1.
         11    1    3    3    0    0 -0.29639690392E+02  0.25011676037E+02  0.47353210064E+01  0.39070685302E+02  0.51100000000E-03 0. -1.
        -11    1    3    3    0    0 -0.10304911915E+00  0.12166895599E+01 -0.28252414624E+00  0.12533047357E+01  0.51100000000E-03 0.  1.
         12    1    3    3    0    0  0.82481238904E+00  0.44133315413E+01  0.59617728331E+01  0.74632798476E+01  0.00000000000E+00 0. -1.
</event>
<event>
 7    1  0.3884463E-009  0.4778728E+02  0.7816164E-02  0.1312668E+00
        -11   -1    0    0    0    0  0.00000000000E+00  0.00000000000E+00  0.45593999997E+02  0.45594000000E+02  0.51100000000E-03 0.  1.
         11   -1    0    0    0    0 -0.00000000000E+00 -0.00000000000E+00 -0.45593999997E+02  0.45594000000E+02  0.51100000000E-03 0. -1.
    9900012    2    1    2    0    0  0.36183269072E+02  0.23816725114E+01 -0.23847878104E+02  0.47787278638E+02  0.20000034621E+02 0.  0.
        -12    1    1    2    0    0 -0.36183269072E+02 -0.23816725114E+01  0.23847878104E+02  0.43400721362E+02  0.00000000000E+00 0.  1.
         11    1    3    3    0    0  0.81875392002E+01 -0.66837716541E+01 -0.48354059798E+01  0.11622811748E+02  0.51100000000E-03 0. -1.
        -11    1    3    3    0    0  0.16551383940E+02  0.79161051337E+00 -0.11487332516E+02  0.20162682513E+02  0.51100000000E-03 0.  1.
        -12    1    3    3    0    0  0.11444345932E+02  0.82738336521E+01 -0.75251396081E+01  0.16001784377E+02  0.00000000000E+00 0.  1.
</event>
<event>
 7    1  0.3884463E-009  0.4778728E+02  0.7816164E-02  0.1312668E+00
        -11   -1    0    0    0    0  0.00000000000E+00  0.00000000000E+00  0.45593999997E+02  0.45594000000E+02  0.51100000000E-03 0.  1.
         11   -1    0    0    0    0 -0.00000000000E+00 -0.00000000000E+00 -0.45593999997E+02  0.45594000000E+02  0.51100000000E-03 0. -1.
    9900012    2    1    2    0    0  0.33813183295E+02  0.14418076926E+02 -0.23074006429E+02  0.47787284805E+02  0.20000062739E+02 0.  0.
        -12    1    1    2    0    0 -0.33813183295E+02 -0.14418076926E+02  0.23074006429E+02  0.43400715195E+02  0.00000000000E+00 0.  1.
         11    1    3    3    0    0  0.34260889223E+01 -0.35390834643E+01 -0.18711168807E+01  0.52691816929E+01  0.51100000000E-03 0. -1.
        -11    1    3    3    0    0  0.11276460433E+01  0.40836986460E+01 -0.41065734169E+01  0.59001801430E+01  0.51100000000E-03 0.  1.
        -12    1    3    3    0    0  0.29259448329E+02  0.13873461744E+02 -0.17096316132E+02  0.36617922969E+02  0.00000000000E+00 0.  1.
</event>
<event>
 7    1  0.3884463E-009  0.4778727E+02  0.7816164E-02  0.1312668E+00
        -11   -1    0    0    0    0  0.00000000000E+00  0.00000000000E+00  0.45593999997E+02  0.45594000000E+02  0.51100000000E-03 0.  1.
         11   -1    0    0    0    0 -0.00000000000E+00 -0.00000000000E+00 -0.45593999997E+02  0.45594000000E+02  0.51100000000E-03 0. -1.
    9900012    2    1    2    0    0 -0.25222612799E+02  0.18413573915E+02 -0.30139403376E+02  0.47787268018E+02  0.19999986201E+02 0.  0.
        -12    1    1    2    0    0  0.25222612799E+02 -0.18413573915E+02  0.30139403376E+02  0.43400731982E+02  0.00000000000E+00 0.  1.
         11    1    3    3    0    0 -0.18303141926E+01  0.75813381536E+01 -0.10077408278E+02  0.12742876289E+02  0.51100000000E-03 0. -1.
        -11    1    3    3    0    0 -0.90537822042E+01  0.10391060468E+02 -0.62585365010E+01  0.15136525006E+02  0.51100000000E-03 0.  1.
         12    1    3    3    0    0 -0.14338516402E+02  0.44117529297E+00 -0.13803458597E+02  0.19907866724E+02  0.00000000000E+00 0. -1.
</event>
<event>
 7    1  0.3884463E-009  0.4778727E+02  0.7816164E-02  0.1312668E+00
        -11   -1    0    0    0    0  0.00000000000E+00  0.00000000000E+00  0.45593999997E+02  0.45594000000E+02  0.51100000000E-03 0.  1.
         11   -1    0    0    0    0 -0.00000000000E+00 -0.00000000000E+00 -0.45593999997E+02  0.45594000000E+02  0.51100000000E-03 0. -1.
    9900012    2    1    2    0    0  0.28215489972E+02  0.42099172252E+01 -0.32707590144E+02  0.47787265785E+02  0.19999976019E+02 0.  0.
        -12    1    1    2    0    0 -0.28215489972E+02 -0.42099172252E+01  0.32707590144E+02  0.43400734215E+02  0.00000000000E+00 0.  1.
         11    1    3    3    0    0  0.76903861805E+01 -0.26775581689E+01 -0.81509540946E+01  0.11521693030E+02  0.51100000000E-03 0. -1.
        -11    1    3    3    0    0  0.10996551653E+02 -0.18626174374E+01 -0.37530919212E+01  0.11767718182E+02  0.51100000000E-03 0.  1.
        -12    1    3    3    0    0  0.95285521390E+01  0.87500928316E+01 -0.20803544128E+02  0.24497854573E+02  0.00000000000E+00 0.  1.
</event>
<event>
 7    1  0.3884463E-009  0.4778726E+02  0.7816164E-02  0.1312668E+00
        -11   -1    0    0    0    0  0.00000000000E+00  0.00000000000E+00  0.45593999997E+02  0.45594000000E+02  0.51100000000E-03 0. -1.
         11   -1    0    0    0    0 -0.00000000000E+00 -0.00000000000E+00 -0.45593999997E+02  0.45594000000E+02  0.51100000000E-03 0.  1.
    9900012    2    1    2    0    0 -0.30501017433E+02  0.20999703503E+02  0.22634597536E+02  0.47787255568E+02  0.19999929437E+02 0.  0.
        -12    1    1    2    0    0  0.30501017433E+02 -0.20999703503E+02 -0.22634597536E+02  0.43400744432E+02  0.00000000000E+00 0.  1.
         11    1    3    3    0    0 -0.36021406422E+01  0.30549843285E+01  0.26648145320E+01  0.54230603172E+01  0.51100000000E-03 0. -1.
        -11    1    3    3    0    0 -0.51813988634E+01  0.40930098294E+01  0.14639361609E+02  0.16059593153E+02  0.51100000000E-03 0.  1.
        -12    1    3    3    0    0 -0.21717477927E+02  0.13851709345E+02  0.53304213947E+01  0.26304602098E+02  0.00000000000E+00 0.  1.
</event>
<event>
 7    1  0.3884463E-009  0.4778727E+02  0.7816164E-02  0.1312668E+00
        -11   -1    0    0    0    0  0.00000000000E+00  0.00000000000E+00  0.45593999997E+02  0.45594000000E+02  0.51100000000E-03 0.  1.
         11   -1    0    0    0    0 -0.00000000000E+00 -0.00000000000E+00 -0.45593999997E+02  0.45594000000E+02  0.51100000000E-03 0. -1.
    9900012    2    1    2    0    0 -0.38059939977E+02 -0.43702628337E+01 -0.20395230428E+02  0.47787266682E+02  0.19999980112E+02 0.  0.
        -12    1    1    2    0    0  0.38059939977E+02  0.43702628337E+01  0.20395230428E+02  0.43400733318E+02  0.00000000000E+00 0.  1.
         11    1    3    3    0    0 -0.13237818023E+02 -0.28548323898E+01 -0.97265169921E+01  0.16673182871E+02  0.51100000000E-03 0. -1.
        -11    1    3    3    0    0 -0.22953930126E+02  0.16068896466E+01 -0.13342614664E+02  0.26598691112E+02  0.51100000000E-03 0.  1.
        -12    1    3    3    0    0 -0.18681918275E+01 -0.31223200904E+01  0.26739012274E+01  0.45153926989E+01  0.00000000000E+00 0.  1.
</event>
<event>
 7    1  0.3884463E-009  0.4778727E+02  0.7816164E-02  0.1312668E+00
        -11   -1    0    0    0    0  0.00000000000E+00  0.00000000000E+00  0.45593999997E+02  0.45594000000E+02  0.51100000000E-03 0.  1.
         11   -1    0    0    0    0 -0.00000000000E+00 -0.00000000000E+00 -0.45593999997E+02  0.45594000000E+02  0.51100000000E-03 0. -1.
    9900012    2    1    2    0    0 -0.27471196477E+02 -0.54240535012E+01 -0.33159256574E+02  0.47787270873E+02  0.19999999218E+02 0.  0.
        -12    1    1    2    0    0  0.27471196477E+02  0.54240535012E+01  0.33159256574E+02  0.43400729127E+02  0.00000000000E+00 0.  1.
         11    1    3    3    0    0 -0.10210907542E+02 -0.10938832860E+01 -0.16365091097E+02  0.19320336962E+02  0.51100000000E-03 0. -1.
        -11    1    3    3    0    0 -0.15451671774E+02 -0.72341806562E+01 -0.18036241266E+02  0.24827273907E+02  0.51100000000E-03 0.  1.
         12    1    3    3    0    0 -0.18086171606E+01  0.29040104410E+01  0.12420757894E+01  0.36396600035E+01  0.00000000000E+00 0. -1.
</event>
<event>
 7    1  0.3884463E-009  0.4778727E+02  0.7816164E-02  0.1312668E+00
        -11   -1    0    0    0    0  0.00000000000E+00  0.00000000000E+00  0.45593999997E+02  0.45594000000E+02  0.51100000000E-03 0.  1.
         11   -1    0    0    0    0 -0.00000000000E+00 -0.00000000000E+00 -0.45593999997E+02  0.45594000000E+02  0.51100000000E-03 0. -1.
    9900012    2    1    2    0    0  0.26442638264E+02  0.32498948137E+02 -0.11323796572E+02  0.47787272850E+02  0.20000008230E+02 0.  0.
        -12    1    1    2    0    0 -0.26442638264E+02 -0.32498948137E+02  0.11323796572E+02  0.43400727150E+02  0.00000000000E+00 0.  1.
         11    1    3    3    0    0  0.57455146408E+01  0.10592571712E+02  0.78822946035E+00  0.12076208838E+02  0.51100000000E-03 0. -1.
        -11    1    3    3    0    0 -0.15913783350E+00  0.46812363046E+01  0.21249616591E+01  0.51434191452E+01  0.51100000000E-03 0.  1.
         12    1    3    3    0    0  0.20856261457E+02  0.17225140120E+02 -0.14236987692E+02  0.30567644866E+02  0.00000000000E+00 0. -1.
</event>
<event>
 7    1  0.3884463E-009  0.4778727E+02  0.7816164E-02  0.1312668E+00
        -11   -1    0    0    0    0  0.00000000000E+00  0.00000000000E+00  0.45593999997E+02  0.45594000000E+02  0.51100000000E-03 0.  1.
         11   -1    0    0    0    0 -0.00000000000E+00 -0.00000000000E+00 -0.45593999997E+02  0.45594000000E+02  0.51100000000E-03 0. -1.
    9900012    2    1    2    0    0  0.42021870171E+02 -0.36367396828E+01  0.10225451363E+02  0.47787270700E+02  0.19999998429E+02 0.  0.
        -12    1    1    2    0    0 -0.42021870171E+02  0.36367396828E+01 -0.10225451363E+02  0.43400729300E+02  0.00000000000E+00 0.  1.
         11    1    3    3    0    0  0.83805193764E+01 -0.91516997042E+00  0.43112743749E+01  0.94687764832E+01  0.51100000000E-03 0. -1.
        -11    1    3    3    0    0  0.20955663567E+02  0.11890488297E+01  0.11480469997E+02  0.23923939146E+02  0.51100000000E-03 0.  1.
        -12    1    3    3    0    0  0.12685687228E+02 -0.39106185421E+01 -0.55662930089E+01  0.14394555071E+02  0.00000000000E+00 0.  1.
</event>
<event>
 7    1  0.3884463E-009  0.4778727E+02  0.7816164E-02  0.1312668E+00
        -11   -1    0    0    0    0  0.00000000000E+00  0.00000000000E+00  0.45593999997E+02  0.45594000000E+02  0.51100000000E-03 0. -1.
         11   -1    0    0    0    0 -0.00000000000E+00 -0.00000000000E+00 -0.45593999997E+02  0.45594000000E+02  0.51100000000E-03 0.  1.
    9900012    2    1    2    0    0  0.21026354163E+02 -0.17491220502E+02  0.33698266536E+02  0.47787268076E+02  0.19999986464E+02 0.  0.
        -12    1    1    2    0    0 -0.21026354163E+02  0.17491220502E+02 -0.33698266536E+02  0.43400731924E+02  0.00000000000E+00 0.  1.
         11    1    3    3    0    0  0.41475243419E+01 -0.51599388288E+00  0.53929585008E+01  0.68229179613E+01  0.51100000000E-03 0. -1.
        -11    1    3    3    0    0  0.79013210320E+01  0.86889507156E+00  0.14961904814E+02  0.16942386155E+02  0.51100000000E-03 0.  1.
         12    1    3    3    0    0  0.89775087888E+01 -0.17844121690E+02  0.13343403222E+02  0.24021963960E+02  0.00000000000E+00 0. -1.
</event>
<event>
 7    1  0.3884463E-009  0.4778727E+02  0.7816164E-02  0.1312668E+00
        -11   -1    0    0    0    0  0.00000000000E+00  0.00000000000E+00  0.45593999997E+02  0.45594000000E+02  0.51100000000E-03 0. -1.
         11   -1    0    0    0    0 -0.00000000000E+00 -0.00000000000E+00 -0.45593999997E+02  0.45594000000E+02  0.51100000000E-03 0.  1.
    9900012    2    1    2    0    0 -0.87262261512E+01  0.41484287162E+02 -0.93021720147E+01  0.47787268343E+02  0.19999987681E+02 0.  0.
        -12    1    1    2    0    0  0.87262261512E+01 -0.41484287162E+02  0.93021720147E+01  0.43400731657E+02  0.00000000000E+00 0.  1.
         11    1    3    3    0    0 -0.69195910269E+01  0.39731558100E+02 -0.78705981440E+01  0.41090433977E+02  0.51100000000E-03 0. -1.
        -11    1    3    3    0    0 -0.17424218345E+00  0.85642580745E+00 -0.36771174690E+01  0.37795527043E+01  0.51100000000E-03 0.  1.
         12    1    3    3    0    0 -0.16323929409E+01  0.89630325498E+00  0.22455435984E+01  0.29172816612E+01  0.00000000000E+00 0. -1.
</event>
<event>
 7    1  0.3884463E-009  0.4778727E+02  0.7816164E-02  0.1312668E+00
        -11   -1    0    0    0    0  0.00000000000E+00  0.00000000000E+00  0.45593999997E+02  0.45594000000E+02  0.51100000000E-03 0.  1.
         11   -1    0    0    0    0 -0.00000000000E+00 -0.00000000000E+00 -0.45593999997E+02  0.45594000000E+02  0.51100000000E-03 0. -1.
    9900012    2    1    2    0    0 -0.28107420229E+02 -0.16232392023E+02 -0.28811550204E+02  0.47787273648E+02  0.20000011871E+02 0.  0.
        -12    1    1    2    0    0  0.28107420229E+02  0.16232392023E+02  0.28811550204E+02  0.43400726352E+02  0.00000000000E+00 0.  1.
         11    1    3    3    0    0 -0.15004761695E+02 -0.54358177205E+01 -0.14412277003E+02  0.21503597757E+02  0.51100000000E-03 0. -1.
        -11    1    3    3    0    0 -0.13474656574E+02 -0.29128511911E+01 -0.11220833290E+02  0.17775212287E+02  0.51100000000E-03 0.  1.
        -12    1    3    3    0    0  0.37199804103E+00 -0.78837231113E+01 -0.31784399116E+01  0.85084636045E+01  0.00000000000E+00 0.  1.
</event>
<event>
 7    1  0.3884463E-009  0.4778726E+02  0.7816164E-02  0.1312668E+00
        -11   -1    0    0    0    0  0.00000000000E+00  0.00000000000E+00  0.45593999997E+02  0.45594000000E+02  0.51100000000E-03 0.  1.
         11   -1    0    0    0    0 -0.00000000000E+00 -0.00000000000E+00 -0.45593999997E+02  0.45594000000E+02  0.51100000000E-03 0. -1.
    9900012    2    1    2    0    0 -0.28364755876E+02  0.32631318896E+02 -0.37764802175E+01  0.47787260932E+02  0.19999953894E+02 0.  0.
        -12    1    1    2    0    0  0.28364755876E+02 -0.32631318896E+02  0.37764802175E+01  0.43400739068E+02  0.00000000000E+00 0.  1.
         11    1    3    3    0    0 -0.10895345414E+02  0.23769754593E+02 -0.10769868540E+01  0.26170015018E+02  0.51100000000E-03 0.  1.
        -11    1    3    3    0    0 -0.11637524627E+02  0.10177569043E+02 -0.22331781532E+01  0.15620562601E+02  0.51100000000E-03 0. -1.
        -12    1    3    3    0    0 -0.58318858357E+01 -0.13160047400E+01 -0.46631521028E+00  0.59966833126E+01  0.00000000000E+00 0.  1.
</event>
<event>
 7    1  0.3884463E-009  0.4778727E+02  0.7816164E-02  0.1312668E+00
        -11   -1    0    0    0    0  0.00000000000E+00  0.00000000000E+00  0.45593999997E+02  0.45594000000E+02  0.51100000000E-03 0. -1.
         11   -1    0    0    0    0 -0.00000000000E+00 -0.00000000000E+00 -0.45593999997E+02  0.45594000000E+02  0.51100000000E-03 0.  1.
    9900012    2    1    2    0    0 -0.19210109602E+02 -0.23391173389E+02  0.31103830720E+02  0.47787267415E+02  0.19999983453E+02 0.  0.
        -12    1    1    2    0    0  0.19210109602E+02  0.23391173389E+02 -0.31103830720E+02  0.43400732585E+02  0.00000000000E+00 0.  1.
         11    1    3    3    0    0 -0.52174034566E+01 -0.22710640238E+01 -0.85319914440E-01  0.56908971505E+01  0.51100000000E-03 0.  1.
        -11    1    3    3    0    0 -0.12722664479E+02 -0.80431699219E+01  0.18247916282E+02  0.23654708257E+02  0.51100000000E-03 0. -1.
        -12    1    3    3    0    0 -0.12700416666E+01 -0.13076939444E+02  0.12941234352E+02  0.18441662008E+02  0.00000000000E+00 0.  1.
</event>
<event>
 7    1  0.3884463E-009  0.4778727E+02  0.7816164E-02  0.1312668E+00
        -11   -1    0    0    0    0  0.00000000000E+00  0.00000000000E+00  0.45593999997E+02  0.45594000000E+02  0.51100000000E-03 0. -1.
         11   -1    0    0    0    0 -0.00000000000E+00 -0.00000000000E+00 -0.45593999997E+02  0.45594000000E+02  0.51100000000E-03 0.  1.
    9900012    2    1    2    0    0  0.13646590040E+02 -0.25040010067E+02  0.32716842139E+02  0.47787270935E+02  0.19999999500E+02 0.  0.
        -12    1    1    2    0    0 -0.13646590040E+02  0.25040010067E+02 -0.32716842139E+02  0.43400729065E+02  0.00000000000E+00 0.  1.
         11    1    3    3    0    0  0.78308661177E+01 -0.79494544572E+00  0.28547857655E+01  0.83728253560E+01  0.51100000000E-03 0.  1.
        -11    1    3    3    0    0  0.32976216071E+00 -0.23281287088E+01  0.65111352221E+01  0.69227023993E+01  0.51100000000E-03 0. -1.
        -12    1    3    3    0    0  0.54859617614E+01 -0.21916935912E+02  0.23350921151E+02  0.32491743179E+02  0.00000000000E+00 0.  1.
</event>
<event>
 7    1  0.3884463E-009  0.4778727E+02  0.7816164E-02  0.1312668E+00
        -11   -1    0    0    0    0  0.00000000000E+00  0.00000000000E+00  0.45593999997E+02  0.45594000000E+02  0.51100000000E-03 0.  1.
         11   -1    0    0    0    0 -0.00000000000E+00 -0.00000000000E+00 -0.45593999997E+02  0.45594000000E+02  0.51100000000E-03 0. -1.
    9900012    2    1    2    0    0  0.13576057851E+02 -0.79733450899E+01 -0.40444275316E+02  0.47787274378E+02  0.20000015198E+02 0.  0.
        -12    1    1    2    0    0 -0.13576057851E+02  0.79733450899E+01  0.40444275316E+02  0.43400725622E+02  0.00000000000E+00 0.  1.
         11    1    3    3    0    0  0.75053830665E+01 -0.68863431576E+01 -0.23755793763E+02  0.25847441549E+02  0.51100000000E-03 0. -1.
        -11    1    3    3    0    0 -0.33907847597E+01 -0.30526910857E+01 -0.58533161177E+01  0.74214320711E+01  0.51100000000E-03 0.  1.
         12    1    3    3    0    0  0.94614595442E+01  0.19656891534E+01 -0.10835165436E+02  0.14518400758E+02  0.00000000000E+00 0. -1.
</event>
<event>
 7    1  0.3884463E-009  0.4778727E+02  0.7816164E-02  0.1312668E+00
        -11   -1    0    0    0    0  0.00000000000E+00  0.00000000000E+00  0.45593999997E+02  0.45594000000E+02  0.51100000000E-03 0.  1.
         11   -1    0    0    0    0 -0.00000000000E+00 -0.00000000000E+00 -0.45593999997E+02  0.45594000000E+02  0.51100000000E-03 0. -1.
    9900012    2    1    2    0    0 -0.23804368184E+02 -0.34117424874E+02 -0.12368381591E+02  0.47787268579E+02  0.19999988761E+02 0.  0.
        -12    1    1    2    0    0  0.23804368184E+02  0.34117424874E+02  0.12368381591E+02  0.43400731421E+02  0.00000000000E+00 0.  1.
         11    1    3    3    0    0 -0.12363431487E+02 -0.13538317179E+02 -0.28094523401E+01  0.18548139877E+02  0.51100000000E-03 0. -1.
        -11    1    3    3    0    0 -0.13959956617E+02 -0.18709691398E+02 -0.52799161332E+01  0.23933458914E+02  0.51100000000E-03 0.  1.
        -12    1    3    3    0    0  0.25190199194E+01 -0.18694162965E+01 -0.42790131177E+01  0.53056697886E+01  0.00000000000E+00 0.  1.
</event>
<event>
 7    1  0.3884463E-009  0.4778728E+02  0.7816164E-02  0.1312668E+00
        -11   -1    0    0    0    0  0.00000000000E+00  0.00000000000E+00  0.45593999997E+02  0.45594000000E+02  0.51100000000E-03 0. -1.
         11   -1    0    0    0    0 -0.00000000000E+00 -0.00000000000E+00 -0.45593999997E+02  0.45594000000E+02  0.51100000000E-03 0.  1.
    9900012    2    1    2    0    0 -0.18091873697E+02  0.16828898331E+02  0.35680459380E+02  0.47787275416E+02  0.20000019930E+02 0.  0.
        -12    1    1    2    0    0  0.18091873697E+02 -0.16828898331E+02 -0.35680459380E+02  0.43400724584E+02  0.00000000000E+00 0.  1.
         11    1    3    3    0    0 -0.27913590781E+01  0.10525194005E+02  0.21588812704E+02  0.24179500172E+02  0.51100000000E-03 0. -1.
        -11    1    3    3    0    0 -0.93816148934E+01  0.79202333794E+01  0.11883345232E+02  0.17086798675E+02  0.51100000000E-03 0.  1.
         12    1    3    3    0    0 -0.59188997256E+01 -0.16165290534E+01  0.22083014440E+01  0.65209765687E+01  0.00000000000E+00 0. -1.
</event>
<event>
 7    1  0.3884463E-009  0.4778727E+02  0.7816164E-02  0.1312668E+00
        -11   -1    0    0    0    0  0.00000000000E+00  0.00000000000E+00  0.45593999997E+02  0.45594000000E+02  0.51100000000E-03 0.  1.
         11   -1    0    0    0    0 -0.00000000000E+00 -0.00000000000E+00 -0.45593999997E+02  0.45594000000E+02  0.51100000000E-03 0. -1.
    9900012    2    1    2    0    0 -0.27293852072E+02  0.21942605330E+02 -0.25635735730E+02  0.47787271480E+02  0.20000001988E+02 0.  0.
        -12    1    1    2    0    0  0.27293852072E+02 -0.21942605330E+02  0.25635735730E+02  0.43400728520E+02  0.00000000000E+00 0.  1.
         11    1    3    3    0    0 -0.35759922253E+01 -0.28810406375E-01 -0.89146658033E+01  0.96051973994E+01  0.51100000000E-03 0. -1.
        -11    1    3    3    0    0 -0.18318010558E+02  0.10306806402E+02 -0.73182129085E+01  0.22256145431E+02  0.51100000000E-03 0.  1.
         12    1    3    3    0    0 -0.53998492890E+01  0.11664609334E+02 -0.94028570180E+01  0.15925928650E+02  0.00000000000E+00 0. -1.
</event>
<event>
 7    1  0.3884463E-009  0.4778727E+02  0.7816164E-02  0.1312668E+00
        -11   -1    0    0    0    0  0.00000000000E+00  0.00000000000E+00  0.45593999997E+02  0.45594000000E+02  0.51100000000E-03 0. -1.
         11   -1    0    0    0    0 -0.00000000000E+00 -0.00000000000E+00 -0.45593999997E+02  0.45594000000E+02  0.51100000000E-03 0.  1.
    9900012    2    1    2    0    0  0.15444704992E+02 -0.37678356586E+02  0.15014192920E+02  0.47787268942E+02  0.19999990415E+02 0.  0.
        -12    1    1    2    0    0 -0.15444704992E+02  0.37678356586E+02 -0.15014192920E+02  0.43400731058E+02  0.00000000000E+00 0.  1.
         11    1    3    3    0    0  0.17379969366E+02 -0.34398786546E+02  0.14340241187E+02  0.41121556009E+02  0.51100000000E-03 0. -1.
        -11    1    3    3    0    0 -0.81072730729E+00 -0.22383952582E+01  0.30310491363E+01  0.38542121408E+01  0.51100000000E-03 0.  1.
         12    1    3    3    0    0 -0.11245370666E+01 -0.10411747815E+01 -0.23570974029E+01  0.28115007925E+01  0.00000000000E+00 0. -1.
</event>
<event>
 7    1  0.3884463E-009  0.4778727E+02  0.7816164E-02  0.1312668E+00
        -11   -1    0    0    0    0  0.00000000000E+00  0.00000000000E+00  0.45593999997E+02  0.45594000000E+02  0.51100000000E-03 0.  1.
         11   -1    0    0    0    0 -0.00000000000E+00 -0.00000000000E+00 -0.45593999997E+02  0.45594000000E+02  0.51100000000E-03 0. -1.
    9900012    2    1    2    0    0 -0.33197723989E+02  0.11172445042E+02 -0.25626370690E+02  0.47787270962E+02  0.19999999625E+02 0.  0.
        -12    1    1    2    0    0  0.33197723989E+02 -0.11172445042E+02  0.25626370690E+02  0.43400729038E+02  0.00000000000E+00 0.  1.
         11    1    3    3    0    0 -0.93352729833E+01 -0.17439248830E+00  0.14730449578E+01  0.94523857371E+01  0.51100000000E-03 0. -1.
        -11    1    3    3    0    0 -0.41341788806E+01  0.26867218346E+01 -0.21746843294E+01  0.53887996277E+01  0.51100000000E-03 0.  1.
        -12    1    3    3    0    0 -0.19728272125E+02  0.86601156958E+01 -0.24924731318E+02  0.32946085597E+02  0.00000000000E+00 0.  1.
</event>
<event>
 7    1  0.3884463E-009  0.4778729E+02  0.7816164E-02  0.1312668E+00
        -11   -1    0    0    0    0  0.00000000000E+00  0.00000000000E+00  0.45593999997E+02  0.45594000000E+02  0.51100000000E-03 0. -1.
         11   -1    0    0    0    0 -0.00000000000E+00 -0.00000000000E+00 -0.45593999997E+02  0.45594000000E+02  0.51100000000E-03 0.  1.
    9900012    2    1    2    0    0 -0.26144361110E+02  0.16286128993E+02  0.30575409960E+02  0.47787293673E+02  0.20000103173E+02 0.  0.
        -12    1    1    2    0    0  0.26144361110E+02 -0.16286128993E+02 -0.30575409960E+02  0.43400706327E+02  0.00000000000E+00 0.  1.
         11    1    3    3    0    0 -0.23207775499E+01  0.10532382827E+02  0.89820757320E+01  0.14035482933E+02  0.51100000000E-03 0. -1.
        -11    1    3    3    0    0 -0.45022361543E+00 -0.28464047008E-01 -0.76874770219E+00  0.89133876647E+00  0.51100000000E-03 0.  1.
        -12    1    3    3    0    0 -0.23373359945E+02  0.57822102135E+01  0.22362081930E+02  0.32860471974E+02  0.00000000000E+00 0.  1.
</event>
<event>
 7    1  0.3884463E-009  0.4778727E+02  0.7816164E-02  0.1312668E+00
        -11   -1    0    0    0    0  0.00000000000E+00  0.00000000000E+00  0.45593999997E+02  0.45594000000E+02  0.51100000000E-03 0.  1.
         11   -1    0    0    0    0 -0.00000000000E+00 -0.00000000000E+00 -0.45593999997E+02  0.45594000000E+02  0.51100000000E-03 0. -1.
    9900012    2    1    2    0    0  0.35576665317E+02 -0.81184909132E+01 -0.23494982765E+02  0.47787271608E+02  0.20000002571E+02 0.  0.
        -12    1    1    2    0    0 -0.35576665317E+02  0.81184909132E+01  0.23494982765E+02  0.43400728392E+02  0.00000000000E+00 0.  1.
         11    1    3    3    0    0  0.12591846637E+02 -0.28102705200E+01  0.61283014973E-01  0.12901781970E+02  0.51100000000E-03 0. -1.
        -11    1    3    3    0    0  0.15655476027E+02 -0.83984329662E+01 -0.15791094509E+02  0.23769439875E+02  0.51100000000E-03 0.  1.
         12    1    3    3    0    0  0.73293426530E+01  0.30902125730E+01 -0.77651712718E+01  0.11116049764E+02  0.00000000000E+00 0. -1.
</event>
<event>
 7    1  0.3884463E-009  0.4778727E+02  0.7816164E-02  0.1312668E+00
        -11   -1    0    0    0    0  0.00000000000E+00  0.00000000000E+00  0.45593999997E+02  0.45594000000E+02  0.51100000000E-03 0.  1.
         11   -1    0    0    0    0 -0.00000000000E+00 -0.00000000000E+00 -0.45593999997E+02  0.45594000000E+02  0.51100000000E-03 0. -1.
    9900012    2    1    2    0    0  0.25832663775E+02 -0.26530332741E+02 -0.22637093473E+02  0.47787273347E+02  0.20000010498E+02 0.  0.
        -12    1    1    2    0    0 -0.25832663775E+02  0.26530332741E+02  0.22637093473E+02  0.43400726653E+02  0.00000000000E+00 0.  1.
         11    1    3    3    0    0  0.19437776730E+02 -0.11967361549E+02 -0.10911731410E+02  0.25300410852E+02  0.51100000000E-03 0. -1.
        -11    1    3    3    0    0  0.49079804151E+01 -0.14139917258E+01 -0.49605994983E+00  0.51316391232E+01  0.51100000000E-03 0.  1.
        -12    1    3    3    0    0  0.14869066304E+01 -0.13148979466E+02 -0.11229302113E+02  0.17355223372E+02  0.00000000000E+00 0.  1.
</event>
<event>
 7    1  0.3884463E-009  0.4778727E+02  0.7816164E-02  0.1312668E+00
        -11   -1    0    0    0    0  0.00000000000E+00  0.00000000000E+00  0.45593999997E+02  0.45594000000E+02  0.51100000000E-03 0.  1.
         11   -1    0    0    0    0 -0.00000000000E+00 -0.00000000000E+00 -0.45593999997E+02  0.45594000000E+02  0.51100000000E-03 0. -1.
    9900012    2    1    2    0    0  0.31211151596E+02  0.29185027535E+02 -0.75974601646E+01  0.47787271698E+02  0.20000002979E+02 0.  0.
        -12    1    1    2    0    0 -0.31211151596E+02 -0.29185027535E+02  0.75974601646E+01  0.43400728302E+02  0.00000000000E+00 0.  1.
         11    1    3    3    0    0  0.79962353386E+01  0.17052513835E+01  0.65047454297E-01  0.81763007102E+01  0.51100000000E-03 0. -1.
        -11    1    3    3    0    0  0.12646372732E+02  0.13255919353E+02  0.35218703161E+01  0.18656197682E+02  0.51100000000E-03 0.  1.
        -12    1    3    3    0    0  0.10568543525E+02  0.14223856799E+02 -0.11184377935E+02  0.20954773305E+02  0.00000000000E+00 0.  1.
</event>
<event>
 7    1  0.3884463E-009  0.4778727E+02  0.7816164E-02  0.1312668E+00
        -11   -1    0    0    0    0  0.00000000000E+00  0.00000000000E+00  0.45593999997E+02  0.45594000000E+02  0.51100000000E-03 0. -1.
         11   -1    0    0    0    0 -0.00000000000E+00 -0.00000000000E+00 -0.45593999997E+02  0.45594000000E+02  0.51100000000E-03 0.  1.
    9900012    2    1    2    0    0 -0.32853416592E+02 -0.17849303274E+02  0.22038119467E+02  0.47787270527E+02  0.19999997641E+02 0.  0.
        -12    1    1    2    0    0  0.32853416592E+02  0.17849303274E+02 -0.22038119467E+02  0.43400729473E+02  0.00000000000E+00 0.  1.
         11    1    3    3    0    0 -0.25655905859E+02 -0.76412587485E+01  0.16383446216E+02  0.31385213889E+02  0.51100000000E-03 0. -1.
        -11    1    3    3    0    0 -0.63704160337E+01 -0.48994393742E+01  0.72226823831E+01  0.10805269441E+02  0.51100000000E-03 0.  1.
        -12    1    3    3    0    0 -0.82709469901E+00 -0.53086051511E+01 -0.15680091312E+01  0.55967871969E+01  0.00000000000E+00 0.  1.
</event>
<event>
 7    1  0.3884463E-009  0.4778727E+02  0.7816164E-02  0.1312668E+00
        -11   -1    0    0    0    0  0.00000000000E+00  0.00000000000E+00  0.45593999997E+02  0.45594000000E+02  0.51100000000E-03 0.  1.
         11   -1    0    0    0    0 -0.00000000000E+00 -0.00000000000E+00 -0.45593999997E+02  0.45594000000E+02  0.51100000000E-03 0. -1.
    9900012    2    1    2    0    0  0.31886935890E+00  0.43633478491E+01 -0.43179658288E+02  0.47787269914E+02  0.19999994848E+02 0.  0.
        -12    1    1    2    0    0 -0.31886935890E+00 -0.43633478491E+01  0.43179658288E+02  0.43400730086E+02  0.00000000000E+00 0.  1.
         11    1    3    3    0    0  0.29898128170E+01  0.51519371416E+01 -0.24246634170E+02  0.24967593112E+02  0.51100000000E-03 0. -1.
        -11    1    3    3    0    0  0.37544233811E+01  0.29464282505E+01 -0.43754905241E+01  0.64747240828E+01  0.51100000000E-03 0.  1.
         12    1    3    3    0    0 -0.64253668393E+01 -0.37350175430E+01 -0.14557533594E+02  0.16344952719E+02  0.00000000000E+00 0. -1.
</event>
<event>
 7    1  0.3884463E-009  0.4778727E+02  0.7816164E-02  0.1312668E+00
        -11   -1    0    0    0    0  0.00000000000E+00  0.00000000000E+00  0.45593999997E+02  0.45594000000E+02  0.51100000000E-03 0.  1.
         11   -1    0    0    0    0 -0.00000000000E+00 -0.00000000000E+00 -0.45593999997E+02  0.45594000000E+02  0.51100000000E-03 0. -1.
    9900012    2    1    2    0    0  0.75336720733E+01 -0.25614922681E+02 -0.34216117715E+02  0.47787272007E+02  0.20000004389E+02 0.  0.
        -12    1    1    2    0    0 -0.75336720733E+01  0.25614922681E+02  0.34216117715E+02  0.43400727993E+02  0.00000000000E+00 0.  1.
         11    1    3    3    0    0  0.22158452276E+01 -0.11722816539E+02 -0.17766641156E+02  0.21400652698E+02  0.51100000000E-03 0. -1.
        -11    1    3    3    0    0 -0.46414462472E+01 -0.73739078245E+01 -0.74670479039E+01  0.11474944206E+02  0.51100000000E-03 0.  1.
        -12    1    3    3    0    0  0.99592730928E+01 -0.65181983173E+01 -0.89824286554E+01  0.14911675103E+02  0.00000000000E+00 0.  1.
</event>
<event>
 7    1  0.3884463E-009  0.4778727E+02  0.7816164E-02  0.1312668E+00
        -11   -1    0    0    0    0  0.00000000000E+00  0.00000000000E+00  0.45593999997E+02  0.45594000000E+02  0.51100000000E-03 0.  1.
         11   -1    0    0    0    0 -0.00000000000E+00 -0.00000000000E+00 -0.45593999997E+02  0.45594000000E+02  0.51100000000E-03 0. -1.
    9900012    2    1    2    0    0  0.62708649363E+01  0.17856681975E+02 -0.39056862230E+02  0.47787270450E+02  0.19999997290E+02 0.  0.
        -12    1    1    2    0    0 -0.62708649363E+01 -0.17856681975E+02  0.39056862230E+02  0.43400729550E+02  0.00000000000E+00 0.  1.
         11    1    3    3    0    0  0.59459979044E+01  0.88268581302E+01 -0.24362369850E+02  0.26585585954E+02  0.51100000000E-03 0. -1.
        -11    1    3    3    0    0  0.40201843049E+01  0.69581551806E+01 -0.14933648852E+02  0.16958528051E+02  0.51100000000E-03 0.  1.
        -12    1    3    3    0    0 -0.36953172730E+01  0.20716686646E+01  0.23915647185E+00  0.42431564456E+01  0.00000000000E+00 0.  1.
</event>
<event>
 7    1  0.3884463E-009  0.4778728E+02  0.7816164E-02  0.1312668E+00
        -11   -1    0    0    0    0  0.00000000000E+00  0.00000000000E+00  0.45593999997E+02  0.45594000000E+02  0.51100000000E-03 0.  1.
         11   -1    0    0    0    0 -0.00000000000E+00 -0.00000000000E+00 -0.45593999997E+02  0.45594000000E+02  0.51100000000E-03 0. -1.
    9900012    2    1    2    0    0  0.40239615663E+02  0.41804293727E+01 -0.15713691838E+02  0.47787276854E+02  0.20000026488E+02 0.  0.
        -12    1    1    2    0    0 -0.40239615663E+02 -0.41804293727E+01  0.15713691838E+02  0.43400723146E+02  0.00000000000E+00 0.  1.
         11    1    3    3    0    0  0.43078356111E+01 -0.37572063731E+00 -0.33482433153E+00  0.43371328367E+01  0.51100000000E-03 0. -1.
        -11    1    3    3    0    0  0.13243007834E+02 -0.27544463459E+01  0.23676345142E+01  0.13732076486E+02  0.51100000000E-03 0.  1.
        -12    1    3    3    0    0  0.22688772218E+02  0.73105963559E+01 -0.17746502020E+02  0.29718067532E+02  0.00000000000E+00 0.  1.
</event>
<event>
 7    1  0.3884463E-009  0.4778727E+02  0.7816164E-02  0.1312668E+00
        -11   -1    0    0    0    0  0.00000000000E+00  0.00000000000E+00  0.45593999997E+02  0.45594000000E+02  0.51100000000E-03 0. -1.
         11   -1    0    0    0    0 -0.00000000000E+00 -0.00000000000E+00 -0.45593999997E+02  0.45594000000E+02  0.51100000000E-03 0.  1.
    9900012    2    1    2    0    0 -0.14739059193E+01  0.30003740032E+02  0.31324536106E+02  0.47787269858E+02  0.19999994592E+02 0.  0.
        -12    1    1    2    0    0  0.14739059193E+01 -0.30003740032E+02 -0.31324536106E+02  0.43400730142E+02  0.00000000000E+00 0.  1.
         11    1    3    3    0    0  0.66624293064E+00  0.96153488822E+01 -0.13521275757E-01  0.96384125693E+01  0.51100000000E-03 0. -1.
        -11    1    3    3    0    0  0.13575137736E+01  0.15196806223E+02  0.19520392993E+02  0.24775623219E+02  0.51100000000E-03 0.  1.
        -12    1    3    3    0    0 -0.34976626235E+01  0.51915849266E+01  0.11817664389E+02  0.13373234070E+02  0.00000000000E+00 0.  1.
</event>
<event>
 7    1  0.3884463E-009  0.4778727E+02  0.7816164E-02  0.1312668E+00
        -11   -1    0    0    0    0  0.00000000000E+00  0.00000000000E+00  0.45593999997E+02  0.45594000000E+02  0.51100000000E-03 0.  1.
         11   -1    0    0    0    0 -0.00000000000E+00 -0.00000000000E+00 -0.45593999997E+02  0.45594000000E+02  0.51100000000E-03 0. -1.
    9900012    2    1    2    0    0  0.16325097395E+02 -0.39942137819E+02  0.46626204872E+01  0.47787271800E+02  0.20000003445E+02 0.  0.
        -12    1    1    2    0    0 -0.16325097395E+02  0.39942137819E+02 -0.46626204872E+01  0.43400728200E+02  0.00000000000E+00 0.  1.
         11    1    3    3    0    0  0.69272222943E+01 -0.89855221878E+01  0.19593150347E+01  0.11513684613E+02  0.51100000000E-03 0.  1.
        -11    1    3    3    0    0  0.11086012147E+02 -0.25217675047E+02  0.75631017604E+01  0.28566261719E+02  0.51100000000E-03 0. -1.
        -12    1    3    3    0    0 -0.16881370463E+01 -0.57389405839E+01 -0.48597963079E+01  0.77073254678E+01  0.00000000000E+00 0.  1.
</event>
<event>
 7    1  0.3884463E-009  0.4778727E+02  0.7816164E-02  0.1312668E+00
        -11   -1    0    0    0    0  0.00000000000E+00  0.00000000000E+00  0.45593999997E+02  0.45594000000E+02  0.51100000000E-03 0.  1.
         11   -1    0    0    0    0 -0.00000000000E+00 -0.00000000000E+00 -0.45593999997E+02  0.45594000000E+02  0.51100000000E-03 0. -1.
    9900012    2    1    2    0    0  0.63270995258E+01  0.24130293993E+02 -0.35515068721E+02  0.47787269788E+02  0.19999994273E+02 0.  0.
        -12    1    1    2    0    0 -0.63270995258E+01 -0.24130293993E+02  0.35515068721E+02  0.43400730212E+02  0.00000000000E+00 0.  1.
         11    1    3    3    0    0 -0.66810662828E+00  0.10653435042E+02 -0.22064731610E+02  0.24511108216E+02  0.51100000000E-03 0. -1.
        -11    1    3    3    0    0  0.44342068326E+01  0.96368827525E+01 -0.15031011354E+02  0.18397363996E+02  0.51100000000E-03 0.  1.
        -12    1    3    3    0    0  0.25609993215E+01  0.38399761989E+01  0.15806742428E+01  0.48787975767E+01  0.00000000000E+00 0.  1.
</event>
<event>
 7    1  0.3884463E-009  0.4778727E+02  0.7816164E-02  0.1312668E+00
        -11   -1    0    0    0    0  0.00000000000E+00  0.00000000000E+00  0.45593999997E+02  0.45594000000E+02  0.51100000000E-03 0. -1.
         11   -1    0    0    0    0 -0.00000000000E+00 -0.00000000000E+00 -0.45593999997E+02  0.45594000000E+02  0.51100000000E-03 0.  1.
    9900012    2    1    2    0    0  0.21550303802E+02 -0.37359205844E+02  0.48474122695E+01  0.47787271193E+02  0.20000000679E+02 0.  0.
        -12    1    1    2    0    0 -0.21550303802E+02  0.37359205844E+02 -0.48474122695E+01  0.43400728807E+02  0.00000000000E+00 0.  1.
         11    1    3    3    0    0 -0.56646906564E+00  0.67576010893E+00  0.22486408457E+00  0.91000167297E+00  0.51100000000E-03 0. -1.
        -11    1    3    3    0    0  0.31941213092E+01 -0.14224703906E+02 -0.42678627724E+01  0.15190762491E+02  0.51100000000E-03 0.  1.
         12    1    3    3    0    0  0.18922651558E+02 -0.23810262047E+02  0.88904109574E+01  0.31686507030E+02  0.00000000000E+00 0. -1.
</event>
<event>
 7    1  0.3884463E-009  0.4778727E+02  0.7816164E-02  0.1312668E+00
        -11   -1    0    0    0    0  0.00000000000E+00  0.00000000000E+00  0.45593999997E+02  0.45594000000E+02  0.51100000000E-03 0.  1.
         11   -1    0    0    0    0 -0.00000000000E+00 -0.00000000000E+00 -0.45593999997E+02  0.45594000000E+02  0.51100000000E-03 0. -1.
    9900012    2    1    2    0    0  0.25558901465E+02 -0.33923887158E+02 -0.89182725379E+01  0.47787272482E+02  0.20000006554E+02 0.  0.
        -12    1    1    2    0    0 -0.25558901465E+02  0.33923887158E+02  0.89182725379E+01  0.43400727518E+02  0.00000000000E+00 0.  1.
         11    1    3    3    0    0  0.12607318976E+01  0.14427689527E+01 -0.14627972431E+01  0.24105607655E+01  0.51100000000E-03 0. -1.
        -11    1    3    3    0    0  0.11061368088E+02 -0.63779814753E+01 -0.61619823959E+00  0.12783278618E+02  0.51100000000E-03 0.  1.
         12    1    3    3    0    0  0.13236801479E+02 -0.28988674636E+02 -0.68392770552E+01  0.32593433099E+02  0.00000000000E+00 0. -1.
</event>
<event>
 7    1  0.3884463E-009  0.4778727E+02  0.7816164E-02  0.1312668E+00
        -11   -1    0    0    0    0  0.00000000000E+00  0.00000000000E+00  0.45593999997E+02  0.45594000000E+02  0.51100000000E-03 0. -1.
         11   -1    0    0    0    0 -0.00000000000E+00 -0.00000000000E+00 -0.45593999997E+02  0.45594000000E+02  0.51100000000E-03 0.  1.
    9900012    2    1    2    0    0 -0.24211713967E+02 -0.16312505890E+02  0.32114150445E+02  0.47787267283E+02  0.19999982848E+02 0.  0.
        -12    1    1    2    0    0  0.24211713967E+02  0.16312505890E+02 -0.32114150445E+02  0.43400732717E+02  0.00000000000E+00 0.  1.
         11    1    3    3    0    0 -0.13957227305E+01 -0.67982616436E+01  0.59948226886E+01  0.91707307585E+01  0.51100000000E-03 0. -1.
        -11    1    3    3    0    0 -0.76616165257E+01 -0.10595554892E+02  0.99612138562E+01  0.16437516023E+02  0.51100000000E-03 0.  1.
         12    1    3    3    0    0 -0.15154374710E+02  0.10813106459E+01  0.16158113900E+02  0.22179020501E+02  0.00000000000E+00 0. -1.
</event>
<event>
 7    1  0.3884463E-009  0.4778727E+02  0.7816164E-02  0.1312668E+00
        -11   -1    0    0    0    0  0.00000000000E+00  0.00000000000E+00  0.45593999997E+02  0.45594000000E+02  0.51100000000E-03 0.  1.
         11   -1    0    0    0    0 -0.00000000000E+00 -0.00000000000E+00 -0.45593999997E+02  0.45594000000E+02  0.51100000000E-03 0. -1.
    9900012    2    1    2    0    0 -0.66406537874E+01  0.18310773579E+01 -0.42850577006E+02  0.47787273315E+02  0.20000010352E+02 0.  0.
        -12    1    1    2    0    0  0.66406537874E+01 -0.18310773579E+01  0.42850577006E+02  0.43400726685E+02  0.00000000000E+00 0.  1.
         11    1    3    3    0    0 -0.45892195988E+01 -0.49666034440E+01 -0.10270933062E+02  0.12297160343E+02  0.51100000000E-03 0. -1.
        -11    1    3    3    0    0  0.18274549513E+01  0.57184484559E+01 -0.55936944316E+01  0.82054653736E+01  0.51100000000E-03 0.  1.
         12    1    3    3    0    0 -0.38788891399E+01  0.10792323461E+01 -0.26985949513E+02  0.27284647598E+02  0.00000000000E+00 0. -1.
</event>
<event>
 7    1  0.3884463E-009  0.4778728E+02  0.7816164E-02  0.1312668E+00
        -11   -1    0    0    0    0  0.00000000000E+00  0.00000000000E+00  0.45593999997E+02  0.45594000000E+02  0.51100000000E-03 0. -1.
         11   -1    0    0    0    0 -0.00000000000E+00 -0.00000000000E+00 -0.45593999997E+02  0.45594000000E+02  0.51100000000E-03 0.  1.
    9900012    2    1    2    0    0 -0.41258256353E+02 -0.13466751361E+02  0.16008304774E+00  0.47787277240E+02  0.20000028250E+02 0.  0.
        -12    1    1    2    0    0  0.41258256353E+02  0.13466751361E+02 -0.16008304774E+00  0.43400722760E+02  0.00000000000E+00 0.  1.
         11    1    3    3    0    0 -0.13430025836E+02 -0.36710370842E+01  0.23027540614E+01  0.14111866771E+02  0.51100000000E-03 0. -1.
        -11    1    3    3    0    0 -0.11182833091E+02  0.30876655905E+01 -0.46076792506E+01  0.12482793881E+02  0.51100000000E-03 0.  1.
         12    1    3    3    0    0 -0.16645397426E+02 -0.12883379867E+02  0.24650082369E+01  0.21192616588E+02  0.00000000000E+00 0. -1.
</event>
<event>
 7    1  0.3884463E-009  0.4778727E+02  0.7816164E-02  0.1312668E+00
        -11   -1    0    0    0    0  0.00000000000E+00  0.00000000000E+00  0.45593999997E+02  0.45594000000E+02  0.51100000000E-03 0.  1.
         11   -1    0    0    0    0 -0.00000000000E+00 -0.00000000000E+00 -0.45593999997E+02  0.45594000000E+02  0.51100000000E-03 0. -1.
    9900012    2    1    2    0    0  0.39147867416E+01  0.13657043589E+02 -0.41009546514E+02  0.47787270742E+02  0.19999998621E+02 0.  0.
        -12    1    1    2    0    0 -0.39147867416E+01 -0.13657043589E+02  0.41009546514E+02  0.43400729258E+02  0.00000000000E+00 0.  1.
         11    1    3    3    0    0 -0.43808356037E+01  0.77455654665E+01 -0.22303480186E+02  0.24013136690E+02  0.51100000000E-03 0. -1.
        -11    1    3    3    0    0  0.32268892750E+01  0.29402776824E+01 -0.17148990250E+02  0.17695929309E+02  0.51100000000E-03 0.  1.
        -12    1    3    3    0    0  0.50687330703E+01  0.29712004397E+01 -0.15570760777E+01  0.60782047434E+01  0.00000000000E+00 0.  1.
</event>
<event>
 7    1  0.3884463E-009  0.4778727E+02  0.7816164E-02  0.1312668E+00
        -11   -1    0    0    0    0  0.00000000000E+00  0.00000000000E+00  0.45593999997E+02  0.45594000000E+02  0.51100000000E-03 0.  1.
         11   -1    0    0    0    0 -0.00000000000E+00 -0.00000000000E+00 -0.45593999997E+02  0.45594000000E+02  0.51100000000E-03 0. -1.
    9900012    2    1    2    0    0  0.19778083802E+02  0.38629318724E+02 -0.47596939533E+00  0.47787269467E+02  0.19999992806E+02 0.  0.
        -12    1    1    2    0    0 -0.19778083802E+02 -0.38629318724E+02  0.47596939533E+00  0.43400730533E+02  0.00000000000E+00 0.  1.
         11    1    3    3    0    0  0.39172104565E+01  0.15819483961E+01 -0.20162246782E+01  0.46810533754E+01  0.51100000000E-03 0. -1.
        -11    1    3    3    0    0 -0.20700627751E+01  0.26199542922E+00 -0.45160040334E+00  0.21348875106E+01  0.51100000000E-03 0.  1.
         12    1    3    3    0    0  0.17930936120E+02  0.36785374899E+02  0.19918556862E+01  0.40971328581E+02  0.00000000000E+00 0. -1.
</event>
<event>
 7    1  0.3884463E-009  0.4778727E+02  0.7816164E-02  0.1312668E+00
        -11   -1    0    0    0    0  0.00000000000E+00  0.00000000000E+00  0.45593999997E+02  0.45594000000E+02  0.51100000000E-03 0. -1.
         11   -1    0    0    0    0 -0.00000000000E+00 -0.00000000000E+00 -0.45593999997E+02  0.45594000000E+02  0.51100000000E-03 0.  1.
    9900012    2    1    2    0    0 -0.37957642947E+02  0.12776469593E+02 -0.16721316254E+02  0.47787271313E+02  0.20000001223E+02 0.  0.
        -12    1    1    2    0    0  0.37957642947E+02 -0.12776469593E+02  0.16721316254E+02  0.43400728687E+02  0.00000000000E+00 0.  1.
         11    1    3    3    0    0 -0.65240440305E+01  0.69947752558E+01 -0.63601785523E+01  0.11486596662E+02  0.51100000000E-03 0. -1.
        -11    1    3    3    0    0  0.86103277705E-01  0.99734412361E+00 -0.35659551640E+01  0.37038015022E+01  0.51100000000E-03 0.  1.
         12    1    3    3    0    0 -0.31519702194E+02  0.47843502134E+01 -0.67951825373E+01  0.32596873149E+02  0.00000000000E+00 0. -1.
</event>
<event>
 7    1  0.3884463E-009  0.4778728E+02  0.7816164E-02  0.1312668E+00
        -11   -1    0    0    0    0  0.00000000000E+00  0.00000000000E+00  0.45593999997E+02  0.45594000000E+02  0.51100000000E-03 0.  1.
         11   -1    0    0    0    0 -0.00000000000E+00 -0.00000000000E+00 -0.45593999997E+02  0.45594000000E+02  0.51100000000E-03 0. -1.
    9900012    2    1    2    0    0 -0.12973119800E+02 -0.26648211531E+02 -0.31704791342E+02  0.47787276398E+02  0.20000024407E+02 0.  0.
        -12    1    1    2    0    0  0.12973119800E+02  0.26648211531E+02  0.31704791342E+02  0.43400723602E+02  0.00000000000E+00 0.  1.
         11    1    3    3    0    0 -0.11065010588E+02 -0.50707622717E+01 -0.18006288708E+02  0.21734155669E+02  0.51100000000E-03 0. -1.
        -11    1    3    3    0    0 -0.34078862949E+01 -0.13100677827E+02 -0.88544885911E+01  0.16175395420E+02  0.51100000000E-03 0.  1.
         12    1    3    3    0    0  0.14997770837E+01 -0.84767714323E+01 -0.48440140426E+01  0.98777253080E+01  0.00000000000E+00 0. -1.
</event>
<event>
 7    1  0.3884463E-009  0.4778728E+02  0.7816164E-02  0.1312668E+00
        -11   -1    0    0    0    0  0.00000000000E+00  0.00000000000E+00  0.45593999997E+02  0.45594000000E+02  0.51100000000E-03 0. -1.
         11   -1    0    0    0    0 -0.00000000000E+00 -0.00000000000E+00 -0.45593999997E+02  0.45594000000E+02  0.51100000000E-03 0.  1.
    9900012    2    1    2    0    0 -0.24930077423E+02  0.35161042709E+02 -0.50807918407E+01  0.47787284217E+02  0.20000060061E+02 0.  0.
        -12    1    1    2    0    0  0.24930077423E+02 -0.35161042709E+02  0.50807918407E+01  0.43400715783E+02  0.00000000000E+00 0.  1.
         11    1    3    3    0    0 -0.79064562868E+01  0.30003166291E+01  0.36055047958E+01  0.91931287374E+01  0.51100000000E-03 0. -1.
        -11    1    3    3    0    0  0.90890694101E+00  0.30015114035E+01 -0.19873097054E+01  0.37127594400E+01  0.51100000000E-03 0.  1.
         12    1    3    3    0    0 -0.17932528078E+02  0.29159214676E+02 -0.66989869310E+01  0.34881396040E+02  0.00000000000E+00 0. -1.
</event>
<event>
 7    1  0.3884463E-009  0.4778729E+02  0.7816164E-02  0.1312668E+00
        -11   -1    0    0    0    0  0.00000000000E+00  0.00000000000E+00  0.45593999997E+02  0.45594000000E+02  0.51100000000E-03 0.  1.
         11   -1    0    0    0    0 -0.00000000000E+00 -0.00000000000E+00 -0.45593999997E+02  0.45594000000E+02  0.51100000000E-03 0. -1.
    9900012    2    1    2    0    0  0.37256751543E+02 -0.13577507645E+02  0.17641075852E+02  0.47787287948E+02  0.20000077069E+02 0.  0.
        -12    1    1    2    0    0 -0.37256751543E+02  0.13577507645E+02 -0.17641075852E+02  0.43400712052E+02  0.00000000000E+00 0.  1.
         11    1    3    3    0    0  0.35432459988E+01 -0.40242325392E+01  0.37707448754E+01  0.65549642954E+01  0.51100000000E-03 0. -1.
        -11    1    3    3    0    0  0.11807968985E+02 -0.25071670308E+01  0.13648010553E+02  0.18220378986E+02  0.51100000000E-03 0.  1.
         12    1    3    3    0    0  0.21905536560E+02 -0.70461080754E+01  0.22232042402E+00  0.23011944667E+02  0.00000000000E+00 0. -1.
</event>
<event>
 7    1  0.3884463E-009  0.4778727E+02  0.7816164E-02  0.1312668E+00
        -11   -1    0    0    0    0  0.00000000000E+00  0.00000000000E+00  0.45593999997E+02  0.45594000000E+02  0.51100000000E-03 0.  1.
         11   -1    0    0    0    0 -0.00000000000E+00 -0.00000000000E+00 -0.45593999997E+02  0.45594000000E+02  0.51100000000E-03 0. -1.
    9900012    2    1    2    0    0 -0.14609124184E+02  0.14662042863E+02 -0.38147369335E+02  0.47787265011E+02  0.19999972493E+02 0.  0.
        -12    1    1    2    0    0  0.14609124184E+02 -0.14662042863E+02  0.38147369335E+02  0.43400734989E+02  0.00000000000E+00 0.  1.
         11    1    3    3    0    0 -0.13377380583E+02  0.17942495345E+01 -0.25321694939E+02  0.28694283011E+02  0.51100000000E-03 0. -1.
        -11    1    3    3    0    0 -0.17374684968E+01  0.53451715193E+01 -0.90687475699E+01  0.10669200443E+02  0.51100000000E-03 0.  1.
         12    1    3    3    0    0  0.50572489551E+00  0.75226218091E+01 -0.37569268264E+01  0.84237815577E+01  0.00000000000E+00 0. -1.
</event>
<event>
 7    1  0.3884463E-009  0.4778727E+02  0.7816164E-02  0.1312668E+00
        -11   -1    0    0    0    0  0.00000000000E+00  0.00000000000E+00  0.45593999997E+02  0.45594000000E+02  0.51100000000E-03 0. -1.
         11   -1    0    0    0    0 -0.00000000000E+00 -0.00000000000E+00 -0.45593999997E+02  0.45594000000E+02  0.51100000000E-03 0.  1.
    9900012    2    1    2    0    0 -0.41247918609E+02 -0.68345063550E+01  0.11641400014E+02  0.47787268889E+02  0.19999990173E+02 0.  0.
        -12    1    1    2    0    0  0.41247918609E+02  0.68345063550E+01 -0.11641400014E+02  0.43400731111E+02  0.00000000000E+00 0.  1.
         11    1    3    3    0    0 -0.21484382173E+02 -0.33560756652E+01  0.55701294704E+01  0.22447010130E+02  0.51100000000E-03 0. -1.
        -11    1    3    3    0    0 -0.13986585910E+02  0.40767286831E+01  0.61892777181E+01  0.15828817426E+02  0.51100000000E-03 0.  1.
        -12    1    3    3    0    0 -0.57769505257E+01 -0.75551593729E+01 -0.11800717479E+00  0.95114413324E+01  0.00000000000E+00 0.  1.
</event>
<event>
 7    1  0.3884463E-009  0.4778726E+02  0.7816164E-02  0.1312668E+00
        -11   -1    0    0    0    0  0.00000000000E+00  0.00000000000E+00  0.45593999997E+02  0.45594000000E+02  0.51100000000E-03 0. -1.
         11   -1    0    0    0    0 -0.00000000000E+00 -0.00000000000E+00 -0.45593999997E+02  0.45594000000E+02  0.51100000000E-03 0.  1.
    9900012    2    1    2    0    0  0.66740727056E+01  0.27411403234E+02  0.32980231155E+02  0.47787263592E+02  0.19999966020E+02 0.  0.
        -12    1    1    2    0    0 -0.66740727056E+01 -0.27411403234E+02 -0.32980231155E+02  0.43400736408E+02  0.00000000000E+00 0.  1.
         11    1    3    3    0    0  0.63122481718E+01  0.18851876203E+02  0.22905006820E+02  0.30329474955E+02  0.51100000000E-03 0. -1.
        -11    1    3    3    0    0 -0.13529993123E+01  0.40045876084E+01  0.11609153575E+02  0.12354747105E+02  0.51100000000E-03 0.  1.
         12    1    3    3    0    0  0.17148238461E+01  0.45549394223E+01 -0.15339292392E+01  0.51030415317E+01  0.00000000000E+00 0. -1.
</event>
<event>
 7    1  0.3884463E-009  0.4778728E+02  0.7816164E-02  0.1312668E+00
        -11   -1    0    0    0    0  0.00000000000E+00  0.00000000000E+00  0.45593999997E+02  0.45594000000E+02  0.51100000000E-03 0. -1.
         11   -1    0    0    0    0 -0.00000000000E+00 -0.00000000000E+00 -0.45593999997E+02  0.45594000000E+02  0.51100000000E-03 0.  1.
    9900012    2    1    2    0    0  0.39953192762E+02 -0.15182450907E+02  0.75404345316E+01  0.47787279034E+02  0.20000036427E+02 0.  0.
        -12    1    1    2    0    0 -0.39953192762E+02  0.15182450907E+02 -0.75404345316E+01  0.43400720966E+02  0.00000000000E+00 0.  1.
         11    1    3    3    0    0  0.74398852247E+01 -0.18461369142E+01  0.54678059028E+01  0.94157854327E+01  0.51100000000E-03 0. -1.
        -11    1    3    3    0    0  0.61335568967E+01 -0.19213682205E+01  0.66696658826E+01  0.92626464518E+01  0.51100000000E-03 0.  1.
        -12    1    3    3    0    0  0.26379750641E+02 -0.11414945772E+02 -0.45970372538E+01  0.29108847150E+02  0.00000000000E+00 0.  1.
</event>
<event>
 7    1  0.3884463E-009  0.4778727E+02  0.7816164E-02  0.1312668E+00
        -11   -1    0    0    0    0  0.00000000000E+00  0.00000000000E+00  0.45593999997E+02  0.45594000000E+02  0.51100000000E-03 0. -1.
         11   -1    0    0    0    0 -0.00000000000E+00 -0.00000000000E+00 -0.45593999997E+02  0.45594000000E+02  0.51100000000E-03 0.  1.
    9900012    2    1    2    0    0 -0.28318609888E+02  0.19510626458E+02  0.26476689165E+02  0.47787270975E+02  0.19999999685E+02 0.  0.
        -12    1    1    2    0    0  0.28318609888E+02 -0.19510626458E+02 -0.26476689165E+02  0.43400729025E+02  0.00000000000E+00 0.  1.
         11    1    3    3    0    0  0.12713058474E+01  0.27316860677E+01  0.28801045886E+01  0.41681326793E+01  0.51100000000E-03 0. -1.
        -11    1    3    3    0    0 -0.16635769620E+02  0.15182637295E+02  0.96056878641E+01  0.24485312857E+02  0.51100000000E-03 0.  1.
         12    1    3    3    0    0 -0.12954146115E+02  0.15963030953E+01  0.13990896712E+02  0.19133825439E+02  0.00000000000E+00 0. -1.
</event>
<event>
 7    1  0.3884463E-009  0.4778726E+02  0.7816164E-02  0.1312668E+00
        -11   -1    0    0    0    0  0.00000000000E+00  0.00000000000E+00  0.45593999997E+02  0.45594000000E+02  0.51100000000E-03 0.  1.
         11   -1    0    0    0    0 -0.00000000000E+00 -0.00000000000E+00 -0.45593999997E+02  0.45594000000E+02  0.51100000000E-03 0. -1.
    9900012    2    1    2    0    0  0.28730847795E+02 -0.12141441003E+02 -0.30178596253E+02  0.47787264102E+02  0.19999968347E+02 0.  0.
        -12    1    1    2    0    0 -0.28730847795E+02  0.12141441003E+02  0.30178596253E+02  0.43400735898E+02  0.00000000000E+00 0.  1.
         11    1    3    3    0    0  0.11642884367E+02 -0.10035131271E+02 -0.19432366008E+02  0.24776550707E+02  0.51100000000E-03 0. -1.
        -11    1    3    3    0    0  0.34111410750E+01 -0.45987903028E+01 -0.60670417792E+01  0.83422869703E+01  0.51100000000E-03 0.  1.
        -12    1    3    3    0    0  0.13676822353E+02  0.24924805714E+01 -0.46791884664E+01  0.14668426425E+02  0.00000000000E+00 0.  1.
</event>
<event>
 7    1  0.3884463E-009  0.4778727E+02  0.7816164E-02  0.1312668E+00
        -11   -1    0    0    0    0  0.00000000000E+00  0.00000000000E+00  0.45593999997E+02  0.45594000000E+02  0.51100000000E-03 0.  1.
         11   -1    0    0    0    0 -0.00000000000E+00 -0.00000000000E+00 -0.45593999997E+02  0.45594000000E+02  0.51100000000E-03 0. -1.
    9900012    2    1    2    0    0 -0.16000079296E+02 -0.40236608847E+02 -0.29387424125E+01  0.47787269178E+02  0.19999991489E+02 0.  0.
        -12    1    1    2    0    0  0.16000079296E+02  0.40236608847E+02  0.29387424125E+01  0.43400730822E+02  0.00000000000E+00 0.  1.
         11    1    3    3    0    0 -0.42245477943E+01 -0.11473865259E+02  0.55248011608E+01  0.13417146350E+02  0.51100000000E-03 0. -1.
        -11    1    3    3    0    0  0.84065753052E+00  0.19718317744E+00 -0.19278596641E+01  0.21123989762E+01  0.51100000000E-03 0.  1.
         12    1    3    3    0    0 -0.12616189032E+02 -0.28959926765E+02 -0.65356839093E+01  0.32257723852E+02  0.00000000000E+00 0. -1.
</event>
<event>
 7    1  0.3884463E-009  0.4778727E+02  0.7816164E-02  0.1312668E+00
        -11   -1    0    0    0    0  0.00000000000E+00  0.00000000000E+00  0.45593999997E+02  0.45594000000E+02  0.51100000000E-03 0.  1.
         11   -1    0    0    0    0 -0.00000000000E+00 -0.00000000000E+00 -0.45593999997E+02  0.45594000000E+02  0.51100000000E-03 0. -1.
    9900012    2    1    2    0    0  0.98389456501E+01 -0.30777505770E+01 -0.42158582675E+02  0.47787268516E+02  0.19999988474E+02 0.  0.
        -12    1    1    2    0    0 -0.98389456501E+01  0.30777505770E+01  0.42158582675E+02  0.43400731484E+02  0.00000000000E+00 0.  1.
         11    1    3    3    0    0  0.77426789554E+01 -0.43642552633E+00 -0.19225701194E+02  0.20730825630E+02  0.51100000000E-03 0. -1.
        -11    1    3    3    0    0  0.62506851792E+01 -0.55244995110E+01 -0.18645879664E+02  0.20426942717E+02  0.51100000000E-03 0.  1.
         12    1    3    3    0    0 -0.41544184845E+01  0.28831744603E+01 -0.42870018172E+01  0.66295001692E+01  0.00000000000E+00 0. -1.
</event>
<event>
 7    1  0.3884463E-009  0.4778727E+02  0.7816164E-02  0.1312668E+00
        -11   -1    0    0    0    0  0.00000000000E+00  0.00000000000E+00  0.45593999997E+02  0.45594000000E+02  0.51100000000E-03 0. -1.
         11   -1    0    0    0    0 -0.00000000000E+00 -0.00000000000E+00 -0.45593999997E+02  0.45594000000E+02  0.51100000000E-03 0.  1.
    9900012    2    1    2    0    0 -0.25153935545E+01  0.15804783552E+02  0.40342343218E+02  0.47787273691E+02  0.20000012066E+02 0.  0.
        -12    1    1    2    0    0  0.25153935545E+01 -0.15804783552E+02 -0.40342343218E+02  0.43400726309E+02  0.00000000000E+00 0.  1.
         11    1    3    3    0    0 -0.11431148648E+01  0.18859695699E+01  0.38830636242E+00  0.22392799970E+01  0.51100000000E-03 0. -1.
        -11    1    3    3    0    0  0.24996937418E-01 -0.24470535157E+01  0.10834186766E+00  0.24495783263E+01  0.51100000000E-03 0.  1.
         12    1    3    3    0    0 -0.13972756271E+01  0.16365867497E+02  0.39845694988E+02  0.43098415368E+02  0.00000000000E+00 0. -1.
</event>
<event>
 7    1  0.3884463E-009  0.4778727E+02  0.7816164E-02  0.1312668E+00
        -11   -1    0    0    0    0  0.00000000000E+00  0.00000000000E+00  0.45593999997E+02  0.45594000000E+02  0.51100000000E-03 0. -1.
         11   -1    0    0    0    0 -0.00000000000E+00 -0.00000000000E+00 -0.45593999997E+02  0.45594000000E+02  0.51100000000E-03 0.  1.
    9900012    2    1    2    0    0  0.12617634368E+02  0.29513309865E+02  0.29212718769E+02  0.47787273116E+02  0.20000009443E+02 0.  0.
        -12    1    1    2    0    0 -0.12617634368E+02 -0.29513309865E+02 -0.29212718769E+02  0.43400726884E+02  0.00000000000E+00 0.  1.
         11    1    3    3    0    0 -0.15685076810E+00  0.13017779456E+02  0.79579776029E+01  0.15258328608E+02  0.51100000000E-03 0. -1.
        -11    1    3    3    0    0 -0.19640166214E+01  0.40569412224E+01  0.78167202463E+01  0.90231507270E+01  0.51100000000E-03 0.  1.
         12    1    3    3    0    0  0.14738501757E+02  0.12438589187E+02  0.13438020920E+02  0.23505793780E+02  0.00000000000E+00 0. -1.
</event>
<event>
 7    1  0.3884463E-009  0.4778727E+02  0.7816164E-02  0.1312668E+00
        -11   -1    0    0    0    0  0.00000000000E+00  0.00000000000E+00  0.45593999997E+02  0.45594000000E+02  0.51100000000E-03 0. -1.
         11   -1    0    0    0    0 -0.00000000000E+00 -0.00000000000E+00 -0.45593999997E+02  0.45594000000E+02  0.51100000000E-03 0.  1.
    9900012    2    1    2    0    0 -0.68077475345E+00  0.40418747149E+02  0.15795085177E+02  0.47787270846E+02  0.19999999097E+02 0.  0.
        -12    1    1    2    0    0  0.68077475345E+00 -0.40418747149E+02 -0.15795085177E+02  0.43400729154E+02  0.00000000000E+00 0.  1.
         11    1    3    3    0    0 -0.20302748409E+01  0.25135252647E+02  0.15045997973E+02  0.29364689626E+02  0.51100000000E-03 0.  1.
        -11    1    3    3    0    0 -0.18508129209E+01  0.86378757757E+01  0.47513702336E+01  0.10030649318E+02  0.51100000000E-03 0. -1.
        -12    1    3    3    0    0  0.32003130083E+01  0.66456187258E+01 -0.40022830299E+01  0.83919319022E+01  0.00000000000E+00 0.  1.
</event>
<event>
 7    1  0.3884463E-009  0.4778726E+02  0.7816164E-02  0.1312668E+00
        -11   -1    0    0    0    0  0.00000000000E+00  0.00000000000E+00  0.45593999997E+02  0.45594000000E+02  0.51100000000E-03 0. -1.
         11   -1    0    0    0    0 -0.00000000000E+00 -0.00000000000E+00 -0.45593999997E+02  0.45594000000E+02  0.51100000000E-03 0.  1.
    9900012    2    1    2    0    0  0.26610966572E+02  0.32219273893E+02 -0.11721725109E+02  0.47787262776E+02  0.19999962300E+02 0.  0.
        -12    1    1    2    0    0 -0.26610966572E+02 -0.32219273893E+02  0.11721725109E+02  0.43400737224E+02  0.00000000000E+00 0.  1.
         11    1    3    3    0    0  0.10265036834E+02  0.68897450948E+01  0.22338412270E+01  0.12563025732E+02  0.51100000000E-03 0. -1.
        -11    1    3    3    0    0  0.20432573416E+01  0.10674194585E+02 -0.82733561844E+00  0.10899441045E+02  0.51100000000E-03 0.  1.
        -12    1    3    3    0    0  0.14302672397E+02  0.14655334213E+02 -0.13128230718E+02  0.24324795998E+02  0.00000000000E+00 0.  1.
</event>
<event>
 7    1  0.3884463E-009  0.4778728E+02  0.7816164E-02  0.1312668E+00
        -11   -1    0    0    0    0  0.00000000000E+00  0.00000000000E+00  0.45593999997E+02  0.45594000000E+02  0.51100000000E-03 0. -1.
         11   -1    0    0    0    0 -0.00000000000E+00 -0.00000000000E+00 -0.45593999997E+02  0.45594000000E+02  0.51100000000E-03 0.  1.
    9900012    2    1    2    0    0  0.15447090808E+02  0.37983477854E+02 -0.14222000244E+02  0.47787280015E+02  0.20000040899E+02 0.  0.
        -12    1    1    2    0    0 -0.15447090808E+02 -0.37983477854E+02  0.14222000244E+02  0.43400719985E+02  0.00000000000E+00 0.  1.
         11    1    3    3    0    0  0.19993126843E+01  0.13915149982E+02 -0.85799346604E+01  0.16469484791E+02  0.51100000000E-03 0. -1.
        -11    1    3    3    0    0  0.13512055866E+02  0.15653788292E+02 -0.86032939058E+01  0.22397174106E+02  0.51100000000E-03 0.  1.
        -12    1    3    3    0    0 -0.64277742660E-01  0.84145395797E+01  0.29612283217E+01  0.89206211185E+01  0.00000000000E+00 0.  1.
</event>
<event>
 7    1  0.3884463E-009  0.4778727E+02  0.7816164E-02  0.1312668E+00
        -11   -1    0    0    0    0  0.00000000000E+00  0.00000000000E+00  0.45593999997E+02  0.45594000000E+02  0.51100000000E-03 0.  1.
         11   -1    0    0    0    0 -0.00000000000E+00 -0.00000000000E+00 -0.45593999997E+02  0.45594000000E+02  0.51100000000E-03 0. -1.
    9900012    2    1    2    0    0 -0.16115892066E+02 -0.32609251143E+02 -0.23675680296E+02  0.47787273339E+02  0.20000010464E+02 0.  0.
        -12    1    1    2    0    0  0.16115892066E+02  0.32609251143E+02  0.23675680296E+02  0.43400726661E+02  0.00000000000E+00 0.  1.
         11    1    3    3    0    0  0.84175272995E+00 -0.34567376271E+01 -0.76250913249E+00  0.36385440934E+01  0.51100000000E-03 0. -1.
        -11    1    3    3    0    0 -0.97476011392E+01 -0.49772660177E+01 -0.13123212343E+02  0.17088230085E+02  0.51100000000E-03 0.  1.
         12    1    3    3    0    0 -0.72100436567E+01 -0.24175247498E+02 -0.97899588200E+01  0.27060499161E+02  0.00000000000E+00 0. -1.
</event>
<event>
 7    1  0.3884463E-009  0.4778730E+02  0.7816164E-02  0.1312668E+00
        -11   -1    0    0    0    0  0.00000000000E+00  0.00000000000E+00  0.45593999997E+02  0.45594000000E+02  0.51100000000E-03 0. -1.
         11   -1    0    0    0    0 -0.00000000000E+00 -0.00000000000E+00 -0.45593999997E+02  0.45594000000E+02  0.51100000000E-03 0.  1.
    9900012    2    1    2    0    0  0.29390082009E+02 -0.28886755614E+02  0.13616139019E+02  0.47787299404E+02  0.20000129301E+02 0.  0.
        -12    1    1    2    0    0 -0.29390082009E+02  0.28886755614E+02 -0.13616139019E+02  0.43400700596E+02  0.00000000000E+00 0.  1.
         11    1    3    3    0    0  0.15019404677E+02 -0.74235991308E+01  0.10135304394E+01  0.16784504316E+02  0.51100000000E-03 0. -1.
        -11    1    3    3    0    0  0.13138053860E+02 -0.93564398635E+01  0.65085512522E+01  0.17392891244E+02  0.51100000000E-03 0.  1.
        -12    1    3    3    0    0  0.12326234721E+01 -0.12106716620E+02  0.60940573275E+01  0.13609903844E+02  0.00000000000E+00 0.  1.
</event>
<event>
 7    1  0.3884463E-009  0.4778729E+02  0.7816164E-02  0.1312668E+00
        -11   -1    0    0    0    0  0.00000000000E+00  0.00000000000E+00  0.45593999997E+02  0.45594000000E+02  0.51100000000E-03 0. -1.
         11   -1    0    0    0    0 -0.00000000000E+00 -0.00000000000E+00 -0.45593999997E+02  0.45594000000E+02  0.51100000000E-03 0.  1.
    9900012    2    1    2    0    0  0.19201329625E+02 -0.38823053575E+02 -0.27750923019E+01  0.47787289343E+02  0.20000083429E+02 0.  0.
        -12    1    1    2    0    0 -0.19201329625E+02  0.38823053575E+02  0.27750923019E+01  0.43400710657E+02  0.00000000000E+00 0.  1.
         11    1    3    3    0    0  0.21411241281E+02 -0.25575587815E+02  0.56222452121E+00  0.33359676887E+02  0.51100000000E-03 0. -1.
        -11    1    3    3    0    0  0.32392104963E+00 -0.12124714519E+01 -0.15582167781E+01  0.20007627687E+01  0.51100000000E-03 0.  1.
         12    1    3    3    0    0 -0.25338327060E+01 -0.12034994308E+02 -0.17791000450E+01  0.12426849687E+02  0.00000000000E+00 0. -1.
</event>
<event>
 7    1  0.3884463E-009  0.4778728E+02  0.7816164E-02  0.1312668E+00
        -11   -1    0    0    0    0  0.00000000000E+00  0.00000000000E+00  0.45593999997E+02  0.45594000000E+02  0.51100000000E-03 0.  1.
         11   -1    0    0    0    0 -0.00000000000E+00 -0.00000000000E+00 -0.45593999997E+02  0.45594000000E+02  0.51100000000E-03 0. -1.
    9900012    2    1    2    0    0  0.41830824164E+02 -0.80937763358E+01 -0.82641296179E+01  0.47787275306E+02  0.20000019432E+02 0.  0.
        -12    1    1    2    0    0 -0.41830824164E+02  0.80937763358E+01  0.82641296179E+01  0.43400724694E+02  0.00000000000E+00 0.  1.
         11    1    3    3    0    0  0.25023285785E+02 -0.10337877927E+02 -0.67554129285E+01  0.27904697733E+02  0.51100000000E-03 0. -1.
        -11    1    3    3    0    0  0.12093249674E+02 -0.29616644112E+01 -0.27496782559E+01  0.12750642123E+02  0.51100000000E-03 0.  1.
        -12    1    3    3    0    0  0.47142887045E+01  0.52057660021E+01  0.12409615664E+01  0.71319354503E+01  0.00000000000E+00 0.  1.
</event>
<event>
 7    1  0.3884463E-009  0.4778727E+02  0.7816164E-02  0.1312668E+00
        -11   -1    0    0    0    0  0.00000000000E+00  0.00000000000E+00  0.45593999997E+02  0.45594000000E+02  0.51100000000E-03 0. -1.
         11   -1    0    0    0    0 -0.00000000000E+00 -0.00000000000E+00 -0.45593999997E+02  0.45594000000E+02  0.51100000000E-03 0.  1.
    9900012    2    1    2    0    0 -0.17001150859E+02  0.35977600423E+02  0.17326170256E+02  0.47787273757E+02  0.20000012366E+02 0.  0.
        -12    1    1    2    0    0  0.17001150859E+02 -0.35977600423E+02 -0.17326170256E+02  0.43400726243E+02  0.00000000000E+00 0.  1.
         11    1    3    3    0    0 -0.12590192118E+02  0.70496775345E+01  0.58926572891E+01  0.15586349832E+02  0.51100000000E-03 0.  1.
        -11    1    3    3    0    0 -0.49690370297E+01  0.11751125471E+02  0.65116112538E+01  0.14324153037E+02  0.51100000000E-03 0. -1.
        -12    1    3    3    0    0  0.55807828861E+00  0.17176797418E+02  0.49219017134E+01  0.17876770888E+02  0.00000000000E+00 0.  1.
</event>
<event>
 7    1  0.3884463E-009  0.4778727E+02  0.7816164E-02  0.1312668E+00
        -11   -1    0    0    0    0  0.00000000000E+00  0.00000000000E+00  0.45593999997E+02  0.45594000000E+02  0.51100000000E-03 0. -1.
         11   -1    0    0    0    0 -0.00000000000E+00 -0.00000000000E+00 -0.45593999997E+02  0.45594000000E+02  0.51100000000E-03 0.  1.
    9900012    2    1    2    0    0  0.27483862489E+02 -0.24084532222E+02 -0.23413583065E+02  0.47787271186E+02  0.20000000645E+02 0.  0.
        -12    1    1    2    0    0 -0.27483862489E+02  0.24084532222E+02  0.23413583065E+02  0.43400728814E+02  0.00000000000E+00 0.  1.
         11    1    3    3    0    0  0.90169152602E+01 -0.77785857656E+01 -0.72810490193E+01  0.13957966629E+02  0.51100000000E-03 0. -1.
        -11    1    3    3    0    0  0.10303324938E+02 -0.85988897224E+00 -0.12069301638E+02  0.15892323810E+02  0.51100000000E-03 0.  1.
         12    1    3    3    0    0  0.81636222909E+01 -0.15446057484E+02 -0.40632324086E+01  0.17936980747E+02  0.00000000000E+00 0. -1.
</event>
<event>
 7    1  0.3884463E-009  0.4778727E+02  0.7816164E-02  0.1312668E+00
        -11   -1    0    0    0    0  0.00000000000E+00  0.00000000000E+00  0.45593999997E+02  0.45594000000E+02  0.51100000000E-03 0.  1.
         11   -1    0    0    0    0 -0.00000000000E+00 -0.00000000000E+00 -0.45593999997E+02  0.45594000000E+02  0.51100000000E-03 0. -1.
    9900012    2    1    2    0    0  0.35719918236E+02 -0.19241025232E+02 -0.15410825717E+02  0.47787272356E+02  0.20000005979E+02 0.  0.
        -12    1    1    2    0    0 -0.35719918236E+02  0.19241025232E+02  0.15410825717E+02  0.43400727644E+02  0.00000000000E+00 0.  1.
         11    1    3    3    0    0  0.19403747177E+02 -0.87385556141E+01 -0.11483818939E+02  0.24181518903E+02  0.51100000000E-03 0. -1.
        -11    1    3    3    0    0  0.16902182589E+02 -0.10833003907E+02 -0.46730358371E+00  0.20081238080E+02  0.51100000000E-03 0.  1.
         12    1    3    3    0    0 -0.58601152994E+00  0.33053428928E+00 -0.34597031936E+01  0.35245153734E+01  0.00000000000E+00 0. -1.
</event>
<event>
 7    1  0.3884463E-009  0.4778727E+02  0.7816164E-02  0.1312668E+00
        -11   -1    0    0    0    0  0.00000000000E+00  0.00000000000E+00  0.45593999997E+02  0.45594000000E+02  0.51100000000E-03 0.  1.
         11   -1    0    0    0    0 -0.00000000000E+00 -0.00000000000E+00 -0.45593999997E+02  0.45594000000E+02  0.51100000000E-03 0. -1.
    9900012    2    1    2    0    0 -0.33334449116E+02  0.19433278941E+02  0.19869203041E+02  0.47787273534E+02  0.20000011350E+02 0.  0.
        -12    1    1    2    0    0  0.33334449116E+02 -0.19433278941E+02 -0.19869203041E+02  0.43400726466E+02  0.00000000000E+00 0.  1.
         11    1    3    3    0    0 -0.69583426068E+01  0.99479075767E+01  0.17069136952E+01  0.12259402580E+02  0.51100000000E-03 0. -1.
        -11    1    3    3    0    0 -0.10588705506E+01  0.21973591291E+01  0.60664256001E+01  0.65384335898E+01  0.51100000000E-03 0.  1.
        -12    1    3    3    0    0 -0.25317235959E+02  0.72880122353E+01  0.12095863746E+02  0.28989437364E+02  0.00000000000E+00 0.  1.
</event>
<event>
 7    1  0.3884463E-009  0.4778727E+02  0.7816164E-02  0.1312668E+00
        -11   -1    0    0    0    0  0.00000000000E+00  0.00000000000E+00  0.45593999997E+02  0.45594000000E+02  0.51100000000E-03 0. -1.
         11   -1    0    0    0    0 -0.00000000000E+00 -0.00000000000E+00 -0.45593999997E+02  0.45594000000E+02  0.51100000000E-03 0.  1.
    9900012    2    1    2    0    0  0.34233734667E+02  0.21451562466E+02  0.15858917807E+02  0.47787269643E+02  0.19999993611E+02 0.  0.
        -12    1    1    2    0    0 -0.34233734667E+02 -0.21451562466E+02 -0.15858917807E+02  0.43400730357E+02  0.00000000000E+00 0.  1.
         11    1    3    3    0    0  0.10004326654E+02  0.71418594964E+01  0.10665408665E+02  0.16274017670E+02  0.51100000000E-03 0. -1.
        -11    1    3    3    0    0  0.24177678333E+02  0.10916051638E+02  0.73060872698E+01  0.27515436112E+02  0.51100000000E-03 0.  1.
         12    1    3    3    0    0  0.51729679203E-01  0.33936513319E+01 -0.21125781271E+01  0.39978158619E+01  0.00000000000E+00 0. -1.
</event>
<event>
 7    1  0.3884463E-009  0.4778725E+02  0.7816164E-02  0.1312668E+00
        -11   -1    0    0    0    0  0.00000000000E+00  0.00000000000E+00  0.45593999997E+02  0.45594000000E+02  0.51100000000E-03 0. -1.
         11   -1    0    0    0    0 -0.00000000000E+00 -0.00000000000E+00 -0.45593999997E+02  0.45594000000E+02  0.51100000000E-03 0.  1.
    9900012    2    1    2    0    0 -0.17797996974E+02 -0.19391491708E+01  0.39536011766E+02  0.47787248599E+02  0.19999897664E+02 0.  0.
        -12    1    1    2    0    0  0.17797996974E+02  0.19391491708E+01 -0.39536011766E+02  0.43400751401E+02  0.00000000000E+00 0.  1.
         11    1    3    3    0    0 -0.31021896663E+01  0.95362171413E-01  0.12664114843E+02  0.13038883376E+02  0.51100000000E-03 0. -1.
        -11    1    3    3    0    0  0.22938651938E+01 -0.29981830520E+01  0.12237817537E+01  0.39684456886E+01  0.51100000000E-03 0.  1.
        -12    1    3    3    0    0 -0.16989672501E+02  0.96367170978E+00  0.25648115169E+02  0.30779919535E+02  0.00000000000E+00 0.  1.
</event>
<event>
 7    1  0.3884463E-009  0.4778726E+02  0.7816164E-02  0.1312668E+00
        -11   -1    0    0    0    0  0.00000000000E+00  0.00000000000E+00  0.45593999997E+02  0.45594000000E+02  0.51100000000E-03 0.  1.
         11   -1    0    0    0    0 -0.00000000000E+00 -0.00000000000E+00 -0.45593999997E+02  0.45594000000E+02  0.51100000000E-03 0. -1.
    9900012    2    1    2    0    0 -0.69863871649E+01  0.15472589086E+02 -0.39942624798E+02  0.47787263896E+02  0.19999967406E+02 0.  0.
        -12    1    1    2    0    0  0.69863871649E+01 -0.15472589086E+02  0.39942624798E+02  0.43400736104E+02  0.00000000000E+00 0.  1.
         11    1    3    3    0    0 -0.36920658407E+01  0.35599789661E+01 -0.22213375796E+02  0.22797782018E+02  0.51100000000E-03 0.  1.
        -11    1    3    3    0    0 -0.81276426282E+01  0.77224010540E+01 -0.11505668996E+02  0.16064696450E+02  0.51100000000E-03 0. -1.
         12    1    3    3    0    0  0.48333213039E+01  0.41902090656E+01 -0.62235800063E+01  0.89247854280E+01  0.00000000000E+00 0. -1.
</event>
<event>
 7    1  0.3884463E-009  0.4778727E+02  0.7816164E-02  0.1312668E+00
        -11   -1    0    0    0    0  0.00000000000E+00  0.00000000000E+00  0.45593999997E+02  0.45594000000E+02  0.51100000000E-03 0.  1.
         11   -1    0    0    0    0 -0.00000000000E+00 -0.00000000000E+00 -0.45593999997E+02  0.45594000000E+02  0.51100000000E-03 0. -1.
    9900012    2    1    2    0    0  0.97691139949E+01  0.22087290656E+02 -0.36060221992E+02  0.47787267208E+02  0.19999982508E+02 0.  0.
        -12    1    1    2    0    0 -0.97691139949E+01 -0.22087290656E+02  0.36060221992E+02  0.43400732792E+02  0.00000000000E+00 0.  1.
         11    1    3    3    0    0  0.16081108729E+01  0.15609814435E+02 -0.22178920360E+02  0.27169041865E+02  0.51100000000E-03 0. -1.
        -11    1    3    3    0    0 -0.81803188761E+00  0.33373791961E+01  0.39960911388E+00  0.34593299601E+01  0.51100000000E-03 0.  1.
         12    1    3    3    0    0  0.89790350095E+01  0.31400970256E+01 -0.14280910746E+02  0.17158895383E+02  0.00000000000E+00 0. -1.
</event>
<event>
 7    1  0.3884463E-009  0.4778727E+02  0.7816164E-02  0.1312668E+00
        -11   -1    0    0    0    0  0.00000000000E+00  0.00000000000E+00  0.45593999997E+02  0.45594000000E+02  0.51100000000E-03 0. -1.
         11   -1    0    0    0    0 -0.00000000000E+00 -0.00000000000E+00 -0.45593999997E+02  0.45594000000E+02  0.51100000000E-03 0.  1.
    9900012    2    1    2    0    0 -0.37237483659E+02 -0.21590539837E+02  0.55535281229E+01  0.47787271040E+02  0.19999999978E+02 0.  0.
        -12    1    1    2    0    0  0.37237483659E+02  0.21590539837E+02 -0.55535281229E+01  0.43400728960E+02  0.00000000000E+00 0.  1.
         11    1    3    3    0    0 -0.25109286765E+02 -0.16408286845E+02  0.73919095636E+01  0.30892531238E+02  0.51100000000E-03 0. -1.
        -11    1    3    3    0    0 -0.13370231639E+02 -0.51295122334E+01  0.40917999211E+00  0.14326284178E+02  0.51100000000E-03 0.  1.
        -12    1    3    3    0    0  0.12420347450E+01 -0.52740758822E-01 -0.22475614328E+01  0.25684556235E+01  0.00000000000E+00 0.  1.
</event>
<event>
 7    1  0.3884463E-009  0.4778727E+02  0.7816164E-02  0.1312668E+00
        -11   -1    0    0    0    0  0.00000000000E+00  0.00000000000E+00  0.45593999997E+02  0.45594000000E+02  0.51100000000E-03 0.  1.
         11   -1    0    0    0    0 -0.00000000000E+00 -0.00000000000E+00 -0.45593999997E+02  0.45594000000E+02  0.51100000000E-03 0. -1.
    9900012    2    1    2    0    0  0.12101053161E+02  0.37634423940E+02 -0.17911947299E+02  0.47787271793E+02  0.20000003412E+02 0.  0.
        -12    1    1    2    0    0 -0.12101053161E+02 -0.37634423940E+02  0.17911947299E+02  0.43400728207E+02  0.00000000000E+00 0.  1.
         11    1    3    3    0    0  0.42439111944E+01  0.15231111679E+02 -0.57535840804E+01  0.16825613666E+02  0.51100000000E-03 0. -1.
        -11    1    3    3    0    0  0.10028179898E+02  0.10439516556E+02 -0.10859055287E+01  0.14516442025E+02  0.51100000000E-03 0.  1.
         12    1    3    3    0    0 -0.21710379305E+01  0.11963795704E+02 -0.11072457690E+02  0.16445216102E+02  0.00000000000E+00 0. -1.
</event>
<event>
 7    1  0.3884463E-009  0.4778727E+02  0.7816164E-02  0.1312668E+00
        -11   -1    0    0    0    0  0.00000000000E+00  0.00000000000E+00  0.45593999997E+02  0.45594000000E+02  0.51100000000E-03 0.  1.
         11   -1    0    0    0    0 -0.00000000000E+00 -0.00000000000E+00 -0.45593999997E+02  0.45594000000E+02  0.51100000000E-03 0. -1.
    9900012    2    1    2    0    0 -0.29909679796E+02 -0.65178234556E+00 -0.31442156122E+02  0.47787274807E+02  0.20000017153E+02 0.  0.
        -12    1    1    2    0    0  0.29909679796E+02  0.65178234556E+00  0.31442156122E+02  0.43400725193E+02  0.00000000000E+00 0.  1.
         11    1    3    3    0    0 -0.71891099078E+01 -0.23764560601E+01 -0.18719635664E+02  0.20192959276E+02  0.51100000000E-03 0. -1.
        -11    1    3    3    0    0 -0.21700320181E+01  0.29246618277E+01 -0.34511130965E+01  0.50172569829E+01  0.51100000000E-03 0.  1.
        -12    1    3    3    0    0 -0.20550537870E+02 -0.11999881132E+01 -0.92714073619E+01  0.22577058548E+02  0.00000000000E+00 0.  1.
</event>
<event>
 7    1  0.3884463E-009  0.4778727E+02  0.7816164E-02  0.1312668E+00
        -11   -1    0    0    0    0  0.00000000000E+00  0.00000000000E+00  0.45593999997E+02  0.45594000000E+02  0.51100000000E-03 0. -1.
         11   -1    0    0    0    0 -0.00000000000E+00 -0.00000000000E+00 -0.45593999997E+02  0.45594000000E+02  0.51100000000E-03 0.  1.
    9900012    2    1    2    0    0 -0.30039525592E+02 -0.19161645529E+02  0.24780671150E+02  0.47787269363E+02  0.19999992334E+02 0.  0.
        -12    1    1    2    0    0  0.30039525592E+02  0.19161645529E+02 -0.24780671150E+02  0.43400730637E+02  0.00000000000E+00 0.  1.
         11    1    3    3    0    0 -0.68188930515E+01 -0.11860710720E+01  0.70665026898E+01  0.98913865338E+01  0.51100000000E-03 0. -1.
        -11    1    3    3    0    0 -0.32342506908E+01  0.30340658425E+01  0.15520933543E+01  0.46983962273E+01  0.51100000000E-03 0.  1.
         12    1    3    3    0    0 -0.19986381849E+02 -0.21009640300E+02  0.16162075106E+02  0.33197486602E+02  0.00000000000E+00 0. -1.
</event>
<event>
 7    1  0.3884463E-009  0.4778728E+02  0.7816164E-02  0.1312668E+00
        -11   -1    0    0    0    0  0.00000000000E+00  0.00000000000E+00  0.45593999997E+02  0.45594000000E+02  0.51100000000E-03 0.  1.
         11   -1    0    0    0    0 -0.00000000000E+00 -0.00000000000E+00 -0.45593999997E+02  0.45594000000E+02  0.51100000000E-03 0. -1.
    9900012    2    1    2    0    0 -0.22497745976E+02 -0.23147521454E+02 -0.29011485289E+02  0.47787278783E+02  0.20000035284E+02 0.  0.
        -12    1    1    2    0    0  0.22497745976E+02  0.23147521454E+02  0.29011485289E+02  0.43400721217E+02  0.00000000000E+00 0.  1.
         11    1    3    3    0    0 -0.15828013905E+01 -0.21266463481E+01  0.19849499835E+01  0.33117837535E+01  0.51100000000E-03 0.  1.
        -11    1    3    3    0    0 -0.10988068734E+01 -0.63072827605E+01 -0.10926367497E+02  0.12663913270E+02  0.51100000000E-03 0. -1.
         12    1    3    3    0    0 -0.19816137713E+02 -0.14713592345E+02 -0.20070067775E+02  0.31811581760E+02  0.00000000000E+00 0. -1.
</event>
<event>
 7    1  0.3884463E-009  0.4778727E+02  0.7816164E-02  0.1312668E+00
        -11   -1    0    0    0    0  0.00000000000E+00  0.00000000000E+00  0.45593999997E+02  0.45594000000E+02  0.51100000000E-03 0.  1.
         11   -1    0    0    0    0 -0.00000000000E+00 -0.00000000000E+00 -0.45593999997E+02  0.45594000000E+02  0.51100000000E-03 0. -1.
    9900012    2    1    2    0    0 -0.29833190152E+02 -0.31520715782E+02  0.22022213564E+00  0.47787271252E+02  0.20000000946E+02 0.  0.
        -12    1    1    2    0    0  0.29833190152E+02  0.31520715782E+02 -0.22022213564E+00  0.43400728748E+02  0.00000000000E+00 0.  1.
         11    1    3    3    0    0 -0.13077521528E+02 -0.87208636954E+01 -0.63010226098E+01  0.16934518567E+02  0.51100000000E-03 0. -1.
        -11    1    3    3    0    0 -0.14523859158E+01  0.85405031442E+00  0.14592674871E+01  0.22289658248E+01  0.51100000000E-03 0.  1.
         12    1    3    3    0    0 -0.15303282709E+02 -0.23653902401E+02  0.50619772584E+01  0.28623786860E+02  0.00000000000E+00 0. -1.
</event>
<event>
 7    1  0.3884463E-009  0.4778727E+02  0.7816164E-02  0.1312668E+00
        -11   -1    0    0    0    0  0.00000000000E+00  0.00000000000E+00  0.45593999997E+02  0.45594000000E+02  0.51100000000E-03 0. -1.
         11   -1    0    0    0    0 -0.00000000000E+00 -0.00000000000E+00 -0.45593999997E+02  0.45594000000E+02  0.51100000000E-03 0.  1.
    9900012    2    1    2    0    0 -0.29111339983E+02 -0.28102726797E+02  0.15696814533E+02  0.47787270104E+02  0.19999995712E+02 0.  0.
        -12    1    1    2    0    0  0.29111339983E+02  0.28102726797E+02 -0.15696814533E+02  0.43400729896E+02  0.00000000000E+00 0.  1.
         11    1    3    3    0    0 -0.17616311632E+02 -0.17449906226E+02  0.16981540670E+02  0.30053392265E+02  0.51100000000E-03 0. -1.
        -11    1    3    3    0    0 -0.84568203540E+01 -0.10726315435E+02  0.13314055711E+01  0.13723858582E+02  0.51100000000E-03 0.  1.
         12    1    3    3    0    0 -0.30382079973E+01  0.73494864204E-01 -0.26161317089E+01  0.40100192578E+01  0.00000000000E+00 0. -1.
</event>
<event>
 7    1  0.3884463E-009  0.4778727E+02  0.7816164E-02  0.1312668E+00
        -11   -1    0    0    0    0  0.00000000000E+00  0.00000000000E+00  0.45593999997E+02  0.45594000000E+02  0.51100000000E-03 0.  1.
         11   -1    0    0    0    0 -0.00000000000E+00 -0.00000000000E+00 -0.45593999997E+02  0.45594000000E+02  0.51100000000E-03 0. -1.
    9900012    2    1    2    0    0  0.42557617077E+02 -0.49116705522E+01 -0.69532916047E+01  0.47787267944E+02  0.19999985862E+02 0.  0.
        -12    1    1    2    0    0 -0.42557617077E+02  0.49116705522E+01  0.69532916047E+01  0.43400732056E+02  0.00000000000E+00 0.  1.
         11    1    3    3    0    0  0.23881755502E+02 -0.81582192047E+01 -0.10060031259E+02  0.27167977761E+02  0.51100000000E-03 0. -1.
        -11    1    3    3    0    0 -0.12393335603E-01  0.10570102096E+01 -0.89183038442E+00  0.13830350226E+01  0.51100000000E-03 0.  1.
         12    1    3    3    0    0  0.18688254911E+02  0.21895384429E+01  0.39985700391E+01  0.19236255160E+02  0.00000000000E+00 0. -1.
</event>
<event>
 7    1  0.3884463E-009  0.4778727E+02  0.7816164E-02  0.1312668E+00
        -11   -1    0    0    0    0  0.00000000000E+00  0.00000000000E+00  0.45593999997E+02  0.45594000000E+02  0.51100000000E-03 0.  1.
         11   -1    0    0    0    0 -0.00000000000E+00 -0.00000000000E+00 -0.45593999997E+02  0.45594000000E+02  0.51100000000E-03 0. -1.
    9900012    2    1    2    0    0 -0.15376635631E+02  0.35101588397E+02 -0.20373035116E+02  0.47787274301E+02  0.20000014849E+02 0.  0.
        -12    1    1    2    0    0  0.15376635631E+02 -0.35101588397E+02  0.20373035116E+02  0.43400725699E+02  0.00000000000E+00 0.  1.
         11    1    3    3    0    0 -0.12015434220E+01  0.32198791887E+01 -0.46692430035E+01  0.57976856651E+01  0.51100000000E-03 0. -1.
        -11    1    3    3    0    0  0.20285726070E+01 -0.40857324070E+00 -0.30982701670E+01  0.37257639758E+01  0.51100000000E-03 0.  1.
         12    1    3    3    0    0 -0.16203664816E+02  0.32290282449E+02 -0.12605521946E+02  0.38263824660E+02  0.00000000000E+00 0. -1.
</event>
<event>
 7    1  0.3884463E-009  0.4778728E+02  0.7816164E-02  0.1312668E+00
        -11   -1    0    0    0    0  0.00000000000E+00  0.00000000000E+00  0.45593999997E+02  0.45594000000E+02  0.51100000000E-03 0. -1.
         11   -1    0    0    0    0 -0.00000000000E+00 -0.00000000000E+00 -0.45593999997E+02  0.45594000000E+02  0.51100000000E-03 0.  1.
    9900012    2    1    2    0    0 -0.22370337540E+02  0.24836426428E+02  0.27682894754E+02  0.47787277180E+02  0.20000027975E+02 0.  0.
        -12    1    1    2    0    0  0.22370337540E+02 -0.24836426428E+02 -0.27682894754E+02  0.43400722820E+02  0.00000000000E+00 0.  1.
         11    1    3    3    0    0 -0.43569781961E+01 -0.83026399380E+00  0.11837658024E+00  0.44369596095E+01  0.51100000000E-03 0.  1.
        -11    1    3    3    0    0 -0.81427203306E+01  0.60479843488E+01  0.14819333586E+02  0.17958136241E+02  0.51100000000E-03 0. -1.
        -12    1    3    3    0    0 -0.98706390131E+01  0.19618706073E+02  0.12745184588E+02  0.25392181330E+02  0.00000000000E+00 0.  1.
</event>
<event>
 7    1  0.3884463E-009  0.4778724E+02  0.7816164E-02  0.1312668E+00
        -11   -1    0    0    0    0  0.00000000000E+00  0.00000000000E+00  0.45593999997E+02  0.45594000000E+02  0.51100000000E-03 0.  1.
         11   -1    0    0    0    0 -0.00000000000E+00 -0.00000000000E+00 -0.45593999997E+02  0.45594000000E+02  0.51100000000E-03 0. -1.
    9900012    2    1    2    0    0  0.21493348494E+02 -0.84629325442E+01 -0.36742897547E+02  0.47787242209E+02  0.19999868526E+02 0.  0.
        -12    1    1    2    0    0 -0.21493348494E+02  0.84629325442E+01  0.36742897547E+02  0.43400757791E+02  0.00000000000E+00 0.  1.
         11    1    3    3    0    0  0.15410451530E+02 -0.10097594657E+02 -0.28254754075E+02  0.33730914045E+02  0.51100000000E-03 0. -1.
        -11    1    3    3    0    0  0.61627522591E+01  0.28871331459E+01 -0.99970972830E+01  0.12093676346E+02  0.51100000000E-03 0.  1.
         12    1    3    3    0    0 -0.79855295248E-01 -0.12524710328E+01  0.15089538108E+01  0.19626518182E+01  0.00000000000E+00 0. -1.
</event>
<event>
 7    1  0.3884463E-009  0.4778723E+02  0.7816164E-02  0.1312668E+00
        -11   -1    0    0    0    0  0.00000000000E+00  0.00000000000E+00  0.45593999997E+02  0.45594000000E+02  0.51100000000E-03 0.  1.
         11   -1    0    0    0    0 -0.00000000000E+00 -0.00000000000E+00 -0.45593999997E+02  0.45594000000E+02  0.51100000000E-03 0. -1.
    9900012    2    1    2    0    0  0.29835529703E+02 -0.14594629819E+01 -0.31485520141E+02  0.47787229922E+02  0.19999812505E+02 0.  0.
        -12    1    1    2    0    0 -0.29835529703E+02  0.14594629819E+01  0.31485520141E+02  0.43400770078E+02  0.00000000000E+00 0.  1.
         11    1    3    3    0    0  0.11540868229E+02 -0.33929235715E+00 -0.75292695802E+01  0.13783927577E+02  0.51100000000E-03 0. -1.
        -11    1    3    3    0    0  0.84677547008E+01 -0.83570805772E+01 -0.12673573626E+02  0.17382840221E+02  0.51100000000E-03 0.  1.
        -12    1    3    3    0    0  0.98269067733E+01  0.72369099525E+01 -0.11282676934E+02  0.16620462123E+02  0.00000000000E+00 0.  1.
</event>
<event>
 7    1  0.3884463E-009  0.4778728E+02  0.7816164E-02  0.1312668E+00
        -11   -1    0    0    0    0  0.00000000000E+00  0.00000000000E+00  0.45593999997E+02  0.45594000000E+02  0.51100000000E-03 0. -1.
         11   -1    0    0    0    0 -0.00000000000E+00 -0.00000000000E+00 -0.45593999997E+02  0.45594000000E+02  0.51100000000E-03 0.  1.
    9900012    2    1    2    0    0  0.22576146664E+02 -0.28527002155E+02  0.23667495055E+02  0.47787279127E+02  0.20000036851E+02 0.  0.
        -12    1    1    2    0    0 -0.22576146664E+02  0.28527002155E+02 -0.23667495055E+02  0.43400720873E+02  0.00000000000E+00 0.  1.
         11    1    3    3    0    0  0.56293155645E+01 -0.14462569996E+02  0.11435546973E+02  0.19277625877E+02  0.51100000000E-03 0. -1.
        -11    1    3    3    0    0  0.17693169799E+02 -0.89830542515E+01  0.66576717916E+01  0.20930076807E+02  0.51100000000E-03 0.  1.
         12    1    3    3    0    0 -0.74633869945E+00 -0.50813779069E+01  0.55742762903E+01  0.75795764425E+01  0.00000000000E+00 0. -1.
</event>
<event>
 7    1  0.3884463E-009  0.4778727E+02  0.7816164E-02  0.1312668E+00
        -11   -1    0    0    0    0  0.00000000000E+00  0.00000000000E+00  0.45593999997E+02  0.45594000000E+02  0.51100000000E-03 0.  1.
         11   -1    0    0    0    0 -0.00000000000E+00 -0.00000000000E+00 -0.45593999997E+02  0.45594000000E+02  0.51100000000E-03 0. -1.
    9900012    2    1    2    0    0 -0.75707337741E+01  0.38396006252E+02 -0.18763108513E+02  0.47787267897E+02  0.19999985648E+02 0.  0.
        -12    1    1    2    0    0  0.75707337741E+01 -0.38396006252E+02  0.18763108513E+02  0.43400732103E+02  0.00000000000E+00 0.  1.
         11    1    3    3    0    0  0.16453877781E+01  0.22401843647E+02 -0.30561190268E+01  0.22669136806E+02  0.51100000000E-03 0. -1.
        -11    1    3    3    0    0 -0.20240396459E+01  0.41577126943E+01 -0.66647593793E+00  0.46719912001E+01  0.51100000000E-03 0.  1.
        -12    1    3    3    0    0 -0.71920819064E+01  0.11836449911E+02 -0.15040513549E+02  0.20446139891E+02  0.00000000000E+00 0.  1.
</event>
<event>
 7    1  0.3884463E-009  0.4778727E+02  0.7816164E-02  0.1312668E+00
        -11   -1    0    0    0    0  0.00000000000E+00  0.00000000000E+00  0.45593999997E+02  0.45594000000E+02  0.51100000000E-03 0.  1.
         11   -1    0    0    0    0 -0.00000000000E+00 -0.00000000000E+00 -0.45593999997E+02  0.45594000000E+02  0.51100000000E-03 0. -1.
    9900012    2    1    2    0    0  0.11963526287E+02 -0.52258053519E+00 -0.41715993142E+02  0.47787272639E+02  0.20000007272E+02 0.  0.
        -12    1    1    2    0    0 -0.11963526287E+02  0.52258053519E+00  0.41715993142E+02  0.43400727361E+02  0.00000000000E+00 0.  1.
         11    1    3    3    0    0  0.21514442333E+01 -0.54953692561E+01 -0.27136108711E+02  0.27770419367E+02  0.51100000000E-03 0. -1.
        -11    1    3    3    0    0  0.20888397410E+01  0.55845670536E+01 -0.60699877966E+01  0.85085482164E+01  0.51100000000E-03 0.  1.
        -12    1    3    3    0    0  0.77232423130E+01 -0.61177833267E+00 -0.85098966337E+01  0.11508305056E+02  0.00000000000E+00 0.  1.
</event>
<event>
 7    1  0.3884463E-009  0.4778727E+02  0.7816164E-02  0.1312668E+00
        -11   -1    0    0    0    0  0.00000000000E+00  0.00000000000E+00  0.45593999997E+02  0.45594000000E+02  0.51100000000E-03 0.  1.
         11   -1    0    0    0    0 -0.00000000000E+00 -0.00000000000E+00 -0.45593999997E+02  0.45594000000E+02  0.51100000000E-03 0. -1.
    9900012    2    1    2    0    0 -0.25391454833E+02  0.14875004846E+02 -0.31900332783E+02  0.47787274437E+02  0.20000015469E+02 0.  0.
        -12    1    1    2    0    0  0.25391454833E+02 -0.14875004846E+02  0.31900332783E+02  0.43400725563E+02  0.00000000000E+00 0.  1.
         11    1    3    3    0    0  0.61658129869E+00  0.16174823092E+01 -0.35992193046E+01  0.39938454380E+01  0.51100000000E-03 0. -1.
        -11    1    3    3    0    0  0.20401804559E+01  0.28082210879E+01 -0.33882324286E+01  0.48506248280E+01  0.51100000000E-03 0.  1.
         12    1    3    3    0    0 -0.28048216587E+02  0.10449301449E+02 -0.24912881050E+02  0.38942804171E+02  0.00000000000E+00 0. -1.
</event>
<event>
 7    1  0.3884463E-009  0.4778727E+02  0.7816164E-02  0.1312668E+00
        -11   -1    0    0    0    0  0.00000000000E+00  0.00000000000E+00  0.45593999997E+02  0.45594000000E+02  0.51100000000E-03 0.  1.
         11   -1    0    0    0    0 -0.00000000000E+00 -0.00000000000E+00 -0.45593999997E+02  0.45594000000E+02  0.51100000000E-03 0. -1.
    9900012    2    1    2    0    0 -0.13168162664E+02 -0.16897923191E+02 -0.37744973083E+02  0.47787270638E+02  0.19999998148E+02 0.  0.
        -12    1    1    2    0    0  0.13168162664E+02  0.16897923191E+02  0.37744973083E+02  0.43400729362E+02  0.00000000000E+00 0.  1.
         11    1    3    3    0    0 -0.13213324281E+02 -0.36024210706E+01 -0.23412221228E+02  0.27123817563E+02  0.51100000000E-03 0. -1.
        -11    1    3    3    0    0  0.54000091010E+00 -0.17033978355E+00  0.56677838534E+00  0.80115830144E+00  0.51100000000E-03 0.  1.
        -12    1    3    3    0    0 -0.49483929367E+00 -0.13125162337E+02 -0.14899530240E+02  0.19862294774E+02  0.00000000000E+00 0.  1.
</event>
<event>
 7    1  0.3884463E-009  0.4778727E+02  0.7816164E-02  0.1312668E+00
        -11   -1    0    0    0    0  0.00000000000E+00  0.00000000000E+00  0.45593999997E+02  0.45594000000E+02  0.51100000000E-03 0.  1.
         11   -1    0    0    0    0 -0.00000000000E+00 -0.00000000000E+00 -0.45593999997E+02  0.45594000000E+02  0.51100000000E-03 0. -1.
    9900012    2    1    2    0    0 -0.20096393371E+02  0.32646574221E+02 -0.20345995918E+02  0.47787269767E+02  0.19999994176E+02 0.  0.
        -12    1    1    2    0    0  0.20096393371E+02 -0.32646574221E+02  0.20345995918E+02  0.43400730233E+02  0.00000000000E+00 0.  1.
         11    1    3    3    0    0 -0.58382643798E+01  0.30030063255E+01  0.10898296845E+00  0.65662207934E+01  0.51100000000E-03 0. -1.
        -11    1    3    3    0    0 -0.42585992308E+01  0.18914922882E+02 -0.52305095796E+01  0.20081538929E+02  0.51100000000E-03 0.  1.
         12    1    3    3    0    0 -0.99995297603E+01  0.10728645013E+02 -0.15224469307E+02  0.21139510044E+02  0.00000000000E+00 0. -1.
</event>
<event>
 7    1  0.3884463E-009  0.4778726E+02  0.7816164E-02  0.1312668E+00
        -11   -1    0    0    0    0  0.00000000000E+00  0.00000000000E+00  0.45593999997E+02  0.45594000000E+02  0.51100000000E-03 0.  1.
         11   -1    0    0    0    0 -0.00000000000E+00 -0.00000000000E+00 -0.45593999997E+02  0.45594000000E+02  0.51100000000E-03 0. -1.
    9900012    2    1    2    0    0  0.12793995887E+02  0.12335612311E+01 -0.41453781697E+02  0.47787262437E+02  0.19999960754E+02 0.  0.
        -12    1    1    2    0    0 -0.12793995887E+02 -0.12335612311E+01  0.41453781697E+02  0.43400737563E+02  0.00000000000E+00 0.  1.
         11    1    3    3    0    0  0.74986829027E+01  0.91111312040E+00 -0.53249763540E+01  0.92420639375E+01  0.51100000000E-03 0. -1.
        -11    1    3    3    0    0  0.24810134389E+01  0.12311270300E+01 -0.52526323276E+00  0.28190429534E+01  0.51100000000E-03 0.  1.
        -12    1    3    3    0    0  0.28142995456E+01 -0.90867891934E+00 -0.35603542110E+02  0.35726155546E+02  0.00000000000E+00 0.  1.
</event>
<event>
 7    1  0.3884463E-009  0.4778727E+02  0.7816164E-02  0.1312668E+00
        -11   -1    0    0    0    0  0.00000000000E+00  0.00000000000E+00  0.45593999997E+02  0.45594000000E+02  0.51100000000E-03 0.  1.
         11   -1    0    0    0    0 -0.00000000000E+00 -0.00000000000E+00 -0.45593999997E+02  0.45594000000E+02  0.51100000000E-03 0. -1.
    9900012    2    1    2    0    0  0.31919702833E+02 -0.56646831554E+00 -0.29401281837E+02  0.47787266262E+02  0.19999978195E+02 0.  0.
        -12    1    1    2    0    0 -0.31919702833E+02  0.56646831554E+00  0.29401281837E+02  0.43400733738E+02  0.00000000000E+00 0.  1.
         11    1    3    3    0    0  0.58486720841E+01 -0.70726446739E+01 -0.71244783744E+01  0.11618410399E+02  0.51100000000E-03 0. -1.
        -11    1    3    3    0    0  0.21132671647E+02  0.12722852889E+01 -0.18066284552E+02  0.27831621559E+02  0.51100000000E-03 0.  1.
        -12    1    3    3    0    0  0.49383591018E+01  0.52338910695E+01 -0.42105189106E+01  0.83372343042E+01  0.00000000000E+00 0.  1.
</event>
<event>
 7    1  0.3884463E-009  0.4778730E+02  0.7816164E-02  0.1312668E+00
        -11   -1    0    0    0    0  0.00000000000E+00  0.00000000000E+00  0.45593999997E+02  0.45594000000E+02  0.51100000000E-03 0. -1.
         11   -1    0    0    0    0 -0.00000000000E+00 -0.00000000000E+00 -0.45593999997E+02  0.45594000000E+02  0.51100000000E-03 0.  1.
    9900012    2    1    2    0    0 -0.30953202984E+02 -0.29194679978E+02  0.85551728554E+01  0.47787296128E+02  0.20000114366E+02 0.  0.
        -12    1    1    2    0    0  0.30953202984E+02  0.29194679978E+02 -0.85551728554E+01  0.43400703872E+02  0.00000000000E+00 0.  1.
         11    1    3    3    0    0 -0.49492672054E+01 -0.10140754667E+02  0.75122041397E+01  0.13555934582E+02  0.51100000000E-03 0. -1.
        -11    1    3    3    0    0 -0.14158289007E+01  0.15058441513E+00 -0.24536763959E+01  0.28368601057E+01  0.51100000000E-03 0.  1.
         12    1    3    3    0    0 -0.24588106878E+02 -0.19204509726E+02  0.34966451116E+01  0.31394501440E+02  0.00000000000E+00 0. -1.
</event>
<event>
 7    1  0.3884463E-009  0.4778727E+02  0.7816164E-02  0.1312668E+00
        -11   -1    0    0    0    0  0.00000000000E+00  0.00000000000E+00  0.45593999997E+02  0.45594000000E+02  0.51100000000E-03 0.  1.
         11   -1    0    0    0    0 -0.00000000000E+00 -0.00000000000E+00 -0.45593999997E+02  0.45594000000E+02  0.51100000000E-03 0. -1.
    9900012    2    1    2    0    0 -0.38714998427E+02 -0.85219367707E+01 -0.17667734148E+02  0.47787270289E+02  0.19999996557E+02 0.  0.
        -12    1    1    2    0    0  0.38714998427E+02  0.85219367707E+01  0.17667734148E+02  0.43400729711E+02  0.00000000000E+00 0.  1.
         11    1    3    3    0    0 -0.14610851843E+01  0.14261756562E+01  0.96721621600E+00  0.22592596991E+01  0.51100000000E-03 0. -1.
        -11    1    3    3    0    0 -0.22579883561E+02  0.19189535016E+01 -0.97734746566E+01  0.24679026141E+02  0.51100000000E-03 0.  1.
         12    1    3    3    0    0 -0.14674029682E+02 -0.11867065929E+02 -0.88614757071E+01  0.20848984449E+02  0.00000000000E+00 0. -1.
</event>
<event>
 7    1  0.3884463E-009  0.4778727E+02  0.7816164E-02  0.1312668E+00
        -11   -1    0    0    0    0  0.00000000000E+00  0.00000000000E+00  0.45593999997E+02  0.45594000000E+02  0.51100000000E-03 0.  1.
         11   -1    0    0    0    0 -0.00000000000E+00 -0.00000000000E+00 -0.45593999997E+02  0.45594000000E+02  0.51100000000E-03 0. -1.
    9900012    2    1    2    0    0  0.81782352128E+01  0.42138426793E+02  0.64103617168E+01  0.47787270961E+02  0.19999999618E+02 0.  0.
        -12    1    1    2    0    0 -0.81782352128E+01 -0.42138426793E+02 -0.64103617168E+01  0.43400729039E+02  0.00000000000E+00 0.  1.
         11    1    3    3    0    0  0.67328352532E+01  0.71542107285E+01  0.66340491666E+01  0.11854299233E+02  0.51100000000E-03 0. -1.
        -11    1    3    3    0    0  0.38752095633E+01  0.12610334043E+02  0.18962041298E+01  0.13327916724E+02  0.51100000000E-03 0.  1.
        -12    1    3    3    0    0 -0.24298096037E+01  0.22373882022E+02 -0.21198915796E+01  0.22605055004E+02  0.00000000000E+00 0.  1.
</event>
<event>
 7    1  0.3884463E-009  0.4778727E+02  0.7816164E-02  0.1312668E+00
        -11   -1    0    0    0    0  0.00000000000E+00  0.00000000000E+00  0.45593999997E+02  0.45594000000E+02  0.51100000000E-03 0.  1.
         11   -1    0    0    0    0 -0.00000000000E+00 -0.00000000000E+00 -0.45593999997E+02  0.45594000000E+02  0.51100000000E-03 0. -1.
    9900012    2    1    2    0    0 -0.10117661484E+02 -0.30809721578E+02 -0.28844708713E+02  0.47787271453E+02  0.20000001863E+02 0.  0.
        -12    1    1    2    0    0  0.10117661484E+02  0.30809721578E+02  0.28844708713E+02  0.43400728547E+02  0.00000000000E+00 0.  1.
         11    1    3    3    0    0 -0.80807083713E+01 -0.74098062976E+01 -0.53496162335E+01  0.12199240602E+02  0.51100000000E-03 0. -1.
        -11    1    3    3    0    0 -0.55322117677E+01 -0.63253723435E+01 -0.12219142621E+02  0.14829806101E+02  0.51100000000E-03 0.  1.
         12    1    3    3    0    0  0.34952586547E+01 -0.17074542937E+02 -0.11275949859E+02  0.20758224751E+02  0.00000000000E+00 0. -1.
</event>
<event>
 7    1  0.3884463E-009  0.4778727E+02  0.7816164E-02  0.1312668E+00
        -11   -1    0    0    0    0  0.00000000000E+00  0.00000000000E+00  0.45593999997E+02  0.45594000000E+02  0.51100000000E-03 0.  1.
         11   -1    0    0    0    0 -0.00000000000E+00 -0.00000000000E+00 -0.45593999997E+02  0.45594000000E+02  0.51100000000E-03 0. -1.
    9900012    2    1    2    0    0  0.40235853992E+02  0.15182759085E+02 -0.58466323701E+01  0.47787271550E+02  0.20000002307E+02 0.  0.
        -12    1    1    2    0    0 -0.40235853992E+02 -0.15182759085E+02  0.58466323701E+01  0.43400728450E+02  0.00000000000E+00 0.  1.
         11    1    3    3    0    0  0.25359746956E+02  0.49434857913E+01 -0.95971754197E+01  0.27561941037E+02  0.51100000000E-03 0. -1.
        -11    1    3    3    0    0 -0.47663747397E+00 -0.48816385614E+00 -0.69690821649E+00  0.97527870651E+00  0.51100000000E-03 0.  1.
        -12    1    3    3    0    0  0.15352744510E+02  0.10727437150E+02  0.44474512661E+01  0.19250051807E+02  0.00000000000E+00 0.  1.
</event>
<event>
 7    1  0.3884463E-009  0.4778727E+02  0.7816164E-02  0.1312668E+00
        -11   -1    0    0    0    0  0.00000000000E+00  0.00000000000E+00  0.45593999997E+02  0.45594000000E+02  0.51100000000E-03 0.  1.
         11   -1    0    0    0    0 -0.00000000000E+00 -0.00000000000E+00 -0.45593999997E+02  0.45594000000E+02  0.51100000000E-03 0. -1.
    9900012    2    1    2    0    0 -0.18854375010E+02  0.17305322612E+02 -0.35052274057E+02  0.47787267699E+02  0.19999984747E+02 0.  0.
        -12    1    1    2    0    0  0.18854375010E+02 -0.17305322612E+02  0.35052274057E+02  0.43400732301E+02  0.00000000000E+00 0.  1.
         11    1    3    3    0    0 -0.29947084011E+01 -0.19660820742E+01 -0.65596547424E+01  0.74741439464E+01  0.51100000000E-03 0. -1.
        -11    1    3    3    0    0  0.22945043676E+01  0.34260065788E+01 -0.22965034723E+01  0.47197669254E+01  0.51100000000E-03 0.  1.
         12    1    3    3    0    0 -0.18154170976E+02  0.15845398108E+02 -0.26196115842E+02  0.35593356827E+02  0.00000000000E+00 0. -1.
</event>
<event>
 7    1  0.3884463E-009  0.4778726E+02  0.7816164E-02  0.1312668E+00
        -11   -1    0    0    0    0  0.00000000000E+00  0.00000000000E+00  0.45593999997E+02  0.45594000000E+02  0.51100000000E-03 0. -1.
         11   -1    0    0    0    0 -0.00000000000E+00 -0.00000000000E+00 -0.45593999997E+02  0.45594000000E+02  0.51100000000E-03 0.  1.
    9900012    2    1    2    0    0  0.74743564947E+01 -0.37040912047E+02 -0.21347804898E+02  0.47787263321E+02  0.19999964786E+02 0.  0.
        -12    1    1    2    0    0 -0.74743564947E+01  0.37040912047E+02  0.21347804898E+02  0.43400736679E+02  0.00000000000E+00 0.  1.
         11    1    3    3    0    0  0.44711800593E+01 -0.10747692811E+02 -0.15507422897E+01  0.11743472816E+02  0.51100000000E-03 0. -1.
        -11    1    3    3    0    0  0.31129591007E+01  0.61613403578E+00 -0.26600460253E+01  0.41407705358E+01  0.51100000000E-03 0.  1.
         12    1    3    3    0    0 -0.10978266526E+00 -0.26909353272E+02 -0.17137016583E+02  0.31903019969E+02  0.00000000000E+00 0. -1.
</event>
<event>
 7    1  0.3884463E-009  0.4778728E+02  0.7816164E-02  0.1312668E+00
        -11   -1    0    0    0    0  0.00000000000E+00  0.00000000000E+00  0.45593999997E+02  0.45594000000E+02  0.51100000000E-03 0.  1.
         11   -1    0    0    0    0 -0.00000000000E+00 -0.00000000000E+00 -0.45593999997E+02  0.45594000000E+02  0.51100000000E-03 0. -1.
    9900012    2    1    2    0    0  0.80156212874E+01  0.34351200111E+02 -0.25285721674E+02  0.47787275878E+02  0.20000022040E+02 0.  0.
        -12    1    1    2    0    0 -0.80156212874E+01 -0.34351200111E+02  0.25285721674E+02  0.43400724122E+02  0.00000000000E+00 0.  1.
         11    1    3    3    0    0 -0.45922125679E+01  0.12755051009E+02 -0.12240830268E+02  0.18265203761E+02  0.51100000000E-03 0. -1.
        -11    1    3    3    0    0  0.38045663070E+01  0.14994671474E+02 -0.72154501756E+01  0.17069786726E+02  0.51100000000E-03 0.  1.
        -12    1    3    3    0    0  0.88032675483E+01  0.66014776284E+01 -0.58294412307E+01  0.12452285391E+02  0.00000000000E+00 0.  1.
</event>
<event>
 7    1  0.3884463E-009  0.4778727E+02  0.7816164E-02  0.1312668E+00
        -11   -1    0    0    0    0  0.00000000000E+00  0.00000000000E+00  0.45593999997E+02  0.45594000000E+02  0.51100000000E-03 0. -1.
         11   -1    0    0    0    0 -0.00000000000E+00 -0.00000000000E+00 -0.45593999997E+02  0.45594000000E+02  0.51100000000E-03 0.  1.
    9900012    2    1    2    0    0 -0.13310556500E+02 -0.23588070190E+02  0.33912464961E+02  0.47787271327E+02  0.20000001289E+02 0.  0.
        -12    1    1    2    0    0  0.13310556500E+02  0.23588070190E+02 -0.33912464961E+02  0.43400728673E+02  0.00000000000E+00 0.  1.
         11    1    3    3    0    0 -0.94779991880E+00 -0.58958862978E+01  0.92055667805E+01  0.10972796359E+02  0.51100000000E-03 0. -1.
        -11    1    3    3    0    0 -0.15593718392E+02 -0.93328638173E+01  0.18355598077E+02  0.25830106104E+02  0.51100000000E-03 0.  1.
        -12    1    3    3    0    0  0.32309618114E+01 -0.83593200746E+01  0.63513001036E+01  0.10984368864E+02  0.00000000000E+00 0.  1.
</event>
<event>
 7    1  0.3884463E-009  0.4778727E+02  0.7816164E-02  0.1312668E+00
        -11   -1    0    0    0    0  0.00000000000E+00  0.00000000000E+00  0.45593999997E+02  0.45594000000E+02  0.51100000000E-03 0. -1.
         11   -1    0    0    0    0 -0.00000000000E+00 -0.00000000000E+00 -0.45593999997E+02  0.45594000000E+02  0.51100000000E-03 0.  1.
    9900012    2    1    2    0    0  0.16982848504E+02 -0.35156933910E+02  0.18952477052E+02  0.47787268075E+02  0.19999986459E+02 0.  0.
        -12    1    1    2    0    0 -0.16982848504E+02  0.35156933910E+02 -0.18952477052E+02  0.43400731925E+02  0.00000000000E+00 0.  1.
         11    1    3    3    0    0  0.13240643342E+01 -0.14572059976E+02  0.12835558131E+02  0.19464059985E+02  0.51100000000E-03 0. -1.
        -11    1    3    3    0    0  0.81304916152E+01 -0.17608908314E+02  0.57076583081E+01  0.20217712768E+02  0.51100000000E-03 0.  1.
        -12    1    3    3    0    0  0.75282925550E+01 -0.29759656193E+01  0.40926061245E+00  0.81054953217E+01  0.00000000000E+00 0.  1.
</event>
<event>
 7    1  0.3884463E-009  0.4778727E+02  0.7816164E-02  0.1312668E+00
        -11   -1    0    0    0    0  0.00000000000E+00  0.00000000000E+00  0.45593999997E+02  0.45594000000E+02  0.51100000000E-03 0.  1.
         11   -1    0    0    0    0 -0.00000000000E+00 -0.00000000000E+00 -0.45593999997E+02  0.45594000000E+02  0.51100000000E-03 0. -1.
    9900012    2    1    2    0    0 -0.37360584454E+02  0.21821446158E+02 -0.34109091222E+01  0.47787273229E+02  0.20000009961E+02 0.  0.
        -12    1    1    2    0    0  0.37360584454E+02 -0.21821446158E+02  0.34109091222E+01  0.43400726771E+02  0.00000000000E+00 0.  1.
         11    1    3    3    0    0 -0.44514964791E+01  0.39714710778E+01 -0.27832637123E+01  0.65829294830E+01  0.51100000000E-03 0. -1.
        -11    1    3    3    0    0 -0.19116531236E+02  0.74839723680E+00  0.11244281393E+01  0.19164190664E+02  0.51100000000E-03 0.  1.
        -12    1    3    3    0    0 -0.13792556739E+02  0.17101577843E+02 -0.17520735492E+01  0.22040153082E+02  0.00000000000E+00 0.  1.
</event>
<event>
 7    1  0.3884463E-009  0.4778728E+02  0.7816164E-02  0.1312668E+00
        -11   -1    0    0    0    0  0.00000000000E+00  0.00000000000E+00  0.45593999997E+02  0.45594000000E+02  0.51100000000E-03 0.  1.
         11   -1    0    0    0    0 -0.00000000000E+00 -0.00000000000E+00 -0.45593999997E+02  0.45594000000E+02  0.51100000000E-03 0. -1.
    9900012    2    1    2    0    0  0.22234913625E+02 -0.33900286097E+02 -0.15491999845E+02  0.47787276036E+02  0.20000022760E+02 0.  0.
        -12    1    1    2    0    0 -0.22234913625E+02  0.33900286097E+02  0.15491999845E+02  0.43400723964E+02  0.00000000000E+00 0.  1.
         11    1    3    3    0    0 -0.68164784570E+00 -0.99926260635E+01  0.10107238130E+01  0.10066716561E+02  0.51100000000E-03 0. -1.
        -11    1    3    3    0    0  0.72451536625E+01 -0.62241970513E+01 -0.13389428062E+01  0.96449804887E+01  0.51100000000E-03 0.  1.
         12    1    3    3    0    0  0.15671407808E+02 -0.17683462982E+02 -0.15163780851E+02  0.28075578987E+02  0.00000000000E+00 0. -1.
</event>
<event>
 7    1  0.3884463E-009  0.4778727E+02  0.7816164E-02  0.1312668E+00
        -11   -1    0    0    0    0  0.00000000000E+00  0.00000000000E+00  0.45593999997E+02  0.45594000000E+02  0.51100000000E-03 0.  1.
         11   -1    0    0    0    0 -0.00000000000E+00 -0.00000000000E+00 -0.45593999997E+02  0.45594000000E+02  0.51100000000E-03 0. -1.
    9900012    2    1    2    0    0 -0.16881720870E+02  0.49649313613E+01 -0.39673418766E+02  0.47787271901E+02  0.20000003906E+02 0.  0.
        -12    1    1    2    0    0  0.16881720870E+02 -0.49649313613E+01  0.39673418766E+02  0.43400728099E+02  0.00000000000E+00 0.  1.
         11    1    3    3    0    0 -0.80227643122E+00 -0.20058845215E+00 -0.16193029891E+02  0.16214132740E+02  0.51100000000E-03 0. -1.
        -11    1    3    3    0    0 -0.35201488677E+01 -0.37832021601E+01 -0.31366464931E+01  0.60450490584E+01  0.51100000000E-03 0.  1.
         12    1    3    3    0    0 -0.12559295571E+02  0.89487219736E+01 -0.20343742382E+02  0.25528090103E+02  0.00000000000E+00 0. -1.
</event>
<event>
 7    1  0.3884463E-009  0.4778728E+02  0.7816164E-02  0.1312668E+00
        -11   -1    0    0    0    0  0.00000000000E+00  0.00000000000E+00  0.45593999997E+02  0.45594000000E+02  0.51100000000E-03 0.  1.
         11   -1    0    0    0    0 -0.00000000000E+00 -0.00000000000E+00 -0.45593999997E+02  0.45594000000E+02  0.51100000000E-03 0. -1.
    9900012    2    1    2    0    0 -0.34595028854E+01  0.14122159429E+00 -0.43262388596E+02  0.47787281449E+02  0.20000047437E+02 0.  0.
        -12    1    1    2    0    0  0.34595028854E+01 -0.14122159429E+00  0.43262388596E+02  0.43400718551E+02  0.00000000000E+00 0.  1.
         11    1    3    3    0    0 -0.35033489207E+01  0.52278847497E+00 -0.21216848596E+02  0.21510495719E+02  0.51100000000E-03 0. -1.
        -11    1    3    3    0    0 -0.16211965011E+01  0.36435986892E+01 -0.21523293377E+02  0.21889637904E+02  0.51100000000E-03 0.  1.
        -12    1    3    3    0    0  0.16650425365E+01 -0.40251655699E+01 -0.52224662270E+00  0.43871478261E+01  0.00000000000E+00 0.  1.
</event>
<event>
 7    1  0.3884463E-009  0.4778728E+02  0.7816164E-02  0.1312668E+00
        -11   -1    0    0    0    0  0.00000000000E+00  0.00000000000E+00  0.45593999997E+02  0.45594000000E+02  0.51100000000E-03 0.  1.
         11   -1    0    0    0    0 -0.00000000000E+00 -0.00000000000E+00 -0.45593999997E+02  0.45594000000E+02  0.51100000000E-03 0. -1.
    9900012    2    1    2    0    0  0.99395468716E+01 -0.20595912895E+02 -0.36886804036E+02  0.47787279592E+02  0.20000038970E+02 0.  0.
        -12    1    1    2    0    0 -0.99395468716E+01  0.20595912895E+02  0.36886804036E+02  0.43400720408E+02  0.00000000000E+00 0.  1.
         11    1    3    3    0    0  0.25486760305E+01  0.14126688474E+01 -0.83053285383E+01  0.88016967211E+01  0.51100000000E-03 0. -1.
        -11    1    3    3    0    0  0.26539890777E+01 -0.12277620346E+01 -0.10921105283E+02  0.11305821443E+02  0.51100000000E-03 0.  1.
        -12    1    3    3    0    0  0.47368817633E+01 -0.20780819708E+02 -0.17660370214E+02  0.27679761427E+02  0.00000000000E+00 0.  1.
</event>
<event>
 7    1  0.3884463E-009  0.4778726E+02  0.7816164E-02  0.1312668E+00
        -11   -1    0    0    0    0  0.00000000000E+00  0.00000000000E+00  0.45593999997E+02  0.45594000000E+02  0.51100000000E-03 0.  1.
         11   -1    0    0    0    0 -0.00000000000E+00 -0.00000000000E+00 -0.45593999997E+02  0.45594000000E+02  0.51100000000E-03 0. -1.
    9900012    2    1    2    0    0 -0.26128358259E+02 -0.14637795405E+02 -0.31411273394E+02  0.47787259731E+02  0.19999948418E+02 0.  0.
        -12    1    1    2    0    0  0.26128358259E+02  0.14637795405E+02  0.31411273394E+02  0.43400740269E+02  0.00000000000E+00 0.  1.
         11    1    3    3    0    0 -0.74151061627E+01 -0.47625538556E+01 -0.22062537066E+01  0.90847825682E+01  0.51100000000E-03 0. -1.
        -11    1    3    3    0    0 -0.37697522182E+01 -0.31033959714E+01  0.35399467956E+00  0.48956522381E+01  0.51100000000E-03 0.  1.
        -12    1    3    3    0    0 -0.14943499878E+02 -0.67718455776E+01 -0.29559014367E+02  0.33806824925E+02  0.00000000000E+00 0.  1.
</event>
<event>
 7    1  0.3884463E-009  0.4778727E+02  0.7816164E-02  0.1312668E+00
        -11   -1    0    0    0    0  0.00000000000E+00  0.00000000000E+00  0.45593999997E+02  0.45594000000E+02  0.51100000000E-03 0.  1.
         11   -1    0    0    0    0 -0.00000000000E+00 -0.00000000000E+00 -0.45593999997E+02  0.45594000000E+02  0.51100000000E-03 0. -1.
    9900012    2    1    2    0    0 -0.22490386274E+02  0.12485208449E+02 -0.34956053704E+02  0.47787267341E+02  0.19999983115E+02 0.  0.
        -12    1    1    2    0    0  0.22490386274E+02 -0.12485208449E+02  0.34956053704E+02  0.43400732659E+02  0.00000000000E+00 0.  1.
         11    1    3    3    0    0 -0.15590703604E+01 -0.24377049692E+01 -0.14267039948E+01  0.32262347179E+01  0.51100000000E-03 0. -1.
        -11    1    3    3    0    0 -0.27639249506E+01 -0.14079850995E+01 -0.10645879273E+02  0.11088572898E+02  0.51100000000E-03 0.  1.
         12    1    3    3    0    0 -0.18167390963E+02  0.16330898518E+02 -0.22883470436E+02  0.33472459725E+02  0.00000000000E+00 0. -1.
</event>
<event>
 7    1  0.3884463E-009  0.4778727E+02  0.7816164E-02  0.1312668E+00
        -11   -1    0    0    0    0  0.00000000000E+00  0.00000000000E+00  0.45593999997E+02  0.45594000000E+02  0.51100000000E-03 0. -1.
         11   -1    0    0    0    0 -0.00000000000E+00 -0.00000000000E+00 -0.45593999997E+02  0.45594000000E+02  0.51100000000E-03 0.  1.
    9900012    2    1    2    0    0  0.27403962757E+02  0.27742250765E+02  0.19052912719E+02  0.47787272640E+02  0.20000007276E+02 0.  0.
        -12    1    1    2    0    0 -0.27403962757E+02 -0.27742250765E+02 -0.19052912719E+02  0.43400727360E+02  0.00000000000E+00 0.  1.
         11    1    3    3    0    0  0.21354292964E+00 -0.63156303305E+00  0.24402298361E+01  0.25296628948E+01  0.51100000000E-03 0. -1.
        -11    1    3    3    0    0  0.14028419322E+02  0.44978309184E+01  0.73497110784E+01  0.16463453004E+02  0.51100000000E-03 0.  1.
        -12    1    3    3    0    0  0.13162000506E+02  0.23875982879E+02  0.92629718048E+01  0.28794156741E+02  0.00000000000E+00 0.  1.
</event>
<event>
 7    1  0.3884463E-009  0.4778727E+02  0.7816164E-02  0.1312668E+00
        -11   -1    0    0    0    0  0.00000000000E+00  0.00000000000E+00  0.45593999997E+02  0.45594000000E+02  0.51100000000E-03 0.  1.
         11   -1    0    0    0    0 -0.00000000000E+00 -0.00000000000E+00 -0.45593999997E+02  0.45594000000E+02  0.51100000000E-03 0. -1.
    9900012    2    1    2    0    0  0.46170367664E+00 -0.42954743565E+02 -0.61886915659E+01  0.47787273412E+02  0.20000010797E+02 0.  0.
        -12    1    1    2    0    0 -0.46170367664E+00  0.42954743565E+02  0.61886915659E+01  0.43400726588E+02  0.00000000000E+00 0.  1.
         11    1    3    3    0    0 -0.24306169760E+01 -0.82841700551E+01 -0.52874521611E+01  0.10123859096E+02  0.51100000000E-03 0. -1.
        -11    1    3    3    0    0  0.91244553839E+00 -0.45588696519E+01 -0.54303067727E+01  0.71487118609E+01  0.51100000000E-03 0.  1.
        -12    1    3    3    0    0  0.19798751143E+01 -0.30111703858E+02  0.45290673679E+01  0.30514702455E+02  0.00000000000E+00 0.  1.
</event>
<event>
 7    1  0.3884463E-009  0.4778727E+02  0.7816164E-02  0.1312668E+00
        -11   -1    0    0    0    0  0.00000000000E+00  0.00000000000E+00  0.45593999997E+02  0.45594000000E+02  0.51100000000E-03 0.  1.
         11   -1    0    0    0    0 -0.00000000000E+00 -0.00000000000E+00 -0.45593999997E+02  0.45594000000E+02  0.51100000000E-03 0. -1.
    9900012    2    1    2    0    0 -0.17078065864E+02 -0.35438183764E+02 -0.18332974431E+02  0.47787272430E+02  0.20000006316E+02 0.  0.
        -12    1    1    2    0    0  0.17078065864E+02  0.35438183764E+02  0.18332974431E+02  0.43400727570E+02  0.00000000000E+00 0.  1.
         11    1    3    3    0    0 -0.46577877103E+01 -0.18674027761E+02 -0.15976682175E+02  0.25013369880E+02  0.51100000000E-03 0. -1.
        -11    1    3    3    0    0 -0.56052473526E+01 -0.22098794462E+01 -0.29152402554E+01  0.66933542457E+01  0.51100000000E-03 0.  1.
        -12    1    3    3    0    0 -0.68150308010E+01 -0.14554276556E+02  0.55894799855E+00  0.16080548304E+02  0.00000000000E+00 0.  1.
</event>
<event>
 7    1  0.3884463E-009  0.4778727E+02  0.7816164E-02  0.1312668E+00
        -11   -1    0    0    0    0  0.00000000000E+00  0.00000000000E+00  0.45593999997E+02  0.45594000000E+02  0.51100000000E-03 0. -1.
         11   -1    0    0    0    0 -0.00000000000E+00 -0.00000000000E+00 -0.45593999997E+02  0.45594000000E+02  0.51100000000E-03 0.  1.
    9900012    2    1    2    0    0  0.16098518364E+02  0.35931158181E+02 -0.18259599192E+02  0.47787269771E+02  0.19999994196E+02 0.  0.
        -12    1    1    2    0    0 -0.16098518364E+02 -0.35931158181E+02  0.18259599192E+02  0.43400730229E+02  0.00000000000E+00 0.  1.
         11    1    3    3    0    0  0.59316205874E+01  0.18468226015E+02 -0.86988671703E+01  0.21258640249E+02  0.51100000000E-03 0. -1.
        -11    1    3    3    0    0 -0.30821672709E+01  0.62979881657E+01 -0.50013757251E+01  0.86126749286E+01  0.51100000000E-03 0.  1.
         12    1    3    3    0    0  0.13249065048E+02  0.11164944000E+02 -0.45593562967E+01  0.17915954594E+02  0.00000000000E+00 0. -1.
</event>
<event>
 7    1  0.3884463E-009  0.4778727E+02  0.7816164E-02  0.1312668E+00
        -11   -1    0    0    0    0  0.00000000000E+00  0.00000000000E+00  0.45593999997E+02  0.45594000000E+02  0.51100000000E-03 0. -1.
         11   -1    0    0    0    0 -0.00000000000E+00 -0.00000000000E+00 -0.45593999997E+02  0.45594000000E+02  0.51100000000E-03 0.  1.
    9900012    2    1    2    0    0  0.42506274415E+02 -0.69668913236E+01  0.53199979233E+01  0.47787270545E+02  0.19999997722E+02 0.  0.
        -12    1    1    2    0    0 -0.42506274415E+02  0.69668913236E+01 -0.53199979233E+01  0.43400729455E+02  0.00000000000E+00 0.  1.
         11    1    3    3    0    0  0.14413833190E+02  0.74516615235E+00  0.32104392047E+01  0.14785830378E+02  0.51100000000E-03 0. -1.
        -11    1    3    3    0    0  0.19170918369E+02  0.18404925698E+01 -0.18406185003E+01  0.19346818879E+02  0.51100000000E-03 0.  1.
        -12    1    3    3    0    0  0.89215228555E+01 -0.95525500458E+01  0.39501772189E+01  0.13654621287E+02  0.00000000000E+00 0.  1.
</event>
<event>
 7    1  0.3884463E-009  0.4778727E+02  0.7816164E-02  0.1312668E+00
        -11   -1    0    0    0    0  0.00000000000E+00  0.00000000000E+00  0.45593999997E+02  0.45594000000E+02  0.51100000000E-03 0. -1.
         11   -1    0    0    0    0 -0.00000000000E+00 -0.00000000000E+00 -0.45593999997E+02  0.45594000000E+02  0.51100000000E-03 0.  1.
    9900012    2    1    2    0    0  0.92791786316E+01 -0.27530456478E+02  0.32242735874E+02  0.47787271820E+02  0.20000003534E+02 0.  0.
        -12    1    1    2    0    0 -0.92791786316E+01  0.27530456478E+02 -0.32242735874E+02  0.43400728180E+02  0.00000000000E+00 0.  1.
         11    1    3    3    0    0  0.34914257801E+01 -0.83537379794E+01  0.19174186236E+01  0.92548088389E+01  0.51100000000E-03 0. -1.
        -11    1    3    3    0    0  0.57001179029E+01 -0.13620974540E+01  0.60666546556E+01  0.84351024031E+01  0.51100000000E-03 0.  1.
        -12    1    3    3    0    0  0.87634948635E-01 -0.17814621045E+02  0.24258662595E+02  0.30097360577E+02  0.00000000000E+00 0.  1.
</event>
<event>
 7    1  0.3884463E-009  0.4778727E+02  0.7816164E-02  0.1312668E+00
        -11   -1    0    0    0    0  0.00000000000E+00  0.00000000000E+00  0.45593999997E+02  0.45594000000E+02  0.51100000000E-03 0.  1.
         11   -1    0    0    0    0 -0.00000000000E+00 -0.00000000000E+00 -0.45593999997E+02  0.45594000000E+02  0.51100000000E-03 0. -1.
    9900012    2    1    2    0    0  0.36905144072E+02 -0.22421614027E+02  0.43479917750E+01  0.47787268819E+02  0.19999989855E+02 0.  0.
        -12    1    1    2    0    0 -0.36905144072E+02  0.22421614027E+02 -0.43479917750E+01  0.43400731181E+02  0.00000000000E+00 0.  1.
         11    1    3    3    0    0  0.12943273010E+02 -0.39357259279E+01  0.41556511532E+01  0.14152303401E+02  0.51100000000E-03 0. -1.
        -11    1    3    3    0    0  0.64012798481E+00 -0.39453005629E+01  0.42723228664E+01  0.58504618027E+01  0.51100000000E-03 0.  1.
        -12    1    3    3    0    0  0.23321743077E+02 -0.14540587536E+02 -0.40799822445E+01  0.27784503615E+02  0.00000000000E+00 0.  1.
</event>
<event>
 7    1  0.3884463E-009  0.4778727E+02  0.7816164E-02  0.1312668E+00
        -11   -1    0    0    0    0  0.00000000000E+00  0.00000000000E+00  0.45593999997E+02  0.45594000000E+02  0.51100000000E-03 0. -1.
         11   -1    0    0    0    0 -0.00000000000E+00 -0.00000000000E+00 -0.45593999997E+02  0.45594000000E+02  0.51100000000E-03 0.  1.
    9900012    2    1    2    0    0  0.24784048594E+01 -0.41572966702E+02  0.12213479302E+02  0.47787272728E+02  0.20000007676E+02 0.  0.
        -12    1    1    2    0    0 -0.24784048594E+01  0.41572966702E+02 -0.12213479302E+02  0.43400727272E+02  0.00000000000E+00 0.  1.
         11    1    3    3    0    0  0.31650057727E+01 -0.11617537044E+02  0.23353242723E+01  0.12265323813E+02  0.51100000000E-03 0. -1.
        -11    1    3    3    0    0  0.13836234873E+01 -0.67064437054E+01  0.10073007405E+02  0.12180159259E+02  0.51100000000E-03 0.  1.
         12    1    3    3    0    0 -0.20702244006E+01 -0.23248985953E+02 -0.19485237597E+00  0.23341789656E+02  0.00000000000E+00 0. -1.
</event>
<event>
 7    1  0.3884463E-009  0.4778727E+02  0.7816164E-02  0.1312668E+00
        -11   -1    0    0    0    0  0.00000000000E+00  0.00000000000E+00  0.45593999997E+02  0.45594000000E+02  0.51100000000E-03 0.  1.
         11   -1    0    0    0    0 -0.00000000000E+00 -0.00000000000E+00 -0.45593999997E+02  0.45594000000E+02  0.51100000000E-03 0. -1.
    9900012    2    1    2    0    0  0.23181233000E+02 -0.35950463912E+02  0.73360712007E+01  0.47787270058E+02  0.19999995501E+02 0.  0.
        -12    1    1    2    0    0 -0.23181233000E+02  0.35950463912E+02 -0.73360712007E+01  0.43400729942E+02  0.00000000000E+00 0.  1.
         11    1    3    3    0    0  0.22865189606E+02 -0.23807147581E+02  0.21072021698E+01  0.33076237284E+02  0.51100000000E-03 0. -1.
        -11    1    3    3    0    0  0.77177007835E-01 -0.43409456922E+00  0.26918721479E+01  0.27277408798E+01  0.51100000000E-03 0.  1.
         12    1    3    3    0    0  0.23886638606E+00 -0.11709221762E+02  0.25369968830E+01  0.11983291894E+02  0.00000000000E+00 0. -1.
</event>
<event>
 7    1  0.3884463E-009  0.4778727E+02  0.7816164E-02  0.1312668E+00
        -11   -1    0    0    0    0  0.00000000000E+00  0.00000000000E+00  0.45593999997E+02  0.45594000000E+02  0.51100000000E-03 0.  1.
         11   -1    0    0    0    0 -0.00000000000E+00 -0.00000000000E+00 -0.45593999997E+02  0.45594000000E+02  0.51100000000E-03 0. -1.
    9900012    2    1    2    0    0 -0.17084540662E+02 -0.35938003835E+02  0.17326325535E+02  0.47787271829E+02  0.20000003577E+02 0.  0.
        -12    1    1    2    0    0  0.17084540662E+02  0.35938003835E+02 -0.17326325535E+02  0.43400728171E+02  0.00000000000E+00 0.  1.
         11    1    3    3    0    0  0.11600977394E+01 -0.64130621026E+00  0.42140856526E+01  0.44176485339E+01  0.51100000000E-03 0. -1.
        -11    1    3    3    0    0 -0.42440046665E+01 -0.14865664774E+02  0.99882599795E+01  0.18405567159E+02  0.51100000000E-03 0.  1.
         12    1    3    3    0    0 -0.14000633735E+02 -0.20431032850E+02  0.31239799027E+01  0.24964056136E+02  0.00000000000E+00 0. -1.
</event>
<event>
 7    1  0.3884463E-009  0.4778726E+02  0.7816164E-02  0.1312668E+00
        -11   -1    0    0    0    0  0.00000000000E+00  0.00000000000E+00  0.45593999997E+02  0.45594000000E+02  0.51100000000E-03 0.  1.
         11   -1    0    0    0    0 -0.00000000000E+00 -0.00000000000E+00 -0.45593999997E+02  0.45594000000E+02  0.51100000000E-03 0. -1.
    9900012    2    1    2    0    0  0.51896188191E+01  0.66537686921E+01 -0.42572516200E+02  0.47787263637E+02  0.19999966225E+02 0.  0.
        -12    1    1    2    0    0 -0.51896188191E+01 -0.66537686921E+01  0.42572516200E+02  0.43400736363E+02  0.00000000000E+00 0.  1.
         11    1    3    3    0    0 -0.15122987194E+01  0.71840037251E+01 -0.13977743070E+02  0.15788421661E+02  0.51100000000E-03 0. -1.
        -11    1    3    3    0    0 -0.13729343844E+01  0.45073967611E+01 -0.75130506709E+01  0.88683428571E+01  0.51100000000E-03 0.  1.
        -12    1    3    3    0    0  0.80748519229E+01 -0.50376317941E+01 -0.21081722459E+02  0.23130499119E+02  0.00000000000E+00 0.  1.
</event>
<event>
 7    1  0.3884463E-009  0.4778727E+02  0.7816164E-02  0.1312668E+00
        -11   -1    0    0    0    0  0.00000000000E+00  0.00000000000E+00  0.45593999997E+02  0.45594000000E+02  0.51100000000E-03 0.  1.
         11   -1    0    0    0    0 -0.00000000000E+00 -0.00000000000E+00 -0.45593999997E+02  0.45594000000E+02  0.51100000000E-03 0. -1.
    9900012    2    1    2    0    0 -0.40074278644E+01  0.30207756880E+02 -0.30903964041E+02  0.47787273655E+02  0.20000011902E+02 0.  0.
        -12    1    1    2    0    0  0.40074278644E+01 -0.30207756880E+02  0.30903964041E+02  0.43400726345E+02  0.00000000000E+00 0.  1.
         11    1    3    3    0    0  0.44158142862E+00  0.57154875439E+00 -0.30022750152E+01  0.30879309683E+01  0.51100000000E-03 0. -1.
        -11    1    3    3    0    0 -0.14889960256E+01  0.21018216538E+02 -0.28641442805E+02  0.35557204359E+02  0.51100000000E-03 0.  1.
        -12    1    3    3    0    0 -0.29600132674E+01  0.86179915874E+01  0.73975377893E+00  0.91421383274E+01  0.00000000000E+00 0.  1.
</event>
<event>
 7    1  0.3884463E-009  0.4778727E+02  0.7816164E-02  0.1312668E+00
        -11   -1    0    0    0    0  0.00000000000E+00  0.00000000000E+00  0.45593999997E+02  0.45594000000E+02  0.51100000000E-03 0.  1.
         11   -1    0    0    0    0 -0.00000000000E+00 -0.00000000000E+00 -0.45593999997E+02  0.45594000000E+02  0.51100000000E-03 0. -1.
    9900012    2    1    2    0    0 -0.57526846077E+01 -0.25148912322E+02 -0.34900742513E+02  0.47787274210E+02  0.20000014431E+02 0.  0.
        -12    1    1    2    0    0  0.57526846077E+01  0.25148912322E+02  0.34900742513E+02  0.43400725790E+02  0.00000000000E+00 0.  1.
         11    1    3    3    0    0  0.98420314264E+00 -0.34967278185E+01 -0.99617678722E+01  0.10603423064E+02  0.51100000000E-03 0.  1.
        -11    1    3    3    0    0 -0.10109934704E+02 -0.88787241532E+01 -0.17322587087E+02  0.21934323467E+02  0.51100000000E-03 0. -1.
         12    1    3    3    0    0  0.33730469535E+01 -0.12773460350E+02 -0.76163875543E+01  0.15249527679E+02  0.00000000000E+00 0. -1.
</event>
<event>
 7    1  0.3884463E-009  0.4778727E+02  0.7816164E-02  0.1312668E+00
        -11   -1    0    0    0    0  0.00000000000E+00  0.00000000000E+00  0.45593999997E+02  0.45594000000E+02  0.51100000000E-03 0.  1.
         11   -1    0    0    0    0 -0.00000000000E+00 -0.00000000000E+00 -0.45593999997E+02  0.45594000000E+02  0.51100000000E-03 0. -1.
    9900012    2    1    2    0    0  0.22902588298E+01  0.26904890476E+02 -0.33978009680E+02  0.47787267761E+02  0.19999985029E+02 0.  0.
        -12    1    1    2    0    0 -0.22902588298E+01 -0.26904890476E+02  0.33978009680E+02  0.43400732239E+02  0.00000000000E+00 0.  1.
         11    1    3    3    0    0 -0.14537258092E+01  0.41351580808E+01 -0.32455460360E+01  0.54540279074E+01  0.51100000000E-03 0. -1.
        -11    1    3    3    0    0  0.95700059705E+01  0.11032223976E+02 -0.22608405543E+02  0.26915329862E+02  0.51100000000E-03 0.  1.
        -12    1    3    3    0    0 -0.58260213315E+01  0.11737508420E+02 -0.81240581012E+01  0.15417909991E+02  0.00000000000E+00 0.  1.
</event>
<event>
 7    1  0.3884463E-009  0.4778727E+02  0.7816164E-02  0.1312668E+00
        -11   -1    0    0    0    0  0.00000000000E+00  0.00000000000E+00  0.45593999997E+02  0.45594000000E+02  0.51100000000E-03 0.  1.
         11   -1    0    0    0    0 -0.00000000000E+00 -0.00000000000E+00 -0.45593999997E+02  0.45594000000E+02  0.51100000000E-03 0. -1.
    9900012    2    1    2    0    0 -0.22185646026E+02 -0.11319526224E+02 -0.35542776797E+02  0.47787267910E+02  0.19999985707E+02 0.  0.
        -12    1    1    2    0    0  0.22185646026E+02  0.11319526224E+02  0.35542776797E+02  0.43400732090E+02  0.00000000000E+00 0.  1.
         11    1    3    3    0    0 -0.21791760881E+02 -0.85271376044E+01 -0.17975668531E+02  0.29507923977E+02  0.51100000000E-03 0. -1.
        -11    1    3    3    0    0 -0.54427540842E+00 -0.21869842384E+01 -0.32858202274E+01  0.39844385561E+01  0.51100000000E-03 0.  1.
        -12    1    3    3    0    0  0.15039026264E+00 -0.60540438071E+00 -0.14281288038E+02  0.14294905377E+02  0.00000000000E+00 0.  1.
</event>
<event>
 7    1  0.3884463E-009  0.4778727E+02  0.7816164E-02  0.1312668E+00
        -11   -1    0    0    0    0  0.00000000000E+00  0.00000000000E+00  0.45593999997E+02  0.45594000000E+02  0.51100000000E-03 0. -1.
         11   -1    0    0    0    0 -0.00000000000E+00 -0.00000000000E+00 -0.45593999997E+02  0.45594000000E+02  0.51100000000E-03 0.  1.
    9900012    2    1    2    0    0 -0.24990241505E+02  0.33125954688E+02  0.12719376872E+02  0.47787267374E+02  0.19999983265E+02 0.  0.
        -12    1    1    2    0    0  0.24990241505E+02 -0.33125954688E+02 -0.12719376872E+02  0.43400732626E+02  0.00000000000E+00 0.  1.
         11    1    3    3    0    0 -0.24183554511E+02  0.25317264006E+02  0.53986536747E+01  0.35425324660E+02  0.51100000000E-03 0. -1.
        -11    1    3    3    0    0 -0.17198261374E+01 -0.34072022452E+00  0.14757900470E+01  0.22916912397E+01  0.51100000000E-03 0.  1.
         12    1    3    3    0    0  0.91313914301E+00  0.81494109061E+01  0.58449331506E+01  0.10070251474E+02  0.00000000000E+00 0. -1.
</event>
<event>
 7    1  0.3884463E-009  0.4778728E+02  0.7816164E-02  0.1312668E+00
        -11   -1    0    0    0    0  0.00000000000E+00  0.00000000000E+00  0.45593999997E+02  0.45594000000E+02  0.51100000000E-03 0.  1.
         11   -1    0    0    0    0 -0.00000000000E+00 -0.00000000000E+00 -0.45593999997E+02  0.45594000000E+02  0.51100000000E-03 0. -1.
    9900012    2    1    2    0    0  0.43152577843E+02 -0.16731229735E+01  0.43218476690E+01  0.47787277861E+02  0.20000031078E+02 0.  0.
        -12    1    1    2    0    0 -0.43152577843E+02  0.16731229735E+01 -0.43218476690E+01  0.43400722139E+02  0.00000000000E+00 0.  1.
         11    1    3    3    0    0  0.94309040304E+01 -0.84793944591E-01 -0.64600252062E+00  0.94533835404E+01  0.51100000000E-03 0. -1.
        -11    1    3    3    0    0  0.52954974009E+01  0.55551655207E+01  0.47447770306E+01  0.90230297582E+01  0.51100000000E-03 0.  1.
        -12    1    3    3    0    0  0.28426176411E+02 -0.71434945496E+01  0.22307315909E+00  0.29310864562E+02  0.00000000000E+00 0.  1.
</event>
<event>
 7    1  0.3884463E-009  0.4778727E+02  0.7816164E-02  0.1312668E+00
        -11   -1    0    0    0    0  0.00000000000E+00  0.00000000000E+00  0.45593999997E+02  0.45594000000E+02  0.51100000000E-03 0.  1.
         11   -1    0    0    0    0 -0.00000000000E+00 -0.00000000000E+00 -0.45593999997E+02  0.45594000000E+02  0.51100000000E-03 0. -1.
    9900012    2    1    2    0    0  0.25901322431E+02  0.21145572042E+02 -0.27669652729E+02  0.47787269559E+02  0.19999993227E+02 0.  0.
        -12    1    1    2    0    0 -0.25901322431E+02 -0.21145572042E+02  0.27669652729E+02  0.43400730441E+02  0.00000000000E+00 0.  1.
         11    1    3    3    0    0  0.12113176173E+02  0.48483038325E+01 -0.48506409190E+01  0.13919906775E+02  0.51100000000E-03 0. -1.
        -11    1    3    3    0    0  0.65765258212E+01  0.51156931522E+01 -0.11103238362E+01  0.84055831200E+01  0.51100000000E-03 0.  1.
        -12    1    3    3    0    0  0.72116204373E+01  0.11181575057E+02 -0.21708687974E+02  0.25461779664E+02  0.00000000000E+00 0.  1.
</event>
<event>
 7    1  0.3884463E-009  0.4778726E+02  0.7816164E-02  0.1312668E+00
        -11   -1    0    0    0    0  0.00000000000E+00  0.00000000000E+00  0.45593999997E+02  0.45594000000E+02  0.51100000000E-03 0. -1.
         11   -1    0    0    0    0 -0.00000000000E+00 -0.00000000000E+00 -0.45593999997E+02  0.45594000000E+02  0.51100000000E-03 0.  1.
    9900012    2    1    2    0    0  0.82633649939E+01  0.42581342102E+02  0.14731668243E+01  0.47787261335E+02  0.19999955730E+02 0.  0.
        -12    1    1    2    0    0 -0.82633649939E+01 -0.42581342102E+02 -0.14731668243E+01  0.43400738665E+02  0.00000000000E+00 0.  1.
         11    1    3    3    0    0 -0.17674426968E+01  0.11928842912E+02 -0.37737208644E+01  0.12635747557E+02  0.51100000000E-03 0. -1.
        -11    1    3    3    0    0 -0.26273514242E+01  0.85650108373E+01  0.35527945426E+01  0.96376727208E+01  0.51100000000E-03 0.  1.
         12    1    3    3    0    0  0.12658159115E+02  0.22087488352E+02  0.16940931462E+01  0.25513841057E+02  0.00000000000E+00 0. -1.
</event>
<event>
 7    1  0.3884463E-009  0.4778727E+02  0.7816164E-02  0.1312668E+00
        -11   -1    0    0    0    0  0.00000000000E+00  0.00000000000E+00  0.45593999997E+02  0.45594000000E+02  0.51100000000E-03 0.  1.
         11   -1    0    0    0    0 -0.00000000000E+00 -0.00000000000E+00 -0.45593999997E+02  0.45594000000E+02  0.51100000000E-03 0. -1.
    9900012    2    1    2    0    0 -0.42801501905E+02  0.17000204221E+01  0.69831453069E+01  0.47787274740E+02  0.20000016847E+02 0.  0.
        -12    1    1    2    0    0  0.42801501905E+02 -0.17000204221E+01 -0.69831453069E+01  0.43400725260E+02  0.00000000000E+00 0.  1.
         11    1    3    3    0    0 -0.27247297181E+01 -0.14415530890E+01 -0.51078904597E+00  0.31246012635E+01  0.51100000000E-03 0. -1.
        -11    1    3    3    0    0 -0.38125569670E+02  0.76081974597E+01  0.50307574879E+01  0.39201431765E+02  0.51100000000E-03 0.  1.
         12    1    3    3    0    0 -0.19512025167E+01 -0.44666239485E+01  0.24631768649E+01  0.54612417110E+01  0.00000000000E+00 0. -1.
</event>
<event>
 7    1  0.3884463E-009  0.4778731E+02  0.7816164E-02  0.1312668E+00
        -11   -1    0    0    0    0  0.00000000000E+00  0.00000000000E+00  0.45593999997E+02  0.45594000000E+02  0.51100000000E-03 0.  1.
         11   -1    0    0    0    0 -0.00000000000E+00 -0.00000000000E+00 -0.45593999997E+02  0.45594000000E+02  0.51100000000E-03 0. -1.
    9900012    2    1    2    0    0 -0.36145685209E+02 -0.72444112056E+00 -0.24012174809E+02  0.47787309760E+02  0.20000176521E+02 0.  0.
        -12    1    1    2    0    0  0.36145685209E+02  0.72444112056E+00  0.24012174809E+02  0.43400690240E+02  0.00000000000E+00 0.  1.
         11    1    3    3    0    0 -0.78391148258E+01  0.21178754418E+01 -0.86587932127E+01  0.11870628366E+02  0.51100000000E-03 0. -1.
        -11    1    3    3    0    0 -0.19045440703E+02  0.45138512361E+01 -0.13886899835E+02  0.23998951058E+02  0.51100000000E-03 0.  1.
        -12    1    3    3    0    0 -0.92611296801E+01 -0.73561677985E+01 -0.14664817617E+01  0.11917730337E+02  0.00000000000E+00 0.  1.
</event>
<event>
 7    1  0.3884463E-009  0.4778727E+02  0.7816164E-02  0.1312668E+00
        -11   -1    0    0    0    0  0.00000000000E+00  0.00000000000E+00  0.45593999997E+02  0.45594000000E+02  0.51100000000E-03 0. -1.
         11   -1    0    0    0    0 -0.00000000000E+00 -0.00000000000E+00 -0.45593999997E+02  0.45594000000E+02  0.51100000000E-03 0.  1.
    9900012    2    1    2    0    0 -0.23059777765E+02 -0.23413906804E+02  0.28348879475E+02  0.47787270169E+02  0.19999996010E+02 0.  0.
        -12    1    1    2    0    0  0.23059777765E+02  0.23413906804E+02 -0.28348879475E+02  0.43400729831E+02  0.00000000000E+00 0.  1.
         11    1    3    3    0    0 -0.10848488462E+02 -0.69522918084E+01  0.22356066680E+02  0.25803445137E+02  0.51100000000E-03 0. -1.
        -11    1    3    3    0    0 -0.27823156409E+01 -0.84524392550E+00  0.90477938063E+00  0.30453807000E+01  0.51100000000E-03 0.  1.
         12    1    3    3    0    0 -0.94289736616E+01 -0.15616371070E+02  0.50880334147E+01  0.18938444332E+02  0.00000000000E+00 0. -1.
</event>
<event>
 7    1  0.3884463E-009  0.4778727E+02  0.7816164E-02  0.1312668E+00
        -11   -1    0    0    0    0  0.00000000000E+00  0.00000000000E+00  0.45593999997E+02  0.45594000000E+02  0.51100000000E-03 0. -1.
         11   -1    0    0    0    0 -0.00000000000E+00 -0.00000000000E+00 -0.45593999997E+02  0.45594000000E+02  0.51100000000E-03 0.  1.
    9900012    2    1    2    0    0  0.40872191376E+02  0.49235379146E+00  0.14589208710E+02  0.47787269005E+02  0.19999990702E+02 0.  0.
        -12    1    1    2    0    0 -0.40872191376E+02 -0.49235379146E+00 -0.14589208710E+02  0.43400730995E+02  0.00000000000E+00 0.  1.
         11    1    3    3    0    0  0.96375732357E+01  0.25797931026E+01  0.27555193158E+01  0.10350412421E+02  0.51100000000E-03 0. -1.
        -11    1    3    3    0    0  0.10132908823E+02 -0.57077510668E+01 -0.22016851116E+01  0.11836455594E+02  0.51100000000E-03 0.  1.
        -12    1    3    3    0    0  0.21101709317E+02  0.36203117557E+01  0.14035374505E+02  0.25600400990E+02  0.00000000000E+00 0.  1.
</event>
<event>
 7    1  0.3884463E-009  0.4778727E+02  0.7816164E-02  0.1312668E+00
        -11   -1    0    0    0    0  0.00000000000E+00  0.00000000000E+00  0.45593999997E+02  0.45594000000E+02  0.51100000000E-03 0.  1.
         11   -1    0    0    0    0 -0.00000000000E+00 -0.00000000000E+00 -0.45593999997E+02  0.45594000000E+02  0.51100000000E-03 0. -1.
    9900012    2    1    2    0    0 -0.38153075149E+02 -0.81568246454E+01 -0.19011371648E+02  0.47787272085E+02  0.20000004743E+02 0.  0.
        -12    1    1    2    0    0  0.38153075149E+02  0.81568246454E+01  0.19011371648E+02  0.43400727915E+02  0.00000000000E+00 0.  1.
         11    1    3    3    0    0 -0.26462346934E+02 -0.71980188740E+01 -0.11109871044E+02  0.29588790375E+02  0.51100000000E-03 0. -1.
        -11    1    3    3    0    0 -0.10323411168E+02 -0.24018941383E+01 -0.10504825809E+02  0.14922911215E+02  0.51100000000E-03 0.  1.
        -12    1    3    3    0    0 -0.13673170467E+01  0.14430883670E+01  0.26033252052E+01  0.32755704946E+01  0.00000000000E+00 0.  1.
</event>
<event>
 7    1  0.3884463E-009  0.4778727E+02  0.7816164E-02  0.1312668E+00
        -11   -1    0    0    0    0  0.00000000000E+00  0.00000000000E+00  0.45593999997E+02  0.45594000000E+02  0.51100000000E-03 0. -1.
         11   -1    0    0    0    0 -0.00000000000E+00 -0.00000000000E+00 -0.45593999997E+02  0.45594000000E+02  0.51100000000E-03 0.  1.
    9900012    2    1    2    0    0  0.22778146938E+02  0.21885307091E+02  0.29762602438E+02  0.47787272491E+02  0.20000006596E+02 0.  0.
        -12    1    1    2    0    0 -0.22778146938E+02 -0.21885307091E+02 -0.29762602438E+02  0.43400727509E+02  0.00000000000E+00 0.  1.
         11    1    3    3    0    0  0.51389880965E+01  0.16015165038E+02  0.79785254008E+01  0.18615895834E+02  0.51100000000E-03 0. -1.
        -11    1    3    3    0    0  0.25078835792E+01 -0.14219619040E+00  0.85212932182E+00  0.26525128549E+01  0.51100000000E-03 0.  1.
         12    1    3    3    0    0  0.15131275262E+02  0.60123382438E+01  0.20931947715E+02  0.26518863803E+02  0.00000000000E+00 0. -1.
</event>
<event>
 7    1  0.3884463E-009  0.4778726E+02  0.7816164E-02  0.1312668E+00
        -11   -1    0    0    0    0  0.00000000000E+00  0.00000000000E+00  0.45593999997E+02  0.45594000000E+02  0.51100000000E-03 0. -1.
         11   -1    0    0    0    0 -0.00000000000E+00 -0.00000000000E+00 -0.45593999997E+02  0.45594000000E+02  0.51100000000E-03 0.  1.
    9900012    2    1    2    0    0  0.27050895800E+02  0.31427092472E+02  0.12814481362E+02  0.47787262249E+02  0.19999959897E+02 0.  0.
        -12    1    1    2    0    0 -0.27050895800E+02 -0.31427092472E+02 -0.12814481362E+02  0.43400737751E+02  0.00000000000E+00 0.  1.
         11    1    3    3    0    0  0.13117471870E+02  0.35849036123E+01  0.21191179784E+01  0.13762640133E+02  0.51100000000E-03 0. -1.
        -11    1    3    3    0    0  0.42851041862E+01  0.20675336627E+01  0.20141192328E+01  0.51665742885E+01  0.51100000000E-03 0.  1.
        -12    1    3    3    0    0  0.96483197433E+01  0.25774655197E+02  0.86812441506E+01  0.28858047827E+02  0.00000000000E+00 0.  1.
</event>
<event>
 7    1  0.3884463E-009  0.4778727E+02  0.7816164E-02  0.1312668E+00
        -11   -1    0    0    0    0  0.00000000000E+00  0.00000000000E+00  0.45593999997E+02  0.45594000000E+02  0.51100000000E-03 0.  1.
         11   -1    0    0    0    0 -0.00000000000E+00 -0.00000000000E+00 -0.45593999997E+02  0.45594000000E+02  0.51100000000E-03 0. -1.
    9900012    2    1    2    0    0  0.20368773968E+02 -0.37813060418E+02  0.62376892252E+01  0.47787271227E+02  0.20000000833E+02 0.  0.
        -12    1    1    2    0    0 -0.20368773968E+02  0.37813060418E+02 -0.62376892252E+01  0.43400728773E+02  0.00000000000E+00 0.  1.
         11    1    3    3    0    0  0.59979851153E+01 -0.27059416209E+02  0.15007507906E+01  0.27756802486E+02  0.51100000000E-03 0. -1.
        -11    1    3    3    0    0 -0.55791231223E+00 -0.56676173701E+00  0.14601275664E+01  0.16626658672E+01  0.51100000000E-03 0.  1.
         12    1    3    3    0    0  0.14928701165E+02 -0.10186882472E+02  0.32768108682E+01  0.18367802874E+02  0.00000000000E+00 0. -1.
</event>
<event>
 7    1  0.3884463E-009  0.4778727E+02  0.7816164E-02  0.1312668E+00
        -11   -1    0    0    0    0  0.00000000000E+00  0.00000000000E+00  0.45593999997E+02  0.45594000000E+02  0.51100000000E-03 0.  1.
         11   -1    0    0    0    0 -0.00000000000E+00 -0.00000000000E+00 -0.45593999997E+02  0.45594000000E+02  0.51100000000E-03 0. -1.
    9900012    2    1    2    0    0 -0.30416430899E+01 -0.18619111949E+02 -0.39085804131E+02  0.47787274119E+02  0.20000014019E+02 0.  0.
        -12    1    1    2    0    0  0.30416430899E+01  0.18619111949E+02  0.39085804131E+02  0.43400725881E+02  0.00000000000E+00 0.  1.
         11    1    3    3    0    0  0.53564074523E+00  0.37771928727E+01 -0.56159854551E+01  0.67892112869E+01  0.51100000000E-03 0.  1.
        -11    1    3    3    0    0  0.20271461411E+01 -0.51326435685E+01 -0.82664493396E+01  0.99391919402E+01  0.51100000000E-03 0. -1.
         12    1    3    3    0    0 -0.56044299762E+01 -0.17263661253E+02 -0.25203369336E+02  0.31058870892E+02  0.00000000000E+00 0. -1.
</event>
<event>
 7    1  0.3884463E-009  0.4778727E+02  0.7816164E-02  0.1312668E+00
        -11   -1    0    0    0    0  0.00000000000E+00  0.00000000000E+00  0.45593999997E+02  0.45594000000E+02  0.51100000000E-03 0. -1.
         11   -1    0    0    0    0 -0.00000000000E+00 -0.00000000000E+00 -0.45593999997E+02  0.45594000000E+02  0.51100000000E-03 0.  1.
    9900012    2    1    2    0    0 -0.14502000826E+01 -0.42044810413E+02 -0.10665549083E+02  0.47787273046E+02  0.20000009124E+02 0.  0.
        -12    1    1    2    0    0  0.14502000826E+01  0.42044810413E+02  0.10665549083E+02  0.43400726954E+02  0.00000000000E+00 0.  1.
         11    1    3    3    0    0  0.10390117277E+01 -0.19350909489E+01  0.12391202055E+01  0.25218131365E+01  0.51100000000E-03 0. -1.
        -11    1    3    3    0    0 -0.68035612339E+01 -0.88087734234E+01 -0.73594716067E+01  0.13343341309E+02  0.51100000000E-03 0.  1.
         12    1    3    3    0    0  0.43143494236E+01 -0.31300946040E+02 -0.45451976818E+01  0.31922118601E+02  0.00000000000E+00 0. -1.
</event>
<event>
 7    1  0.3884463E-009  0.4778727E+02  0.7816164E-02  0.1312668E+00
        -11   -1    0    0    0    0  0.00000000000E+00  0.00000000000E+00  0.45593999997E+02  0.45594000000E+02  0.51100000000E-03 0.  1.
         11   -1    0    0    0    0 -0.00000000000E+00 -0.00000000000E+00 -0.45593999997E+02  0.45594000000E+02  0.51100000000E-03 0. -1.
    9900012    2    1    2    0    0 -0.12136426784E+02  0.28264363716E+02 -0.30617904133E+02  0.47787272300E+02  0.20000005725E+02 0.  0.
        -12    1    1    2    0    0  0.12136426784E+02 -0.28264363716E+02  0.30617904133E+02  0.43400727700E+02  0.00000000000E+00 0.  1.
         11    1    3    3    0    0 -0.46749400088E+01  0.13611831027E+02 -0.18471297805E+02  0.23416358616E+02  0.51100000000E-03 0. -1.
        -11    1    3    3    0    0  0.17557048433E+00  0.14095044306E+01 -0.85487052845E+01  0.86659038788E+01  0.51100000000E-03 0.  1.
        -12    1    3    3    0    0 -0.76370572599E+01  0.13243028259E+02 -0.35979010438E+01  0.15705009805E+02  0.00000000000E+00 0.  1.
</event>
<event>
 7    1  0.3884463E-009  0.4778727E+02  0.7816164E-02  0.1312668E+00
        -11   -1    0    0    0    0  0.00000000000E+00  0.00000000000E+00  0.45593999997E+02  0.45594000000E+02  0.51100000000E-03 0. -1.
         11   -1    0    0    0    0 -0.00000000000E+00 -0.00000000000E+00 -0.45593999997E+02  0.45594000000E+02  0.51100000000E-03 0.  1.
    9900012    2    1    2    0    0 -0.87596827118E+01  0.14279089060E+02  0.40037468777E+02  0.47787270378E+02  0.19999996963E+02 0.  0.
        -12    1    1    2    0    0  0.87596827118E+01 -0.14279089060E+02 -0.40037468777E+02  0.43400729622E+02  0.00000000000E+00 0.  1.
         11    1    3    3    0    0 -0.16902517222E+01  0.46856785129E+01  0.43440803091E+01  0.66093545830E+01  0.51100000000E-03 0. -1.
        -11    1    3    3    0    0  0.36543395471E+01  0.15082130186E+01  0.11524673181E+01  0.41178981551E+01  0.51100000000E-03 0.  1.
         12    1    3    3    0    0 -0.10723770537E+02  0.80851975282E+01  0.34540921150E+02  0.37060017640E+02  0.00000000000E+00 0. -1.
</event>
<event>
 7    1  0.3884463E-009  0.4778727E+02  0.7816164E-02  0.1312668E+00
        -11   -1    0    0    0    0  0.00000000000E+00  0.00000000000E+00  0.45593999997E+02  0.45594000000E+02  0.51100000000E-03 0.  1.
         11   -1    0    0    0    0 -0.00000000000E+00 -0.00000000000E+00 -0.45593999997E+02  0.45594000000E+02  0.51100000000E-03 0. -1.
    9900012    2    1    2    0    0  0.41699362889E+02  0.90350177701E+01 -0.79470145734E+01  0.47787268991E+02  0.19999990638E+02 0.  0.
        -12    1    1    2    0    0 -0.41699362889E+02 -0.90350177701E+01  0.79470145734E+01  0.43400731009E+02  0.00000000000E+00 0.  1.
         11    1    3    3    0    0  0.28197587298E+02  0.75895616384E+01 -0.50892552693E+01  0.29641286995E+02  0.51100000000E-03 0. -1.
        -11    1    3    3    0    0  0.11322977129E+02  0.59742024876E+01 -0.12205923870E+01  0.12860433603E+02  0.51100000000E-03 0.  1.
        -12    1    3    3    0    0  0.21787984628E+01 -0.45287463559E+01 -0.16371669170E+01  0.52855483928E+01  0.00000000000E+00 0.  1.
</event>
<event>
 7    1  0.3884463E-009  0.4778727E+02  0.7816164E-02  0.1312668E+00
        -11   -1    0    0    0    0  0.00000000000E+00  0.00000000000E+00  0.45593999997E+02  0.45594000000E+02  0.51100000000E-03 0. -1.
         11   -1    0    0    0    0 -0.00000000000E+00 -0.00000000000E+00 -0.45593999997E+02  0.45594000000E+02  0.51100000000E-03 0.  1.
    9900012    2    1    2    0    0 -0.30097416749E+02  0.16401782779E+02  0.26622366759E+02  0.47787269762E+02  0.19999994154E+02 0.  0.
        -12    1    1    2    0    0  0.30097416749E+02 -0.16401782779E+02 -0.26622366759E+02  0.43400730238E+02  0.00000000000E+00 0.  1.
         11    1    3    3    0    0 -0.16777604949E+02  0.95149245601E+01  0.22866636927E+02  0.29914961170E+02  0.51100000000E-03 0. -1.
        -11    1    3    3    0    0 -0.16855758854E+01  0.53359383455E+01  0.22809699430E+01  0.60428658958E+01  0.51100000000E-03 0.  1.
        -12    1    3    3    0    0 -0.11634235915E+02  0.15509198732E+01  0.14747598896E+01  0.11829442696E+02  0.00000000000E+00 0.  1.
</event>
<event>
 7    1  0.3884463E-009  0.4778727E+02  0.7816164E-02  0.1312668E+00
        -11   -1    0    0    0    0  0.00000000000E+00  0.00000000000E+00  0.45593999997E+02  0.45594000000E+02  0.51100000000E-03 0.  1.
         11   -1    0    0    0    0 -0.00000000000E+00 -0.00000000000E+00 -0.45593999997E+02  0.45594000000E+02  0.51100000000E-03 0. -1.
    9900012    2    1    2    0    0  0.39022641188E+02  0.20931494132E+01  0.18880570417E+02  0.47787265686E+02  0.19999975568E+02 0.  0.
        -12    1    1    2    0    0 -0.39022641188E+02 -0.20931494132E+01 -0.18880570417E+02  0.43400734314E+02  0.00000000000E+00 0.  1.
         11    1    3    3    0    0  0.89045516970E+01  0.27120035712E+01 -0.67928072822E+00  0.93331359608E+01  0.51100000000E-03 0. -1.
        -11    1    3    3    0    0  0.11666096762E+02  0.28301570905E+01  0.14860158349E+02  0.19103191075E+02  0.51100000000E-03 0.  1.
         12    1    3    3    0    0  0.18451992729E+02 -0.34490112485E+01  0.46996927963E+01  0.19350938650E+02  0.00000000000E+00 0. -1.
</event>
<event>
 7    1  0.3884463E-009  0.4778727E+02  0.7816164E-02  0.1312668E+00
        -11   -1    0    0    0    0  0.00000000000E+00  0.00000000000E+00  0.45593999997E+02  0.45594000000E+02  0.51100000000E-03 0. -1.
         11   -1    0    0    0    0 -0.00000000000E+00 -0.00000000000E+00 -0.45593999997E+02  0.45594000000E+02  0.51100000000E-03 0.  1.
    9900012    2    1    2    0    0  0.28998579426E+02 -0.12660664148E+02  0.29705439801E+02  0.47787272136E+02  0.20000004977E+02 0.  0.
        -12    1    1    2    0    0 -0.28998579426E+02  0.12660664148E+02 -0.29705439801E+02  0.43400727864E+02  0.00000000000E+00 0.  1.
         11    1    3    3    0    0  0.18501406846E+02 -0.57664097133E+01  0.14435898021E+02  0.24165030275E+02  0.51100000000E-03 0. -1.
        -11    1    3    3    0    0  0.51401356918E+01  0.31822564708E+01  0.82367830309E+01  0.10217257271E+02  0.51100000000E-03 0.  1.
        -12    1    3    3    0    0  0.53570368883E+01 -0.10076510905E+02  0.70327587486E+01  0.13404984590E+02  0.00000000000E+00 0.  1.
</event>
<event>
 7    1  0.3884463E-009  0.4778728E+02  0.7816164E-02  0.1312668E+00
        -11   -1    0    0    0    0  0.00000000000E+00  0.00000000000E+00  0.45593999997E+02  0.45594000000E+02  0.51100000000E-03 0. -1.
         11   -1    0    0    0    0 -0.00000000000E+00 -0.00000000000E+00 -0.45593999997E+02  0.45594000000E+02  0.51100000000E-03 0.  1.
    9900012    2    1    2    0    0  0.17979343273E+02 -0.37864298013E+02 -0.11254373416E+02  0.47787276855E+02  0.20000026492E+02 0.  0.
        -12    1    1    2    0    0 -0.17979343273E+02  0.37864298013E+02  0.11254373416E+02  0.43400723145E+02  0.00000000000E+00 0.  1.
         11    1    3    3    0    0  0.89102284736E+01 -0.23751035621E+02 -0.54875799230E+01  0.25954140290E+02  0.51100000000E-03 0. -1.
        -11    1    3    3    0    0  0.46075115363E+01 -0.13676030419E+02 -0.83362470486E+01  0.16666012892E+02  0.51100000000E-03 0.  1.
         12    1    3    3    0    0  0.44616032635E+01 -0.43723197197E+00  0.25694535555E+01  0.51671236730E+01  0.00000000000E+00 0. -1.
</event>
<event>
 7    1  0.3884463E-009  0.4778729E+02  0.7816164E-02  0.1312668E+00
        -11   -1    0    0    0    0  0.00000000000E+00  0.00000000000E+00  0.45593999997E+02  0.45594000000E+02  0.51100000000E-03 0.  1.
         11   -1    0    0    0    0 -0.00000000000E+00 -0.00000000000E+00 -0.45593999997E+02  0.45594000000E+02  0.51100000000E-03 0. -1.
    9900012    2    1    2    0    0 -0.40328593290E+01 -0.53325508307E+01 -0.42882646535E+02  0.47787292327E+02  0.20000097034E+02 0.  0.
        -12    1    1    2    0    0  0.40328593290E+01  0.53325508307E+01  0.42882646535E+02  0.43400707673E+02  0.00000000000E+00 0.  1.
         11    1    3    3    0    0 -0.44764280435E+01 -0.23407112069E+01 -0.13501983171E+02  0.14415994131E+02  0.51100000000E-03 0. -1.
        -11    1    3    3    0    0 -0.13669915228E+01  0.62469041089E+01 -0.11165883240E+02  0.12867378348E+02  0.51100000000E-03 0.  1.
         12    1    3    3    0    0  0.18105602374E+01 -0.92387437327E+01 -0.18214780124E+02  0.20503919848E+02  0.00000000000E+00 0. -1.
</event>
<event>
 7    1  0.3884463E-009  0.4778727E+02  0.7816164E-02  0.1312668E+00
        -11   -1    0    0    0    0  0.00000000000E+00  0.00000000000E+00  0.45593999997E+02  0.45594000000E+02  0.51100000000E-03 0.  1.
         11   -1    0    0    0    0 -0.00000000000E+00 -0.00000000000E+00 -0.45593999997E+02  0.45594000000E+02  0.51100000000E-03 0. -1.
    9900012    2    1    2    0    0 -0.27959690105E+01  0.18836046310E+02 -0.39000119411E+02  0.47787269622E+02  0.19999993513E+02 0.  0.
        -12    1    1    2    0    0  0.27959690105E+01 -0.18836046310E+02  0.39000119411E+02  0.43400730378E+02  0.00000000000E+00 0.  1.
         11    1    3    3    0    0 -0.40949696975E+01  0.55613019479E+01 -0.18070869187E+02  0.19345624043E+02  0.51100000000E-03 0. -1.
        -11    1    3    3    0    0  0.39611703986E+01  0.41602476750E+01 -0.17379901106E+02  0.18304630407E+02  0.51100000000E-03 0.  1.
        -12    1    3    3    0    0 -0.26621697117E+01  0.91144966867E+01 -0.35493491190E+01  0.10137015172E+02  0.00000000000E+00 0.  1.
</event>
<event>
 7    1  0.3884463E-009  0.4778727E+02  0.7816164E-02  0.1312668E+00
        -11   -1    0    0    0    0  0.00000000000E+00  0.00000000000E+00  0.45593999997E+02  0.45594000000E+02  0.51100000000E-03 0. -1.
         11   -1    0    0    0    0 -0.00000000000E+00 -0.00000000000E+00 -0.45593999997E+02  0.45594000000E+02  0.51100000000E-03 0.  1.
    9900012    2    1    2    0    0 -0.27940933121E+02  0.28174291303E+02  0.17582281656E+02  0.47787273482E+02  0.20000011112E+02 0.  0.
        -12    1    1    2    0    0  0.27940933121E+02 -0.28174291303E+02 -0.17582281656E+02  0.43400726518E+02  0.00000000000E+00 0.  1.
         11    1    3    3    0    0 -0.17441982254E+01  0.21926732483E+01 -0.21959059115E+01  0.35597817990E+01  0.51100000000E-03 0. -1.
        -11    1    3    3    0    0 -0.48517667819E+01  0.10909577326E+01  0.79353881040E+01  0.93648392566E+01  0.51100000000E-03 0.  1.
         12    1    3    3    0    0 -0.21344968114E+02  0.24890660322E+02  0.11842799463E+02  0.34862652426E+02  0.00000000000E+00 0. -1.
</event>
<event>
 7    1  0.3884463E-009  0.4778727E+02  0.7816164E-02  0.1312668E+00
        -11   -1    0    0    0    0  0.00000000000E+00  0.00000000000E+00  0.45593999997E+02  0.45594000000E+02  0.51100000000E-03 0.  1.
         11   -1    0    0    0    0 -0.00000000000E+00 -0.00000000000E+00 -0.45593999997E+02  0.45594000000E+02  0.51100000000E-03 0. -1.
    9900012    2    1    2    0    0 -0.32136579845E+02 -0.22956978476E+02 -0.17995571982E+02  0.47787271483E+02  0.20000001998E+02 0.  0.
        -12    1    1    2    0    0  0.32136579845E+02  0.22956978476E+02  0.17995571982E+02  0.43400728517E+02  0.00000000000E+00 0.  1.
         11    1    3    3    0    0 -0.26091000936E+02 -0.18273960363E+02 -0.79271692441E+01  0.32825568840E+02  0.51100000000E-03 0. -1.
        -11    1    3    3    0    0 -0.68280097047E+01 -0.60469963255E+01 -0.69418311736E+01  0.11461976330E+02  0.51100000000E-03 0.  1.
        -12    1    3    3    0    0  0.78243079652E+00  0.13639782120E+01 -0.31265715642E+01  0.34997263122E+01  0.00000000000E+00 0.  1.
</event>
<event>
 7    1  0.3884463E-009  0.4778728E+02  0.7816164E-02  0.1312668E+00
        -11   -1    0    0    0    0  0.00000000000E+00  0.00000000000E+00  0.45593999997E+02  0.45594000000E+02  0.51100000000E-03 0. -1.
         11   -1    0    0    0    0 -0.00000000000E+00 -0.00000000000E+00 -0.45593999997E+02  0.45594000000E+02  0.51100000000E-03 0.  1.
    9900012    2    1    2    0    0 -0.18646924096E+00 -0.60734467775E+01  0.42973259768E+02  0.47787279020E+02  0.20000036363E+02 0.  0.
        -12    1    1    2    0    0  0.18646924096E+00  0.60734467775E+01 -0.42973259768E+02  0.43400720980E+02  0.00000000000E+00 0.  1.
         11    1    3    3    0    0  0.51391142352E+00  0.97107453448E+00 -0.91154083425E+00  0.14275845531E+01  0.51100000000E-03 0. -1.
        -11    1    3    3    0    0  0.40171116100E+01  0.18365419743E+01  0.85744565879E+01  0.96452775051E+01  0.51100000000E-03 0.  1.
         12    1    3    3    0    0 -0.47174922745E+01 -0.88810632864E+01  0.35310344014E+02  0.36714416962E+02  0.00000000000E+00 0. -1.
</event>
<event>
 7    1  0.3884463E-009  0.4778727E+02  0.7816164E-02  0.1312668E+00
        -11   -1    0    0    0    0  0.00000000000E+00  0.00000000000E+00  0.45593999997E+02  0.45594000000E+02  0.51100000000E-03 0.  1.
         11   -1    0    0    0    0 -0.00000000000E+00 -0.00000000000E+00 -0.45593999997E+02  0.45594000000E+02  0.51100000000E-03 0. -1.
    9900012    2    1    2    0    0 -0.26287639002E+02 -0.22514744244E+02 -0.26185290824E+02  0.47787272723E+02  0.20000007653E+02 0.  0.
        -12    1    1    2    0    0  0.26287639002E+02  0.22514744244E+02  0.26185290824E+02  0.43400727277E+02  0.00000000000E+00 0.  1.
         11    1    3    3    0    0 -0.59159736764E+00  0.24516771127E+00  0.65820221111E+00  0.91832731848E+00  0.51100000000E-03 0. -1.
        -11    1    3    3    0    0 -0.55774173425E+01 -0.12667134946E+02 -0.31619131084E+01  0.14197238700E+02  0.51100000000E-03 0.  1.
         12    1    3    3    0    0 -0.20118624292E+02 -0.10092777010E+02 -0.23681579926E+02  0.32671706704E+02  0.00000000000E+00 0. -1.
</event>
<event>
 7    1  0.3884463E-009  0.4778727E+02  0.7816164E-02  0.1312668E+00
        -11   -1    0    0    0    0  0.00000000000E+00  0.00000000000E+00  0.45593999997E+02  0.45594000000E+02  0.51100000000E-03 0.  1.
         11   -1    0    0    0    0 -0.00000000000E+00 -0.00000000000E+00 -0.45593999997E+02  0.45594000000E+02  0.51100000000E-03 0. -1.
    9900012    2    1    2    0    0 -0.85288679562E+00 -0.19749657259E+02 -0.38637380250E+02  0.47787268090E+02  0.19999986531E+02 0.  0.
        -12    1    1    2    0    0  0.85288679562E+00  0.19749657259E+02  0.38637380250E+02  0.43400731910E+02  0.00000000000E+00 0.  1.
         11    1    3    3    0    0  0.12629296277E+01  0.45457097605E+00  0.67340297730E+00  0.15016983211E+01  0.51100000000E-03 0. -1.
        -11    1    3    3    0    0  0.39987191248E+01 -0.25507017052E+01 -0.35005515175E+01  0.58948871928E+01  0.51100000000E-03 0.  1.
         12    1    3    3    0    0 -0.61145355481E+01 -0.17653526530E+02 -0.35810231710E+02  0.40390682577E+02  0.00000000000E+00 0. -1.
</event>
<event>
 7    1  0.3884463E-009  0.4778726E+02  0.7816164E-02  0.1312668E+00
        -11   -1    0    0    0    0  0.00000000000E+00  0.00000000000E+00  0.45593999997E+02  0.45594000000E+02  0.51100000000E-03 0.  1.
         11   -1    0    0    0    0 -0.00000000000E+00 -0.00000000000E+00 -0.45593999997E+02  0.45594000000E+02  0.51100000000E-03 0. -1.
    9900012    2    1    2    0    0 -0.30520038156E+02  0.10933371104E+02 -0.28855026800E+02  0.47787263781E+02  0.19999966881E+02 0.  0.
        -12    1    1    2    0    0  0.30520038156E+02 -0.10933371104E+02  0.28855026800E+02  0.43400736219E+02  0.00000000000E+00 0.  1.
         11    1    3    3    0    0 -0.67699107856E+01  0.30342312280E+01 -0.20559396539E+01  0.76983855003E+01  0.51100000000E-03 0. -1.
        -11    1    3    3    0    0 -0.15415014153E+02 -0.31938565204E+01 -0.11937126527E+02  0.19756476680E+02  0.51100000000E-03 0.  1.
         12    1    3    3    0    0 -0.83351132171E+01  0.11092996396E+02 -0.14861960620E+02  0.20332401601E+02  0.00000000000E+00 0. -1.
</event>
<event>
 7    1  0.3884463E-009  0.4778727E+02  0.7816164E-02  0.1312668E+00
        -11   -1    0    0    0    0  0.00000000000E+00  0.00000000000E+00  0.45593999997E+02  0.45594000000E+02  0.51100000000E-03 0.  1.
         11   -1    0    0    0    0 -0.00000000000E+00 -0.00000000000E+00 -0.45593999997E+02  0.45594000000E+02  0.51100000000E-03 0. -1.
    9900012    2    1    2    0    0  0.76091009597E+01  0.28352335706E+02 -0.31966695941E+02  0.47787274121E+02  0.20000014029E+02 0.  0.
        -12    1    1    2    0    0 -0.76091009597E+01 -0.28352335706E+02  0.31966695941E+02  0.43400725879E+02  0.00000000000E+00 0.  1.
         11    1    3    3    0    0  0.75654049138E+00  0.50671649103E+01 -0.98615438770E+01  0.11112990670E+02  0.51100000000E-03 0. -1.
        -11    1    3    3    0    0 -0.16053821523E+01  0.13355244573E+02 -0.34072327555E+01  0.13876204263E+02  0.51100000000E-03 0.  1.
        -12    1    3    3    0    0  0.84579426206E+01  0.99299262237E+01 -0.18697919308E+02  0.22798079187E+02  0.00000000000E+00 0.  1.
</event>
<event>
 7    1  0.3884463E-009  0.4778728E+02  0.7816164E-02  0.1312668E+00
        -11   -1    0    0    0    0  0.00000000000E+00  0.00000000000E+00  0.45593999997E+02  0.45594000000E+02  0.51100000000E-03 0.  1.
         11   -1    0    0    0    0 -0.00000000000E+00 -0.00000000000E+00 -0.45593999997E+02  0.45594000000E+02  0.51100000000E-03 0. -1.
    9900012    2    1    2    0    0  0.27418630035E+02 -0.28968910888E+02 -0.17106835624E+02  0.47787275396E+02  0.20000019842E+02 0.  0.
        -12    1    1    2    0    0 -0.27418630035E+02  0.28968910888E+02  0.17106835624E+02  0.43400724604E+02  0.00000000000E+00 0.  1.
         11    1    3    3    0    0  0.91935611707E+01 -0.14761283015E+02 -0.45517433580E+01  0.17975967598E+02  0.51100000000E-03 0. -1.
        -11    1    3    3    0    0  0.67292843947E+01 -0.33310454606E+01  0.25541476501E+01  0.79311287220E+01  0.51100000000E-03 0.  1.
         12    1    3    3    0    0  0.11495784469E+02 -0.10876582413E+02 -0.15109239916E+02  0.21880179076E+02  0.00000000000E+00 0. -1.
</event>
<event>
 7    1  0.3884463E-009  0.4778725E+02  0.7816164E-02  0.1312668E+00
        -11   -1    0    0    0    0  0.00000000000E+00  0.00000000000E+00  0.45593999997E+02  0.45594000000E+02  0.51100000000E-03 0. -1.
         11   -1    0    0    0    0 -0.00000000000E+00 -0.00000000000E+00 -0.45593999997E+02  0.45594000000E+02  0.51100000000E-03 0.  1.
    9900012    2    1    2    0    0 -0.97921615935E+00  0.31294339084E+02  0.30055452559E+02  0.47787254022E+02  0.19999922386E+02 0.  0.
        -12    1    1    2    0    0  0.97921615935E+00 -0.31294339084E+02 -0.30055452559E+02  0.43400745978E+02  0.00000000000E+00 0.  1.
         11    1    3    3    0    0 -0.52899606486E+00  0.27436149132E+01  0.56917324345E+01  0.63405897199E+01  0.51100000000E-03 0. -1.
        -11    1    3    3    0    0  0.40697855835E+01  0.28717176458E+02  0.20905489143E+02  0.35753025815E+02  0.51100000000E-03 0.  1.
        -12    1    3    3    0    0 -0.45200056780E+01 -0.16645228712E+00  0.34582309816E+01  0.56936384865E+01  0.00000000000E+00 0.  1.
</event>
<event>
 7    1  0.3884463E-009  0.4778727E+02  0.7816164E-02  0.1312668E+00
        -11   -1    0    0    0    0  0.00000000000E+00  0.00000000000E+00  0.45593999997E+02  0.45594000000E+02  0.51100000000E-03 0. -1.
         11   -1    0    0    0    0 -0.00000000000E+00 -0.00000000000E+00 -0.45593999997E+02  0.45594000000E+02  0.51100000000E-03 0.  1.
    9900012    2    1    2    0    0 -0.31482443739E+02 -0.53595941772E+01  0.29389686072E+02  0.47787272345E+02  0.20000005931E+02 0.  0.
        -12    1    1    2    0    0  0.31482443739E+02  0.53595941772E+01 -0.29389686072E+02  0.43400727655E+02  0.00000000000E+00 0.  1.
         11    1    3    3    0    0 -0.77141195716E+01 -0.18240102591E+00  0.69982606468E+01  0.10417128359E+02  0.51100000000E-03 0. -1.
        -11    1    3    3    0    0 -0.74947651970E+01  0.30785147963E+01  0.16177777754E+02  0.18093348281E+02  0.51100000000E-03 0.  1.
         12    1    3    3    0    0 -0.16273558971E+02 -0.82557079476E+01  0.62136476720E+01  0.19276795706E+02  0.00000000000E+00 0. -1.
</event>
<event>
 7    1  0.3884463E-009  0.4778727E+02  0.7816164E-02  0.1312668E+00
        -11   -1    0    0    0    0  0.00000000000E+00  0.00000000000E+00  0.45593999997E+02  0.45594000000E+02  0.51100000000E-03 0.  1.
         11   -1    0    0    0    0 -0.00000000000E+00 -0.00000000000E+00 -0.45593999997E+02  0.45594000000E+02  0.51100000000E-03 0. -1.
    9900012    2    1    2    0    0 -0.30345075713E+01 -0.42749724374E+02  0.68466041949E+01  0.47787272365E+02  0.20000006022E+02 0.  0.
        -12    1    1    2    0    0  0.30345075713E+01  0.42749724374E+02 -0.68466041949E+01  0.43400727635E+02  0.00000000000E+00 0.  1.
         11    1    3    3    0    0  0.21021065125E+01 -0.41535743623E+01  0.35977175928E+01  0.58834177067E+01  0.51100000000E-03 0.  1.
        -11    1    3    3    0    0 -0.28975503786E+00 -0.10235909685E+02  0.76709488174E+01  0.12794579363E+02  0.51100000000E-03 0. -1.
         12    1    3    3    0    0 -0.48468590460E+01 -0.28360240326E+02 -0.44220622153E+01  0.29109275295E+02  0.00000000000E+00 0. -1.
</event>
<event>
 7    1  0.3961414E-009  0.4778726E+02  0.7816164E-02  0.1312668E+00
        -11   -1    0    0    0    0  0.00000000000E+00  0.00000000000E+00  0.45593999997E+02  0.45594000000E+02  0.51100000000E-03 0. -1.
         11   -1    0    0    0    0 -0.00000000000E+00 -0.00000000000E+00 -0.45593999997E+02  0.45594000000E+02  0.51100000000E-03 0.  1.
    9900012    2    1    2    0    0  0.17334899173E+02  0.18397236532E+02  0.35279835459E+02  0.47787264621E+02  0.19999970715E+02 0.  0.
        -12    1    1    2    0    0 -0.17334899173E+02 -0.18397236532E+02 -0.35279835459E+02  0.43400735379E+02  0.00000000000E+00 0.  1.
         11    1    3    3    0    0  0.11116072658E+01  0.74479818807E+01  0.18872727731E+02  0.20319644610E+02  0.51100000000E-03 0. -1.
        -11    1    3    3    0    0  0.32879463274E+01 -0.18675041236E+01  0.34492820837E+01  0.51181744653E+01  0.51100000000E-03 0.  1.
         12    1    3    3    0    0  0.12935345580E+02  0.12816758775E+02  0.12957825645E+02  0.22349445546E+02  0.00000000000E+00 0. -1.
</event>
<event>
 7    1  0.3884463E-009  0.4778727E+02  0.7816164E-02  0.1312668E+00
        -11   -1    0    0    0    0  0.00000000000E+00  0.00000000000E+00  0.45593999997E+02  0.45594000000E+02  0.51100000000E-03 0.  1.
         11   -1    0    0    0    0 -0.00000000000E+00 -0.00000000000E+00 -0.45593999997E+02  0.45594000000E+02  0.51100000000E-03 0. -1.
    9900012    2    1    2    0    0  0.23783590775E+02  0.26419780992E+02  0.24898982615E+02  0.47787270132E+02  0.19999995841E+02 0.  0.
        -12    1    1    2    0    0 -0.23783590775E+02 -0.26419780992E+02 -0.24898982615E+02  0.43400729868E+02  0.00000000000E+00 0.  1.
         11    1    3    3    0    0  0.47538361563E+01  0.14775704084E+02  0.10452541211E+02  0.18712990339E+02  0.51100000000E-03 0. -1.
        -11    1    3    3    0    0 -0.15385262867E+01  0.27596657537E+00  0.18101608025E+01  0.23916318859E+01  0.51100000000E-03 0.  1.
         12    1    3    3    0    0  0.20568280905E+02  0.11368110332E+02  0.12636280602E+02  0.26682647908E+02  0.00000000000E+00 0. -1.
</event>
<event>
 7    1  0.3884463E-009  0.4778728E+02  0.7816164E-02  0.1312668E+00
        -11   -1    0    0    0    0  0.00000000000E+00  0.00000000000E+00  0.45593999997E+02  0.45594000000E+02  0.51100000000E-03 0.  1.
         11   -1    0    0    0    0 -0.00000000000E+00 -0.00000000000E+00 -0.45593999997E+02  0.45594000000E+02  0.51100000000E-03 0. -1.
    9900012    2    1    2    0    0 -0.20473593969E+01 -0.42681980269E+02 -0.75946982587E+01  0.47787279248E+02  0.20000037402E+02 0.  0.
        -12    1    1    2    0    0  0.20473593969E+01  0.42681980269E+02  0.75946982587E+01  0.43400720752E+02  0.00000000000E+00 0.  1.
         11    1    3    3    0    0  0.18368751129E+01 -0.32706637945E+02  0.28763834561E+00  0.32759441570E+02  0.51100000000E-03 0. -1.
        -11    1    3    3    0    0  0.62695967976E+00 -0.61635365492E+01 -0.15861092896E+01  0.63951547420E+01  0.51100000000E-03 0.  1.
        -12    1    3    3    0    0 -0.45111941896E+01 -0.38118057743E+01 -0.62962273147E+01  0.86326829361E+01  0.00000000000E+00 0.  1.
</event>
<event>
 7    1  0.3884463E-009  0.4778727E+02  0.7816164E-02  0.1312668E+00
        -11   -1    0    0    0    0  0.00000000000E+00  0.00000000000E+00  0.45593999997E+02  0.45594000000E+02  0.51100000000E-03 0.  1.
         11   -1    0    0    0    0 -0.00000000000E+00 -0.00000000000E+00 -0.45593999997E+02  0.45594000000E+02  0.51100000000E-03 0. -1.
    9900012    2    1    2    0    0  0.73363473867E+01  0.25134117591E+02 -0.34613254556E+02  0.47787271308E+02  0.20000001201E+02 0.  0.
        -12    1    1    2    0    0 -0.73363473867E+01 -0.25134117591E+02  0.34613254556E+02  0.43400728692E+02  0.00000000000E+00 0.  1.
         11    1    3    3    0    0  0.54789329222E+01  0.12090125684E+02 -0.20620319511E+02  0.24523201708E+02  0.51100000000E-03 0. -1.
        -11    1    3    3    0    0  0.18583368167E+01 -0.15979397689E+01 -0.62230043657E+01  0.66882442259E+01  0.51100000000E-03 0.  1.
         12    1    3    3    0    0 -0.92235218440E-03  0.14641931676E+02 -0.77699306792E+01  0.16575825374E+02  0.00000000000E+00 0. -1.
</event>
<event>
 7    1  0.3884463E-009  0.4778727E+02  0.7816164E-02  0.1312668E+00
        -11   -1    0    0    0    0  0.00000000000E+00  0.00000000000E+00  0.45593999997E+02  0.45594000000E+02  0.51100000000E-03 0.  1.
         11   -1    0    0    0    0 -0.00000000000E+00 -0.00000000000E+00 -0.45593999997E+02  0.45594000000E+02  0.51100000000E-03 0. -1.
    9900012    2    1    2    0    0  0.48431047221E+01  0.27945570930E+02 -0.32851370613E+02  0.47787272481E+02  0.20000006552E+02 0.  0.
        -12    1    1    2    0    0 -0.48431047221E+01 -0.27945570930E+02  0.32851370613E+02  0.43400727519E+02  0.00000000000E+00 0.  1.
         11    1    3    3    0    0  0.22454949950E+01  0.13973406482E+02 -0.21691751170E+02  0.25900393927E+02  0.51100000000E-03 0. -1.
        -11    1    3    3    0    0  0.57981791418E+01  0.61603314431E+01 -0.10406442715E+02  0.13411286855E+02  0.51100000000E-03 0.  1.
        -12    1    3    3    0    0 -0.32005694146E+01  0.78118330058E+01 -0.75317672805E+00  0.84755917004E+01  0.00000000000E+00 0.  1.
</event>
<event>
 7    1  0.3884463E-009  0.4778727E+02  0.7816164E-02  0.1312668E+00
        -11   -1    0    0    0    0  0.00000000000E+00  0.00000000000E+00  0.45593999997E+02  0.45594000000E+02  0.51100000000E-03 0.  1.
         11   -1    0    0    0    0 -0.00000000000E+00 -0.00000000000E+00 -0.45593999997E+02  0.45594000000E+02  0.51100000000E-03 0. -1.
    9900012    2    1    2    0    0  0.29469843393E+02 -0.30453270097E+02 -0.93675023086E+01  0.47787269261E+02  0.19999991868E+02 0.  0.
        -12    1    1    2    0    0 -0.29469843393E+02  0.30453270097E+02  0.93675023086E+01  0.43400730739E+02  0.00000000000E+00 0.  1.
         11    1    3    3    0    0  0.91756035130E+01 -0.17268442525E+02 -0.74637899095E+01  0.20930813819E+02  0.51100000000E-03 0. -1.
        -11    1    3    3    0    0  0.63409294773E+01 -0.30058621249E+01 -0.58545062524E+01  0.91388094121E+01  0.51100000000E-03 0.  1.
         12    1    3    3    0    0  0.13953310402E+02 -0.10178965447E+02  0.39507938534E+01  0.17717646030E+02  0.00000000000E+00 0. -1.
</event>
<event>
 7    1  0.3884463E-009  0.4778728E+02  0.7816164E-02  0.1312668E+00
        -11   -1    0    0    0    0  0.00000000000E+00  0.00000000000E+00  0.45593999997E+02  0.45594000000E+02  0.51100000000E-03 0. -1.
         11   -1    0    0    0    0 -0.00000000000E+00 -0.00000000000E+00 -0.45593999997E+02  0.45594000000E+02  0.51100000000E-03 0.  1.
    9900012    2    1    2    0    0 -0.26929259511E+02  0.23359996183E+02  0.24753752049E+02  0.47787277886E+02  0.20000031193E+02 0.  0.
        -12    1    1    2    0    0  0.26929259511E+02 -0.23359996183E+02 -0.24753752049E+02  0.43400722114E+02  0.00000000000E+00 0.  1.
         11    1    3    3    0    0  0.74173492178E+00 -0.11478463923E+01  0.12092647335E+01  0.18248406756E+01  0.51100000000E-03 0. -1.
        -11    1    3    3    0    0  0.16194303090E+01  0.16396877781E+01  0.11459815696E+01  0.25737918630E+01  0.51100000000E-03 0.  1.
         12    1    3    3    0    0 -0.29290424742E+02  0.22868154797E+02  0.22398505746E+02  0.43388645347E+02  0.00000000000E+00 0. -1.
</event>
<event>
 7    1  0.3884463E-009  0.4778726E+02  0.7816164E-02  0.1312668E+00
        -11   -1    0    0    0    0  0.00000000000E+00  0.00000000000E+00  0.45593999997E+02  0.45594000000E+02  0.51100000000E-03 0.  1.
         11   -1    0    0    0    0 -0.00000000000E+00 -0.00000000000E+00 -0.45593999997E+02  0.45594000000E+02  0.51100000000E-03 0. -1.
    9900012    2    1    2    0    0  0.19835494315E+01  0.30782510813E+02 -0.30530752531E+02  0.47787259333E+02  0.19999946603E+02 0.  0.
        -12    1    1    2    0    0 -0.19835494315E+01 -0.30782510813E+02  0.30530752531E+02  0.43400740667E+02  0.00000000000E+00 0.  1.
         11    1    3    3    0    0 -0.28383300132E+01  0.12413975319E+02 -0.24006165836E+02  0.27174600253E+02  0.51100000000E-03 0. -1.
        -11    1    3    3    0    0  0.18102604383E+01  0.14234937858E+01 -0.12025950523E+01  0.25980016423E+01  0.51100000000E-03 0.  1.
        -12    1    3    3    0    0  0.30116190064E+01  0.16945041709E+02 -0.53219916424E+01  0.18014657438E+02  0.00000000000E+00 0.  1.
</event>
<event>
 7    1  0.3884463E-009  0.4778725E+02  0.7816164E-02  0.1312668E+00
        -11   -1    0    0    0    0  0.00000000000E+00  0.00000000000E+00  0.45593999997E+02  0.45594000000E+02  0.51100000000E-03 0. -1.
         11   -1    0    0    0    0 -0.00000000000E+00 -0.00000000000E+00 -0.45593999997E+02  0.45594000000E+02  0.51100000000E-03 0.  1.
    9900012    2    1    2    0    0 -0.15050019931E+02 -0.67502428675E+00  0.40702163482E+02  0.47787252659E+02  0.19999916172E+02 0.  0.
        -12    1    1    2    0    0  0.15050019931E+02  0.67502428675E+00 -0.40702163482E+02  0.43400747341E+02  0.00000000000E+00 0.  1.
         11    1    3    3    0    0  0.94229065623E+00  0.41352687004E+01  0.50948462265E+01  0.66291641432E+01  0.51100000000E-03 0. -1.
        -11    1    3    3    0    0 -0.64856443138E+01  0.40441842467E+01  0.13733853699E+02  0.15717434463E+02  0.51100000000E-03 0.  1.
        -12    1    3    3    0    0 -0.95066662730E+01 -0.88544772339E+01  0.21873463556E+02  0.25440654053E+02  0.00000000000E+00 0.  1.
</event>
<event>
 7    1  0.3884463E-009  0.4778728E+02  0.7816164E-02  0.1312668E+00
        -11   -1    0    0    0    0  0.00000000000E+00  0.00000000000E+00  0.45593999997E+02  0.45594000000E+02  0.51100000000E-03 0.  1.
         11   -1    0    0    0    0 -0.00000000000E+00 -0.00000000000E+00 -0.45593999997E+02  0.45594000000E+02  0.51100000000E-03 0. -1.
    9900012    2    1    2    0    0  0.14828921732E+02  0.11269129690E+02 -0.39201182509E+02  0.47787275193E+02  0.20000018914E+02 0.  0.
        -12    1    1    2    0    0 -0.14828921732E+02 -0.11269129690E+02  0.39201182509E+02  0.43400724807E+02  0.00000000000E+00 0.  1.
         11    1    3    3    0    0  0.98367914246E+01  0.11322361008E+02 -0.30304150565E+02  0.33812717520E+02  0.51100000000E-03 0. -1.
        -11    1    3    3    0    0  0.68712690123E+01 -0.31170531834E+00 -0.97194516124E+01  0.11907108715E+02  0.51100000000E-03 0.  1.
        -12    1    3    3    0    0 -0.18791387051E+01  0.25847400011E+00  0.82241966875E+00  0.20674489578E+01  0.00000000000E+00 0.  1.
</event>
<event>
 7    1  0.3884463E-009  0.4778727E+02  0.7816164E-02  0.1312668E+00
        -11   -1    0    0    0    0  0.00000000000E+00  0.00000000000E+00  0.45593999997E+02  0.45594000000E+02  0.51100000000E-03 0.  1.
         11   -1    0    0    0    0 -0.00000000000E+00 -0.00000000000E+00 -0.45593999997E+02  0.45594000000E+02  0.51100000000E-03 0. -1.
    9900012    2    1    2    0    0  0.12475460459E+02  0.11548641469E+02 -0.39932630221E+02  0.47787272013E+02  0.20000004414E+02 0.  0.
        -12    1    1    2    0    0 -0.12475460459E+02 -0.11548641469E+02  0.39932630221E+02  0.43400727987E+02  0.00000000000E+00 0.  1.
         11    1    3    3    0    0  0.43264350048E+01  0.73786084461E+01 -0.68620676687E+01  0.10965850419E+02  0.51100000000E-03 0. -1.
        -11    1    3    3    0    0  0.14178910261E+01  0.79158718073E+01 -0.21162712099E+02  0.22639165733E+02  0.51100000000E-03 0.  1.
         12    1    3    3    0    0  0.67311344282E+01 -0.37458387842E+01 -0.11907850454E+02  0.14182255861E+02  0.00000000000E+00 0. -1.
</event>
<event>
 7    1  0.3884463E-009  0.4778727E+02  0.7816164E-02  0.1312668E+00
        -11   -1    0    0    0    0  0.00000000000E+00  0.00000000000E+00  0.45593999997E+02  0.45594000000E+02  0.51100000000E-03 0. -1.
         11   -1    0    0    0    0 -0.00000000000E+00 -0.00000000000E+00 -0.45593999997E+02  0.45594000000E+02  0.51100000000E-03 0.  1.
    9900012    2    1    2    0    0  0.18356880167E+02 -0.39008055794E+02 -0.50019843957E+01  0.47787270580E+02  0.19999997881E+02 0.  0.
        -12    1    1    2    0    0 -0.18356880167E+02  0.39008055794E+02  0.50019843957E+01  0.43400729420E+02  0.00000000000E+00 0.  1.
         11    1    3    3    0    0  0.50952753235E+01 -0.19311154101E+02 -0.63265640460E+01  0.20950129265E+02  0.51100000000E-03 0. -1.
        -11    1    3    3    0    0  0.96033067996E+01 -0.10550092504E+02 -0.50152176380E+01  0.15122181111E+02  0.51100000000E-03 0.  1.
         12    1    3    3    0    0  0.36582980441E+01 -0.91468091890E+01  0.63397972883E+01  0.11714960204E+02  0.00000000000E+00 0. -1.
</event>
<event>
 7    1  0.3884463E-009  0.4778728E+02  0.7816164E-02  0.1312668E+00
        -11   -1    0    0    0    0  0.00000000000E+00  0.00000000000E+00  0.45593999997E+02  0.45594000000E+02  0.51100000000E-03 0.  1.
         11   -1    0    0    0    0 -0.00000000000E+00 -0.00000000000E+00 -0.45593999997E+02  0.45594000000E+02  0.51100000000E-03 0. -1.
    9900012    2    1    2    0    0 -0.25945429070E+02  0.12897235739E+02 -0.32312826762E+02  0.47787277049E+02  0.20000027376E+02 0.  0.
        -12    1    1    2    0    0  0.25945429070E+02 -0.12897235739E+02  0.32312826762E+02  0.43400722951E+02  0.00000000000E+00 0.  1.
         11    1    3    3    0    0  0.10273541706E+01  0.25059167887E+01 -0.23100263643E+01  0.35596766157E+01  0.51100000000E-03 0. -1.
        -11    1    3    3    0    0 -0.49534976708E+01  0.81592749979E+01 -0.47925362682E+01  0.10680791722E+02  0.51100000000E-03 0.  1.
         12    1    3    3    0    0 -0.22019285570E+02  0.22320439527E+01 -0.25210264130E+02  0.33546808711E+02  0.00000000000E+00 0. -1.
</event>
<event>
 7    1  0.3884463E-009  0.4778727E+02  0.7816164E-02  0.1312668E+00
        -11   -1    0    0    0    0  0.00000000000E+00  0.00000000000E+00  0.45593999997E+02  0.45594000000E+02  0.51100000000E-03 0.  1.
         11   -1    0    0    0    0 -0.00000000000E+00 -0.00000000000E+00 -0.45593999997E+02  0.45594000000E+02  0.51100000000E-03 0. -1.
    9900012    2    1    2    0    0 -0.15782968669E+02 -0.39448459121E+02 -0.88510002643E+01  0.47787271518E+02  0.20000002161E+02 0.  0.
        -12    1    1    2    0    0  0.15782968669E+02  0.39448459121E+02  0.88510002643E+01  0.43400728482E+02  0.00000000000E+00 0.  1.
         11    1    3    3    0    0 -0.80676387626E+01 -0.23542042106E+02 -0.85523068394E+01  0.26314568099E+02  0.51100000000E-03 0. -1.
        -11    1    3    3    0    0 -0.37322981001E+01 -0.16406931354E+02  0.18361605120E+01  0.16925983908E+02  0.51100000000E-03 0.  1.
        -12    1    3    3    0    0 -0.39830318066E+01  0.50051433908E+00 -0.21348539368E+01  0.45467195106E+01  0.00000000000E+00 0.  1.
</event>
<event>
 7    1  0.3884463E-009  0.4778727E+02  0.7816164E-02  0.1312668E+00
        -11   -1    0    0    0    0  0.00000000000E+00  0.00000000000E+00  0.45593999997E+02  0.45594000000E+02  0.51100000000E-03 0. -1.
         11   -1    0    0    0    0 -0.00000000000E+00 -0.00000000000E+00 -0.45593999997E+02  0.45594000000E+02  0.51100000000E-03 0.  1.
    9900012    2    1    2    0    0  0.26979884434E+01  0.16295260133E+02  0.40134884892E+02  0.47787266945E+02  0.19999981307E+02 0.  0.
        -12    1    1    2    0    0 -0.26979884434E+01 -0.16295260133E+02 -0.40134884892E+02  0.43400733055E+02  0.00000000000E+00 0.  1.
         11    1    3    3    0    0  0.17061747810E+00 -0.23605063213E+01  0.17961809700E+02  0.18117055732E+02  0.51100000000E-03 0. -1.
        -11    1    3    3    0    0 -0.37855941961E-01  0.51805692826E+00 -0.35899751922E+00  0.63142341831E+00  0.51100000000E-03 0.  1.
        -12    1    3    3    0    0  0.25652269073E+01  0.18137709526E+02  0.22532072711E+02  0.29038787795E+02  0.00000000000E+00 0.  1.
</event>
<event>
 7    1  0.3884463E-009  0.4778726E+02  0.7816164E-02  0.1312668E+00
        -11   -1    0    0    0    0  0.00000000000E+00  0.00000000000E+00  0.45593999997E+02  0.45594000000E+02  0.51100000000E-03 0. -1.
         11   -1    0    0    0    0 -0.00000000000E+00 -0.00000000000E+00 -0.45593999997E+02  0.45594000000E+02  0.51100000000E-03 0.  1.
    9900012    2    1    2    0    0 -0.36004207117E+02  0.24118191950E+02 -0.23735893952E+01  0.47787262222E+02  0.19999959775E+02 0.  0.
        -12    1    1    2    0    0  0.36004207117E+02 -0.24118191950E+02  0.23735893952E+01  0.43400737778E+02  0.00000000000E+00 0.  1.
         11    1    3    3    0    0 -0.16785991788E+02  0.11021916052E+02  0.51732905835E+01  0.20736805190E+02  0.51100000000E-03 0. -1.
        -11    1    3    3    0    0 -0.12935002150E+02  0.13261069275E+02 -0.19372786738E+01  0.18625876835E+02  0.51100000000E-03 0.  1.
        -12    1    3    3    0    0 -0.62832131784E+01 -0.16479337653E+00 -0.56096013048E+01  0.84245801973E+01  0.00000000000E+00 0.  1.
</event>
<event>
 7    1  0.3884463E-009  0.4778727E+02  0.7816164E-02  0.1312668E+00
        -11   -1    0    0    0    0  0.00000000000E+00  0.00000000000E+00  0.45593999997E+02  0.45594000000E+02  0.51100000000E-03 0. -1.
         11   -1    0    0    0    0 -0.00000000000E+00 -0.00000000000E+00 -0.45593999997E+02  0.45594000000E+02  0.51100000000E-03 0.  1.
    9900012    2    1    2    0    0 -0.32002503150E+02  0.25049425833E+02  0.15231210604E+02  0.47787265918E+02  0.19999976626E+02 0.  0.
        -12    1    1    2    0    0  0.32002503150E+02 -0.25049425833E+02 -0.15231210604E+02  0.43400734082E+02  0.00000000000E+00 0.  1.
         11    1    3    3    0    0 -0.15142818633E+02  0.10741509913E+02 -0.16222489495E+00  0.18566402682E+02  0.51100000000E-03 0. -1.
        -11    1    3    3    0    0  0.16944306675E+01  0.14480699393E+01  0.96469176512E+00  0.24287100071E+01  0.51100000000E-03 0.  1.
         12    1    3    3    0    0 -0.18554115184E+02  0.12859845981E+02  0.14428743734E+02  0.26792153229E+02  0.00000000000E+00 0. -1.
</event>
<event>
 7    1  0.3884463E-009  0.4778728E+02  0.7816164E-02  0.1312668E+00
        -11   -1    0    0    0    0  0.00000000000E+00  0.00000000000E+00  0.45593999997E+02  0.45594000000E+02  0.51100000000E-03 0. -1.
         11   -1    0    0    0    0 -0.00000000000E+00 -0.00000000000E+00 -0.45593999997E+02  0.45594000000E+02  0.51100000000E-03 0.  1.
    9900012    2    1    2    0    0 -0.31863114414E+02  0.27370838367E+02 -0.10917952230E+02  0.47787279569E+02  0.20000038865E+02 0.  0.
        -12    1    1    2    0    0  0.31863114414E+02 -0.27370838367E+02  0.10917952230E+02  0.43400720431E+02  0.00000000000E+00 0.  1.
         11    1    3    3    0    0 -0.80057583719E+01  0.23380982565E+01  0.26122429512E+01  0.87397187634E+01  0.51100000000E-03 0. -1.
        -11    1    3    3    0    0 -0.82311870851E+01  0.11440124605E+02  0.38054379535E+00  0.14098712907E+02  0.51100000000E-03 0.  1.
         12    1    3    3    0    0 -0.15626168957E+02  0.13592615505E+02 -0.13910738977E+02  0.24948847898E+02  0.00000000000E+00 0. -1.
</event>
<event>
 7    1  0.3884463E-009  0.4778727E+02  0.7816164E-02  0.1312668E+00
        -11   -1    0    0    0    0  0.00000000000E+00  0.00000000000E+00  0.45593999997E+02  0.45594000000E+02  0.51100000000E-03 0. -1.
         11   -1    0    0    0    0 -0.00000000000E+00 -0.00000000000E+00 -0.45593999997E+02  0.45594000000E+02  0.51100000000E-03 0.  1.
    9900012    2    1    2    0    0 -0.63712799744E+01  0.23569036849E+02  0.35882178651E+02  0.47787269001E+02  0.19999990681E+02 0.  0.
        -12    1    1    2    0    0  0.63712799744E+01 -0.23569036849E+02 -0.35882178651E+02  0.43400730999E+02  0.00000000000E+00 0.  1.
         11    1    3    3    0    0 -0.36297117401E+01 -0.14333660975E+01  0.61285820357E+01  0.72655945191E+01  0.51100000000E-03 0.  1.
        -11    1    3    3    0    0 -0.64702322065E+01  0.10773975636E+02  0.16348193077E+02  0.20620520676E+02  0.51100000000E-03 0. -1.
         12    1    3    3    0    0  0.37286639722E+01  0.14228427311E+02  0.13405403539E+02  0.19901153806E+02  0.00000000000E+00 0. -1.
</event>
<event>
 7    1  0.3884463E-009  0.4778727E+02  0.7816164E-02  0.1312668E+00
        -11   -1    0    0    0    0  0.00000000000E+00  0.00000000000E+00  0.45593999997E+02  0.45594000000E+02  0.51100000000E-03 0.  1.
         11   -1    0    0    0    0 -0.00000000000E+00 -0.00000000000E+00 -0.45593999997E+02  0.45594000000E+02  0.51100000000E-03 0. -1.
    9900012    2    1    2    0    0  0.17515959880E+02 -0.15728156937E+02 -0.36461483834E+02  0.47787267580E+02  0.19999984206E+02 0.  0.
        -12    1    1    2    0    0 -0.17515959880E+02  0.15728156937E+02  0.36461483834E+02  0.43400732420E+02  0.00000000000E+00 0.  1.
         11    1    3    3    0    0  0.14362389866E+02 -0.13009181007E+02 -0.12714122940E+02  0.23176840931E+02  0.51100000000E-03 0. -1.
        -11    1    3    3    0    0  0.48629296182E+00 -0.27989807669E+01 -0.57200351407E+01  0.63866717819E+01  0.51100000000E-03 0.  1.
        -12    1    3    3    0    0  0.26672770527E+01  0.80004837115E-01 -0.18027325754E+02  0.18223754868E+02  0.00000000000E+00 0.  1.
</event>
<event>
 7    1  0.3884463E-009  0.4778727E+02  0.7816164E-02  0.1312668E+00
        -11   -1    0    0    0    0  0.00000000000E+00  0.00000000000E+00  0.45593999997E+02  0.45594000000E+02  0.51100000000E-03 0.  1.
         11   -1    0    0    0    0 -0.00000000000E+00 -0.00000000000E+00 -0.45593999997E+02  0.45594000000E+02  0.51100000000E-03 0. -1.
    9900012    2    1    2    0    0 -0.11393721762E+02 -0.23840829641E+02 -0.34429949049E+02  0.47787269072E+02  0.19999991005E+02 0.  0.
        -12    1    1    2    0    0  0.11393721762E+02  0.23840829641E+02  0.34429949049E+02  0.43400730928E+02  0.00000000000E+00 0.  1.
         11    1    3    3    0    0 -0.67448485186E+01 -0.18432276929E+02 -0.22795512298E+02  0.30081176764E+02  0.51100000000E-03 0. -1.
        -11    1    3    3    0    0 -0.39069060426E+01 -0.75233581332E+01 -0.33355829630E+01  0.91099366842E+01  0.51100000000E-03 0.  1.
        -12    1    3    3    0    0 -0.74196720059E+00  0.21148054213E+01 -0.82988537883E+01  0.85961556230E+01  0.00000000000E+00 0.  1.
</event>
<event>
 7    1  0.3884463E-009  0.4778727E+02  0.7816164E-02  0.1312668E+00
        -11   -1    0    0    0    0  0.00000000000E+00  0.00000000000E+00  0.45593999997E+02  0.45594000000E+02  0.51100000000E-03 0. -1.
         11   -1    0    0    0    0 -0.00000000000E+00 -0.00000000000E+00 -0.45593999997E+02  0.45594000000E+02  0.51100000000E-03 0.  1.
    9900012    2    1    2    0    0 -0.21794538631E+02  0.36777536019E+02  0.74856010648E+01  0.47787270823E+02  0.19999998990E+02 0.  0.
        -12    1    1    2    0    0  0.21794538631E+02 -0.36777536019E+02 -0.74856010648E+01  0.43400729177E+02  0.00000000000E+00 0.  1.
         11    1    3    3    0    0 -0.77903055193E+01  0.16136937255E+02  0.98518372966E+01  0.20448674833E+02  0.51100000000E-03 0. -1.
        -11    1    3    3    0    0 -0.80974418499E+01  0.76660650156E+01  0.38359651548E+01  0.11792020449E+02  0.51100000000E-03 0.  1.
        -12    1    3    3    0    0 -0.59067912623E+01  0.12974533749E+02 -0.62022013866E+01  0.15546575541E+02  0.00000000000E+00 0.  1.
</event>
<event>
 7    1  0.3884463E-009  0.4778727E+02  0.7816164E-02  0.1312668E+00
        -11   -1    0    0    0    0  0.00000000000E+00  0.00000000000E+00  0.45593999997E+02  0.45594000000E+02  0.51100000000E-03 0.  1.
         11   -1    0    0    0    0 -0.00000000000E+00 -0.00000000000E+00 -0.45593999997E+02  0.45594000000E+02  0.51100000000E-03 0. -1.
    9900012    2    1    2    0    0 -0.40364800648E+02  0.34976703363E-01 -0.15946940446E+02  0.47787271155E+02  0.20000000504E+02 0.  0.
        -12    1    1    2    0    0  0.40364800648E+02 -0.34976703363E-01  0.15946940446E+02  0.43400728845E+02  0.00000000000E+00 0.  1.
         11    1    3    3    0    0 -0.22397564088E+02  0.14585218727E+01 -0.32733320470E+01  0.22682435189E+02  0.51100000000E-03 0. -1.
        -11    1    3    3    0    0 -0.14110589527E+02  0.12057530402E+01 -0.31635419774E+01  0.14511050110E+02  0.51100000000E-03 0.  1.
         12    1    3    3    0    0 -0.38566470318E+01 -0.26292982095E+01 -0.95100664221E+01  0.10593785856E+02  0.00000000000E+00 0. -1.
</event>
<event>
 7    1  0.3884463E-009  0.4778727E+02  0.7816164E-02  0.1312668E+00
        -11   -1    0    0    0    0  0.00000000000E+00  0.00000000000E+00  0.45593999997E+02  0.45594000000E+02  0.51100000000E-03 0.  1.
         11   -1    0    0    0    0 -0.00000000000E+00 -0.00000000000E+00 -0.45593999997E+02  0.45594000000E+02  0.51100000000E-03 0. -1.
    9900012    2    1    2    0    0 -0.20555816864E+02  0.56676807914E+01 -0.37801572019E+02  0.47787273513E+02  0.20000011256E+02 0.  0.
        -12    1    1    2    0    0  0.20555816864E+02 -0.56676807914E+01  0.37801572019E+02  0.43400726487E+02  0.00000000000E+00 0.  1.
         11    1    3    3    0    0 -0.24143690107E+01  0.27352848712E+01 -0.12972424191E+02  0.13475709655E+02  0.51100000000E-03 0. -1.
        -11    1    3    3    0    0 -0.59525878274E+01  0.53011869685E+01 -0.18980281679E+02  0.20586087000E+02  0.51100000000E-03 0.  1.
        -12    1    3    3    0    0 -0.12188860026E+02 -0.23687910483E+01 -0.58488661493E+01  0.13725476858E+02  0.00000000000E+00 0.  1.
</event>
<event>
 7    1  0.3884463E-009  0.4778726E+02  0.7816164E-02  0.1312668E+00
        -11   -1    0    0    0    0  0.00000000000E+00  0.00000000000E+00  0.45593999997E+02  0.45594000000E+02  0.51100000000E-03 0.  1.
         11   -1    0    0    0    0 -0.00000000000E+00 -0.00000000000E+00 -0.45593999997E+02  0.45594000000E+02  0.51100000000E-03 0. -1.
    9900012    2    1    2    0    0  0.11901166244E+02  0.13104917600E+02 -0.39626348974E+02  0.47787260879E+02  0.19999953651E+02 0.  0.
        -12    1    1    2    0    0 -0.11901166244E+02 -0.13104917600E+02  0.39626348974E+02  0.43400739121E+02  0.00000000000E+00 0.  1.
         11    1    3    3    0    0  0.12080880283E+02  0.56510576663E+00 -0.21071060924E+02  0.24295197502E+02  0.51100000000E-03 0. -1.
        -11    1    3    3    0    0  0.30008119242E+01  0.33709950192E+01 -0.42066111270E+01  0.61696075287E+01  0.51100000000E-03 0.  1.
        -12    1    3    3    0    0 -0.31805259632E+01  0.91688168138E+01 -0.14348676923E+02  0.17322455848E+02  0.00000000000E+00 0.  1.
</event>
<event>
 7    1  0.3884463E-009  0.4778727E+02  0.7816164E-02  0.1312668E+00
        -11   -1    0    0    0    0  0.00000000000E+00  0.00000000000E+00  0.45593999997E+02  0.45594000000E+02  0.51100000000E-03 0. -1.
         11   -1    0    0    0    0 -0.00000000000E+00 -0.00000000000E+00 -0.45593999997E+02  0.45594000000E+02  0.51100000000E-03 0.  1.
    9900012    2    1    2    0    0 -0.25801895031E+02 -0.70384161095E+01  0.34181076585E+02  0.47787273220E+02  0.20000009919E+02 0.  0.
        -12    1    1    2    0    0  0.25801895031E+02  0.70384161095E+01 -0.34181076585E+02  0.43400726780E+02  0.00000000000E+00 0.  1.
         11    1    3    3    0    0 -0.80930906911E+01 -0.27553953000E+01  0.71706018980E+01  0.11158308655E+02  0.51100000000E-03 0. -1.
        -11    1    3    3    0    0 -0.11750243483E+02  0.42252538845E+00  0.26532929445E+02  0.29021424755E+02  0.51100000000E-03 0.  1.
        -12    1    3    3    0    0 -0.59585608567E+01 -0.47055461979E+01  0.47754524187E+00  0.76075398101E+01  0.00000000000E+00 0.  1.
</event>
<event>
 7    1  0.3884463E-009  0.4778727E+02  0.7816164E-02  0.1312668E+00
        -11   -1    0    0    0    0  0.00000000000E+00  0.00000000000E+00  0.45593999997E+02  0.45594000000E+02  0.51100000000E-03 0.  1.
         11   -1    0    0    0    0 -0.00000000000E+00 -0.00000000000E+00 -0.45593999997E+02  0.45594000000E+02  0.51100000000E-03 0. -1.
    9900012    2    1    2    0    0  0.38703028419E+02  0.10863008558E+02 -0.16361362672E+02  0.47787267838E+02  0.19999985382E+02 0.  0.
        -12    1    1    2    0    0 -0.38703028419E+02 -0.10863008558E+02  0.16361362672E+02  0.43400732162E+02  0.00000000000E+00 0.  1.
         11    1    3    3    0    0  0.35399115988E+01 -0.10768867067E+01 -0.20870789257E+01  0.42481240342E+01  0.51100000000E-03 0.  1.
        -11    1    3    3    0    0  0.33649982880E+02  0.14949595969E+02 -0.10112260238E+02  0.38184677226E+02  0.51100000000E-03 0. -1.
         12    1    3    3    0    0  0.15131339395E+01 -0.30097007049E+01 -0.41620235079E+01  0.53544665778E+01  0.00000000000E+00 0. -1.
</event>
<event>
 7    1  0.3884463E-009  0.4778727E+02  0.7816164E-02  0.1312668E+00
        -11   -1    0    0    0    0  0.00000000000E+00  0.00000000000E+00  0.45593999997E+02  0.45594000000E+02  0.51100000000E-03 0.  1.
         11   -1    0    0    0    0 -0.00000000000E+00 -0.00000000000E+00 -0.45593999997E+02  0.45594000000E+02  0.51100000000E-03 0. -1.
    9900012    2    1    2    0    0 -0.11265259651E+02 -0.36440448549E+02 -0.20707749395E+02  0.47787271314E+02  0.20000001230E+02 0.  0.
        -12    1    1    2    0    0  0.11265259651E+02  0.36440448549E+02  0.20707749395E+02  0.43400728686E+02  0.00000000000E+00 0.  1.
         11    1    3    3    0    0  0.25417219964E+01 -0.16032948563E+02 -0.81045594541E+01  0.18143860519E+02  0.51100000000E-03 0. -1.
        -11    1    3    3    0    0 -0.38598556058E+01 -0.77730287565E+01  0.79217296406E+00  0.87147002021E+01  0.51100000000E-03 0.  1.
        -12    1    3    3    0    0 -0.99471260415E+01 -0.12634471230E+02 -0.13395362905E+02  0.20928710593E+02  0.00000000000E+00 0.  1.
</event>
<event>
 7    1  0.3884463E-009  0.4778728E+02  0.7816164E-02  0.1312668E+00
        -11   -1    0    0    0    0  0.00000000000E+00  0.00000000000E+00  0.45593999997E+02  0.45594000000E+02  0.51100000000E-03 0.  1.
         11   -1    0    0    0    0 -0.00000000000E+00 -0.00000000000E+00 -0.45593999997E+02  0.45594000000E+02  0.51100000000E-03 0. -1.
    9900012    2    1    2    0    0 -0.36011918393E+02  0.17009090700E+01  0.24163417095E+02  0.47787284755E+02  0.20000062513E+02 0.  0.
        -12    1    1    2    0    0  0.36011918393E+02 -0.17009090700E+01 -0.24163417095E+02  0.43400715245E+02  0.00000000000E+00 0.  1.
         11    1    3    3    0    0 -0.25274006015E+01 -0.16450227103E+01  0.17409319946E+01  0.34820537027E+01  0.51100000000E-03 0. -1.
        -11    1    3    3    0    0 -0.25501909376E+02  0.83766614982E+01  0.98648084896E+01  0.28597732191E+02  0.51100000000E-03 0.  1.
        -12    1    3    3    0    0 -0.79826084158E+01 -0.50307297179E+01  0.12557676611E+02  0.15707498862E+02  0.00000000000E+00 0.  1.
</event>
<event>
 7    1  0.3884463E-009  0.4778727E+02  0.7816164E-02  0.1312668E+00
        -11   -1    0    0    0    0  0.00000000000E+00  0.00000000000E+00  0.45593999997E+02  0.45594000000E+02  0.51100000000E-03 0.  1.
         11   -1    0    0    0    0 -0.00000000000E+00 -0.00000000000E+00 -0.45593999997E+02  0.45594000000E+02  0.51100000000E-03 0. -1.
    9900012    2    1    2    0    0 -0.19710481304E+02  0.11085596376E+02 -0.37043616933E+02  0.47787273327E+02  0.20000010408E+02 0.  0.
        -12    1    1    2    0    0  0.19710481304E+02 -0.11085596376E+02  0.37043616933E+02  0.43400726673E+02  0.00000000000E+00 0.  1.
         11    1    3    3    0    0 -0.13230312942E+02  0.57362469569E+01 -0.24361146691E+02  0.28309206596E+02  0.51100000000E-03 0. -1.
        -11    1    3    3    0    0 -0.70034666999E+01  0.88063719244E+01 -0.90869406720E+01  0.14462822108E+02  0.51100000000E-03 0.  1.
        -12    1    3    3    0    0  0.52329833781E+00 -0.34570225051E+01 -0.35955295696E+01  0.50152446238E+01  0.00000000000E+00 0.  1.
</event>
<event>
 7    1  0.3884463E-009  0.4778727E+02  0.7816164E-02  0.1312668E+00
        -11   -1    0    0    0    0  0.00000000000E+00  0.00000000000E+00  0.45593999997E+02  0.45594000000E+02  0.51100000000E-03 0. -1.
         11   -1    0    0    0    0 -0.00000000000E+00 -0.00000000000E+00 -0.45593999997E+02  0.45594000000E+02  0.51100000000E-03 0.  1.
    9900012    2    1    2    0    0 -0.22701747386E+01 -0.24341973323E+02  0.35859977982E+02  0.47787269828E+02  0.19999994454E+02 0.  0.
        -12    1    1    2    0    0  0.22701747386E+01  0.24341973323E+02 -0.35859977982E+02  0.43400730172E+02  0.00000000000E+00 0.  1.
         11    1    3    3    0    0 -0.47354534935E+01 -0.82221904061E+00  0.32806511113E+01  0.58192126542E+01  0.51100000000E-03 0.  1.
        -11    1    3    3    0    0 -0.27260332602E+01 -0.88644177725E+01  0.56121815104E+01  0.10840006520E+02  0.51100000000E-03 0. -1.
         12    1    3    3    0    0  0.51913120152E+01 -0.14655336510E+02  0.26967145360E+02  0.31128050654E+02  0.00000000000E+00 0. -1.
</event>
<event>
 7    1  0.3884463E-009  0.4778727E+02  0.7816164E-02  0.1312668E+00
        -11   -1    0    0    0    0  0.00000000000E+00  0.00000000000E+00  0.45593999997E+02  0.45594000000E+02  0.51100000000E-03 0.  1.
         11   -1    0    0    0    0 -0.00000000000E+00 -0.00000000000E+00 -0.45593999997E+02  0.45594000000E+02  0.51100000000E-03 0. -1.
    9900012    2    1    2    0    0  0.17844084953E+02  0.11055815486E+02 -0.37986586354E+02  0.47787272279E+02  0.20000005628E+02 0.  0.
        -12    1    1    2    0    0 -0.17844084953E+02 -0.11055815486E+02  0.37986586354E+02  0.43400727721E+02  0.00000000000E+00 0.  1.
         11    1    3    3    0    0  0.95430278199E+01  0.87472766089E+01 -0.19879391132E+02  0.23722867029E+02  0.51100000000E-03 0. -1.
        -11    1    3    3    0    0  0.14116337442E+01  0.55615486294E+01 -0.17158857924E+01  0.59889729752E+01  0.51100000000E-03 0.  1.
        -12    1    3    3    0    0  0.68894233885E+01 -0.32530097523E+01 -0.16391309431E+02  0.18075432275E+02  0.00000000000E+00 0.  1.
</event>
<event>
 7    1  0.3884463E-009  0.4778728E+02  0.7816164E-02  0.1312668E+00
        -11   -1    0    0    0    0  0.00000000000E+00  0.00000000000E+00  0.45593999997E+02  0.45594000000E+02  0.51100000000E-03 0. -1.
         11   -1    0    0    0    0 -0.00000000000E+00 -0.00000000000E+00 -0.45593999997E+02  0.45594000000E+02  0.51100000000E-03 0.  1.
    9900012    2    1    2    0    0 -0.31678654702E+02 -0.29656015847E+02  0.77871537722E+00  0.47787276074E+02  0.20000022933E+02 0.  0.
        -12    1    1    2    0    0  0.31678654702E+02  0.29656015847E+02 -0.77871537722E+00  0.43400723926E+02  0.00000000000E+00 0.  1.
         11    1    3    3    0    0 -0.73879537819E+01 -0.49899313642E+01  0.33238776573E+01  0.95146959513E+01  0.51100000000E-03 0.  1.
        -11    1    3    3    0    0 -0.18057891405E+02 -0.18022536469E+02  0.55230904266E+01  0.26103712205E+02  0.51100000000E-03 0. -1.
        -12    1    3    3    0    0 -0.62328095150E+01 -0.66435480144E+01 -0.80682527067E+01  0.12168867918E+02  0.00000000000E+00 0.  1.
</event>
<event>
 7    1  0.3884463E-009  0.4778727E+02  0.7816164E-02  0.1312668E+00
        -11   -1    0    0    0    0  0.00000000000E+00  0.00000000000E+00  0.45593999997E+02  0.45594000000E+02  0.51100000000E-03 0. -1.
         11   -1    0    0    0    0 -0.00000000000E+00 -0.00000000000E+00 -0.45593999997E+02  0.45594000000E+02  0.51100000000E-03 0.  1.
    9900012    2    1    2    0    0  0.25586801676E+02  0.66685153098E+01  0.34416126398E+02  0.47787271058E+02  0.20000000064E+02 0.  0.
        -12    1    1    2    0    0 -0.25586801676E+02 -0.66685153098E+01 -0.34416126398E+02  0.43400728942E+02  0.00000000000E+00 0.  1.
         11    1    3    3    0    0  0.70127386068E+01  0.97500297522E+00  0.11243383762E+02  0.13286941418E+02  0.51100000000E-03 0. -1.
        -11    1    3    3    0    0  0.12259083766E+02 -0.15109795937E+01  0.38583774947E+01  0.12940450968E+02  0.51100000000E-03 0.  1.
        -12    1    3    3    0    0  0.63149793031E+01  0.72044919283E+01  0.19314365141E+02  0.21559878672E+02  0.00000000000E+00 0.  1.
</event>
<event>
 7    1  0.3884463E-009  0.4778727E+02  0.7816164E-02  0.1312668E+00
        -11   -1    0    0    0    0  0.00000000000E+00  0.00000000000E+00  0.45593999997E+02  0.45594000000E+02  0.51100000000E-03 0.  1.
         11   -1    0    0    0    0 -0.00000000000E+00 -0.00000000000E+00 -0.45593999997E+02  0.45594000000E+02  0.51100000000E-03 0. -1.
    9900012    2    1    2    0    0  0.35032111532E+02 -0.25619718106E+02 -0.68812733122E-01  0.47787268100E+02  0.19999986577E+02 0.  0.
        -12    1    1    2    0    0 -0.35032111532E+02  0.25619718106E+02  0.68812733122E-01  0.43400731900E+02  0.00000000000E+00 0.  1.
         11    1    3    3    0    0 -0.92138918713E+00  0.29348445276E+00  0.59584267258E+00  0.11358344553E+01  0.51100000000E-03 0. -1.
        -11    1    3    3    0    0  0.13700076151E+02 -0.92623934518E+01 -0.73003381436E+01  0.18077028414E+02  0.51100000000E-03 0.  1.
         12    1    3    3    0    0  0.22253424568E+02 -0.16650809107E+02  0.66356827379E+01  0.28574405231E+02  0.00000000000E+00 0. -1.
</event>
<event>
 7    1  0.3884463E-009  0.4778729E+02  0.7816164E-02  0.1312668E+00
        -11   -1    0    0    0    0  0.00000000000E+00  0.00000000000E+00  0.45593999997E+02  0.45594000000E+02  0.51100000000E-03 0.  1.
         11   -1    0    0    0    0 -0.00000000000E+00 -0.00000000000E+00 -0.45593999997E+02  0.45594000000E+02  0.51100000000E-03 0. -1.
    9900012    2    1    2    0    0 -0.40585567087E+02 -0.13869577015E+02 -0.66384146786E+01  0.47787286045E+02  0.20000068392E+02 0.  0.
        -12    1    1    2    0    0  0.40585567087E+02  0.13869577015E+02  0.66384146786E+01  0.43400713955E+02  0.00000000000E+00 0.  1.
         11    1    3    3    0    0 -0.50653418323E+01 -0.53007215331E+00  0.28194594792E+01  0.58213414590E+01  0.51100000000E-03 0. -1.
        -11    1    3    3    0    0 -0.27130635643E+02 -0.95669615419E+01  0.61778339512E-02  0.28768006222E+02  0.51100000000E-03 0.  1.
         12    1    3    3    0    0 -0.83895896118E+01 -0.37725433202E+01 -0.94640519918E+01  0.13197938364E+02  0.00000000000E+00 0. -1.
</event>
<event>
 7    1  0.3884463E-009  0.4778727E+02  0.7816164E-02  0.1312668E+00
        -11   -1    0    0    0    0  0.00000000000E+00  0.00000000000E+00  0.45593999997E+02  0.45594000000E+02  0.51100000000E-03 0.  1.
         11   -1    0    0    0    0 -0.00000000000E+00 -0.00000000000E+00 -0.45593999997E+02  0.45594000000E+02  0.51100000000E-03 0. -1.
    9900012    2    1    2    0    0 -0.36257786172E+02  0.19183572933E+02 -0.14176972608E+02  0.47787273268E+02  0.20000010136E+02 0.  0.
        -12    1    1    2    0    0  0.36257786172E+02 -0.19183572933E+02  0.14176972608E+02  0.43400726732E+02  0.00000000000E+00 0.  1.
         11    1    3    3    0    0 -0.18110340336E+02  0.30566366893E+01  0.54779060924E+00  0.18374643663E+02  0.51100000000E-03 0.  1.
        -11    1    3    3    0    0 -0.10976616553E+02  0.46369224564E+01 -0.67301464974E+01  0.13685102592E+02  0.51100000000E-03 0. -1.
         12    1    3    3    0    0 -0.71708292837E+01  0.11490013787E+02 -0.79946167197E+01  0.15727527013E+02  0.00000000000E+00 0. -1.
</event>
<event>
 7    1  0.3884463E-009  0.4778728E+02  0.7816164E-02  0.1312668E+00
        -11   -1    0    0    0    0  0.00000000000E+00  0.00000000000E+00  0.45593999997E+02  0.45594000000E+02  0.51100000000E-03 0.  1.
         11   -1    0    0    0    0 -0.00000000000E+00 -0.00000000000E+00 -0.45593999997E+02  0.45594000000E+02  0.51100000000E-03 0. -1.
    9900012    2    1    2    0    0 -0.32243966345E+02 -0.33789806859E+01 -0.28853628343E+02  0.47787277141E+02  0.20000027795E+02 0.  0.
        -12    1    1    2    0    0  0.32243966345E+02  0.33789806859E+01  0.28853628343E+02  0.43400722859E+02  0.00000000000E+00 0.  1.
         11    1    3    3    0    0  0.76820503229E+00 -0.12003797309E+01 -0.16187494900E+00  0.14343131563E+01  0.51100000000E-03 0. -1.
        -11    1    3    3    0    0 -0.54259732033E+01 -0.32258331168E+01  0.30088122918E+00  0.63196292831E+01  0.51100000000E-03 0.  1.
         12    1    3    3    0    0 -0.27586198174E+02  0.10472321618E+01 -0.28992634623E+02  0.40033334701E+02  0.00000000000E+00 0. -1.
</event>
<event>
 7    1  0.3884463E-009  0.4778727E+02  0.7816164E-02  0.1312668E+00
        -11   -1    0    0    0    0  0.00000000000E+00  0.00000000000E+00  0.45593999997E+02  0.45594000000E+02  0.51100000000E-03 0.  1.
         11   -1    0    0    0    0 -0.00000000000E+00 -0.00000000000E+00 -0.45593999997E+02  0.45594000000E+02  0.51100000000E-03 0. -1.
    9900012    2    1    2    0    0  0.84851325234E+01 -0.35519232604E+02 -0.23452285591E+02  0.47787273530E+02  0.20000011331E+02 0.  0.
        -12    1    1    2    0    0 -0.84851325234E+01  0.35519232604E+02  0.23452285591E+02  0.43400726470E+02  0.00000000000E+00 0.  1.
         11    1    3    3    0    0 -0.77057019844E+00 -0.67108193109E+01  0.57879203251E+00  0.67796662699E+01  0.51100000000E-03 0.  1.
        -11    1    3    3    0    0 -0.11233085817E+01 -0.17609261793E+02 -0.10060189626E+02  0.20311458309E+02  0.51100000000E-03 0. -1.
        -12    1    3    3    0    0  0.10379011303E+02 -0.11199151500E+02 -0.13970887997E+02  0.20696148951E+02  0.00000000000E+00 0.  1.
</event>
<event>
 7    1  0.3884463E-009  0.4778727E+02  0.7816164E-02  0.1312668E+00
        -11   -1    0    0    0    0  0.00000000000E+00  0.00000000000E+00  0.45593999997E+02  0.45594000000E+02  0.51100000000E-03 0.  1.
         11   -1    0    0    0    0 -0.00000000000E+00 -0.00000000000E+00 -0.45593999997E+02  0.45594000000E+02  0.51100000000E-03 0. -1.
    9900012    2    1    2    0    0  0.29400438614E+02  0.17399827471E+02 -0.26767218445E+02  0.47787265329E+02  0.19999973941E+02 0.  0.
        -12    1    1    2    0    0 -0.29400438614E+02 -0.17399827471E+02  0.26767218445E+02  0.43400734671E+02  0.00000000000E+00 0.  1.
         11    1    3    3    0    0  0.43952251691E+01  0.20085285014E+01 -0.55249833099E+01  0.73401384091E+01  0.51100000000E-03 0. -1.
        -11    1    3    3    0    0 -0.16762146580E+01  0.33615848798E+01  0.75871440430E+00  0.38321790527E+01  0.51100000000E-03 0.  1.
        -12    1    3    3    0    0  0.26681428102E+02  0.12029714090E+02 -0.22000949540E+02  0.36614947867E+02  0.00000000000E+00 0.  1.
</event>
<event>
 7    1  0.3884463E-009  0.4778727E+02  0.7816164E-02  0.1312668E+00
        -11   -1    0    0    0    0  0.00000000000E+00  0.00000000000E+00  0.45593999997E+02  0.45594000000E+02  0.51100000000E-03 0. -1.
         11   -1    0    0    0    0 -0.00000000000E+00 -0.00000000000E+00 -0.45593999997E+02  0.45594000000E+02  0.51100000000E-03 0.  1.
    9900012    2    1    2    0    0 -0.56288648117E+01  0.17852344261E+02  0.39156519140E+02  0.47787270676E+02  0.19999998322E+02 0.  0.
        -12    1    1    2    0    0  0.56288648117E+01 -0.17852344261E+02 -0.39156519140E+02  0.43400729324E+02  0.00000000000E+00 0.  1.
         11    1    3    3    0    0 -0.26913522986E+01  0.12128794924E+02  0.18090471506E+02  0.21945755925E+02  0.51100000000E-03 0. -1.
        -11    1    3    3    0    0 -0.74765915288E+01  0.34701137283E+01  0.18294111553E+02  0.20065284149E+02  0.51100000000E-03 0.  1.
         12    1    3    3    0    0  0.45390790156E+01  0.22534356078E+01  0.27719360801E+01  0.57762306031E+01  0.00000000000E+00 0. -1.
</event>
<event>
 7    1  0.3884463E-009  0.4778727E+02  0.7816164E-02  0.1312668E+00
        -11   -1    0    0    0    0  0.00000000000E+00  0.00000000000E+00  0.45593999997E+02  0.45594000000E+02  0.51100000000E-03 0. -1.
         11   -1    0    0    0    0 -0.00000000000E+00 -0.00000000000E+00 -0.45593999997E+02  0.45594000000E+02  0.51100000000E-03 0.  1.
    9900012    2    1    2    0    0 -0.24865249403E+02 -0.34467080802E+02 -0.87956424523E+01  0.47787267137E+02  0.19999982184E+02 0.  0.
        -12    1    1    2    0    0  0.24865249403E+02  0.34467080802E+02  0.87956424523E+01  0.43400732863E+02  0.00000000000E+00 0.  1.
         11    1    3    3    0    0 -0.48807301878E+01 -0.13299202022E+02  0.21297702963E+01  0.14325718947E+02  0.51100000000E-03 0. -1.
        -11    1    3    3    0    0 -0.60522628637E+01 -0.83980876738E+01  0.20292156227E+01  0.10548719290E+02  0.51100000000E-03 0.  1.
        -12    1    3    3    0    0 -0.13932256352E+02 -0.12769791107E+02 -0.12954628371E+02  0.22912828900E+02  0.00000000000E+00 0.  1.
</event>
<event>
 7    1  0.3884463E-009  0.4778727E+02  0.7816164E-02  0.1312668E+00
        -11   -1    0    0    0    0  0.00000000000E+00  0.00000000000E+00  0.45593999997E+02  0.45594000000E+02  0.51100000000E-03 0. -1.
         11   -1    0    0    0    0 -0.00000000000E+00 -0.00000000000E+00 -0.45593999997E+02  0.45594000000E+02  0.51100000000E-03 0.  1.
    9900012    2    1    2    0    0 -0.24740304171E+02 -0.14544499922E+02  0.32557612606E+02  0.47787271123E+02  0.20000000358E+02 0.  0.
        -12    1    1    2    0    0  0.24740304171E+02  0.14544499922E+02 -0.32557612606E+02  0.43400728877E+02  0.00000000000E+00 0.  1.
         11    1    3    3    0    0 -0.13609184254E+02 -0.50566574660E+01  0.82662928161E+01  0.16706623776E+02  0.51100000000E-03 0. -1.
        -11    1    3    3    0    0 -0.10292083708E+02 -0.43897245180E+00  0.12894784254E+02  0.16504397750E+02  0.51100000000E-03 0.  1.
         12    1    3    3    0    0 -0.83903620847E+00 -0.90488700040E+01  0.11396535536E+02  0.14576249597E+02  0.00000000000E+00 0. -1.
</event>
<event>
 7    1  0.3884463E-009  0.4778729E+02  0.7816164E-02  0.1312668E+00
        -11   -1    0    0    0    0  0.00000000000E+00  0.00000000000E+00  0.45593999997E+02  0.45594000000E+02  0.51100000000E-03 0. -1.
         11   -1    0    0    0    0 -0.00000000000E+00 -0.00000000000E+00 -0.45593999997E+02  0.45594000000E+02  0.51100000000E-03 0.  1.
    9900012    2    1    2    0    0 -0.31448478082E+02 -0.29452286826E+02  0.52132133344E+01  0.47787290718E+02  0.20000089698E+02 0.  0.
        -12    1    1    2    0    0  0.31448478082E+02  0.29452286826E+02 -0.52132133344E+01  0.43400709282E+02  0.00000000000E+00 0.  1.
         11    1    3    3    0    0 -0.19909528408E+02 -0.73867050906E+01  0.39741179872E+01  0.21604313171E+02  0.51100000000E-03 0. -1.
        -11    1    3    3    0    0 -0.87118086492E+01 -0.13226055470E+02 -0.27622471871E+01  0.16076509665E+02  0.51100000000E-03 0.  1.
        -12    1    3    3    0    0 -0.28271410242E+01 -0.88395262652E+01  0.40013425343E+01  0.10106467881E+02  0.00000000000E+00 0.  1.
</event>
<event>
 7    1  0.3884463E-009  0.4778727E+02  0.7816164E-02  0.1312668E+00
        -11   -1    0    0    0    0  0.00000000000E+00  0.00000000000E+00  0.45593999997E+02  0.45594000000E+02  0.51100000000E-03 0.  1.
         11   -1    0    0    0    0 -0.00000000000E+00 -0.00000000000E+00 -0.45593999997E+02  0.45594000000E+02  0.51100000000E-03 0. -1.
    9900012    2    1    2    0    0  0.17203126792E+01  0.93273672623E+01 -0.42351667920E+02  0.47787273838E+02  0.20000012736E+02 0.  0.
        -12    1    1    2    0    0 -0.17203126792E+01 -0.93273672623E+01  0.42351667920E+02  0.43400726162E+02  0.00000000000E+00 0.  1.
         11    1    3    3    0    0  0.17215354399E+01  0.17365909027E+01 -0.16386067013E+02  0.16567517154E+02  0.51100000000E-03 0. -1.
        -11    1    3    3    0    0  0.12366394592E+01 -0.46624402990E+01 -0.95376030508E+01  0.10688007247E+02  0.51100000000E-03 0.  1.
         12    1    3    3    0    0 -0.12378622199E+01  0.12253216659E+02 -0.16427997856E+02  0.20531749437E+02  0.00000000000E+00 0. -1.
</event>
<event>
 7    1  0.3884463E-009  0.4778727E+02  0.7816164E-02  0.1312668E+00
        -11   -1    0    0    0    0  0.00000000000E+00  0.00000000000E+00  0.45593999997E+02  0.45594000000E+02  0.51100000000E-03 0.  1.
         11   -1    0    0    0    0 -0.00000000000E+00 -0.00000000000E+00 -0.45593999997E+02  0.45594000000E+02  0.51100000000E-03 0. -1.
    9900012    2    1    2    0    0  0.42778564787E+02  0.29874130788E+01 -0.66852889895E+01  0.47787270386E+02  0.19999996997E+02 0.  0.
        -12    1    1    2    0    0 -0.42778564787E+02 -0.29874130788E+01  0.66852889895E+01  0.43400729614E+02  0.00000000000E+00 0.  1.
         11    1    3    3    0    0  0.17472474139E+02 -0.34419393114E+01 -0.45547042326E+01  0.18381502378E+02  0.51100000000E-03 0. -1.
        -11    1    3    3    0    0  0.24349183321E+02  0.23690277291E+01 -0.40785477237E+01  0.24801805833E+02  0.51100000000E-03 0.  1.
        -12    1    3    3    0    0  0.95690732702E+00  0.40603246611E+01  0.19479629668E+01  0.46039621747E+01  0.00000000000E+00 0.  1.
</event>
<event>
 7    1  0.3884463E-009  0.4778727E+02  0.7816164E-02  0.1312668E+00
        -11   -1    0    0    0    0  0.00000000000E+00  0.00000000000E+00  0.45593999997E+02  0.45594000000E+02  0.51100000000E-03 0.  1.
         11   -1    0    0    0    0 -0.00000000000E+00 -0.00000000000E+00 -0.45593999997E+02  0.45594000000E+02  0.51100000000E-03 0. -1.
    9900012    2    1    2    0    0 -0.34227037094E+02  0.23284239471E+00 -0.26684817452E+02  0.47787265372E+02  0.19999974136E+02 0.  0.
        -12    1    1    2    0    0  0.34227037094E+02 -0.23284239471E+00  0.26684817452E+02  0.43400734628E+02  0.00000000000E+00 0.  1.
         11    1    3    3    0    0  0.14331881816E+01 -0.18067235878E+01 -0.18938904468E+01  0.29841413794E+01  0.51100000000E-03 0. -1.
        -11    1    3    3    0    0 -0.77134791868E+01 -0.29774635583E+01 -0.23028565953E+01  0.85829015587E+01  0.51100000000E-03 0.  1.
         12    1    3    3    0    0 -0.27946746089E+02  0.50170295408E+01 -0.22488070410E+02  0.36220222434E+02  0.00000000000E+00 0. -1.
</event>
<event>
 7    1  0.3884463E-009  0.4778728E+02  0.7816164E-02  0.1312668E+00
        -11   -1    0    0    0    0  0.00000000000E+00  0.00000000000E+00  0.45593999997E+02  0.45594000000E+02  0.51100000000E-03 0.  1.
         11   -1    0    0    0    0 -0.00000000000E+00 -0.00000000000E+00 -0.45593999997E+02  0.45594000000E+02  0.51100000000E-03 0. -1.
    9900012    2    1    2    0    0  0.30583146405E+02  0.17456664023E+02 -0.25368460504E+02  0.47787277066E+02  0.20000027456E+02 0.  0.
        -12    1    1    2    0    0 -0.30583146405E+02 -0.17456664023E+02  0.25368460504E+02  0.43400722934E+02  0.00000000000E+00 0.  1.
         11    1    3    3    0    0  0.27734742716E+01  0.49500539349E+01 -0.49789304051E+01  0.75488371113E+01  0.51100000000E-03 0. -1.
        -11    1    3    3    0    0  0.10905921409E+02 -0.31658637401E+01 -0.91985393409E+01  0.14614203409E+02  0.51100000000E-03 0.  1.
         12    1    3    3    0    0  0.16903750724E+02  0.15672473828E+02 -0.11190990758E+02  0.25624236546E+02  0.00000000000E+00 0. -1.
</event>
<event>
 7    1  0.3884463E-009  0.4778728E+02  0.7816164E-02  0.1312668E+00
        -11   -1    0    0    0    0  0.00000000000E+00  0.00000000000E+00  0.45593999997E+02  0.45594000000E+02  0.51100000000E-03 0. -1.
         11   -1    0    0    0    0 -0.00000000000E+00 -0.00000000000E+00 -0.45593999997E+02  0.45594000000E+02  0.51100000000E-03 0.  1.
    9900012    2    1    2    0    0  0.18845206441E+02  0.30635567493E+02  0.24288744746E+02  0.47787275090E+02  0.20000018444E+02 0.  0.
        -12    1    1    2    0    0 -0.18845206441E+02 -0.30635567493E+02 -0.24288744746E+02  0.43400724910E+02  0.00000000000E+00 0.  1.
         11    1    3    3    0    0  0.22563888913E+01  0.83088074498E-01 -0.78482991020E+00  0.23904293979E+01  0.51100000000E-03 0. -1.
        -11    1    3    3    0    0  0.92433974708E+01  0.78105658005E+01  0.21687382179E+01  0.12294257222E+02  0.51100000000E-03 0.  1.
        -12    1    3    3    0    0  0.73454200791E+01  0.22741913618E+02  0.22904836438E+02  0.33102588470E+02  0.00000000000E+00 0.  1.
</event>
<event>
 7    1  0.3884463E-009  0.4778727E+02  0.7816164E-02  0.1312668E+00
        -11   -1    0    0    0    0  0.00000000000E+00  0.00000000000E+00  0.45593999997E+02  0.45594000000E+02  0.51100000000E-03 0.  1.
         11   -1    0    0    0    0 -0.00000000000E+00 -0.00000000000E+00 -0.45593999997E+02  0.45594000000E+02  0.51100000000E-03 0. -1.
    9900012    2    1    2    0    0 -0.11976307756E+02 -0.26244359823E+02 -0.32425687916E+02  0.47787267208E+02  0.19999982510E+02 0.  0.
        -12    1    1    2    0    0  0.11976307756E+02  0.26244359823E+02  0.32425687916E+02  0.43400732792E+02  0.00000000000E+00 0.  1.
         11    1    3    3    0    0 -0.74107545921E+01 -0.35361823401E+01 -0.78716227840E+01  0.11374810534E+02  0.51100000000E-03 0. -1.
        -11    1    3    3    0    0  0.17704865468E+00  0.77492338810E+00  0.10702868271E+01  0.13331791466E+01  0.51100000000E-03 0.  1.
         12    1    3    3    0    0 -0.47426018191E+01 -0.23483100871E+02 -0.25624351959E+02  0.35079277528E+02  0.00000000000E+00 0. -1.
</event>
<event>
 7    1  0.3884463E-009  0.4778727E+02  0.7816164E-02  0.1312668E+00
        -11   -1    0    0    0    0  0.00000000000E+00  0.00000000000E+00  0.45593999997E+02  0.45594000000E+02  0.51100000000E-03 0.  1.
         11   -1    0    0    0    0 -0.00000000000E+00 -0.00000000000E+00 -0.45593999997E+02  0.45594000000E+02  0.51100000000E-03 0. -1.
    9900012    2    1    2    0    0  0.65805916502E+01  0.17849783084E+02 -0.39009028986E+02  0.47787270916E+02  0.19999999414E+02 0.  0.
        -12    1    1    2    0    0 -0.65805916502E+01 -0.17849783084E+02  0.39009028986E+02  0.43400729084E+02  0.00000000000E+00 0.  1.
         11    1    3    3    0    0 -0.17906566966E+01  0.83789910434E+00 -0.11196149345E+02  0.11369357358E+02  0.51100000000E-03 0. -1.
        -11    1    3    3    0    0 -0.35813288557E+01  0.63122730673E+01 -0.65027007469E+01  0.97445279472E+01  0.51100000000E-03 0.  1.
        -12    1    3    3    0    0  0.11952577202E+02  0.10699610912E+02 -0.21310178894E+02  0.26673385611E+02  0.00000000000E+00 0.  1.
</event>
<event>
 7    1  0.3884463E-009  0.4778727E+02  0.7816164E-02  0.1312668E+00
        -11   -1    0    0    0    0  0.00000000000E+00  0.00000000000E+00  0.45593999997E+02  0.45594000000E+02  0.51100000000E-03 0.  1.
         11   -1    0    0    0    0 -0.00000000000E+00 -0.00000000000E+00 -0.45593999997E+02  0.45594000000E+02  0.51100000000E-03 0. -1.
    9900012    2    1    2    0    0 -0.40458539351E+02  0.24802963616E+01 -0.15510579715E+02  0.47787270057E+02  0.19999995499E+02 0.  0.
        -12    1    1    2    0    0  0.40458539351E+02 -0.24802963616E+01  0.15510579715E+02  0.43400729943E+02  0.00000000000E+00 0.  1.
         11    1    3    3    0    0 -0.12310377768E+02 -0.52939153403E+01 -0.51171331958E+01  0.14344197183E+02  0.51100000000E-03 0. -1.
        -11    1    3    3    0    0 -0.68917769647E+01 -0.22853908291E-02 -0.81869943947E+01  0.10701564018E+02  0.51100000000E-03 0.  1.
         12    1    3    3    0    0 -0.21256384618E+02  0.77764970927E+01 -0.22064521245E+01  0.22741508856E+02  0.00000000000E+00 0. -1.
</event>
<event>
 7    1  0.3884463E-009  0.4778727E+02  0.7816164E-02  0.1312668E+00
        -11   -1    0    0    0    0  0.00000000000E+00  0.00000000000E+00  0.45593999997E+02  0.45594000000E+02  0.51100000000E-03 0.  1.
         11   -1    0    0    0    0 -0.00000000000E+00 -0.00000000000E+00 -0.45593999997E+02  0.45594000000E+02  0.51100000000E-03 0. -1.
    9900012    2    1    2    0    0 -0.44245449412E+01 -0.38266931885E+02 -0.19992215573E+02  0.47787270082E+02  0.19999995614E+02 0.  0.
        -12    1    1    2    0    0  0.44245449412E+01  0.38266931885E+02  0.19992215573E+02  0.43400729918E+02  0.00000000000E+00 0.  1.
         11    1    3    3    0    0  0.71329919608E+00 -0.88345592196E+01  0.15889615730E+01  0.90046116790E+01  0.51100000000E-03 0.  1.
        -11    1    3    3    0    0  0.32299322053E+01 -0.27228917194E+01 -0.31494014324E+01  0.52692818306E+01  0.51100000000E-03 0. -1.
         12    1    3    3    0    0 -0.83677763426E+01 -0.26709480946E+02 -0.18431775714E+02  0.33513376573E+02  0.00000000000E+00 0. -1.
</event>
<event>
 7    1  0.3884463E-009  0.4778727E+02  0.7816164E-02  0.1312668E+00
        -11   -1    0    0    0    0  0.00000000000E+00  0.00000000000E+00  0.45593999997E+02  0.45594000000E+02  0.51100000000E-03 0. -1.
         11   -1    0    0    0    0 -0.00000000000E+00 -0.00000000000E+00 -0.45593999997E+02  0.45594000000E+02  0.51100000000E-03 0.  1.
    9900012    2    1    2    0    0  0.15323344124E+02  0.39877757145E+02 -0.76539782987E+01  0.47787265284E+02  0.19999973736E+02 0.  0.
        -12    1    1    2    0    0 -0.15323344124E+02 -0.39877757145E+02  0.76539782987E+01  0.43400734716E+02  0.00000000000E+00 0.  1.
         11    1    3    3    0    0  0.74892463599E+01  0.17863499129E+02  0.54254367323E+01  0.20115386552E+02  0.51100000000E-03 0. -1.
        -11    1    3    3    0    0 -0.21422417800E-02  0.88337863116E+01 -0.30333353155E+01  0.93400700525E+01  0.51100000000E-03 0.  1.
         12    1    3    3    0    0  0.78362400055E+01  0.13180471705E+02 -0.10046079716E+02  0.18331808679E+02  0.00000000000E+00 0. -1.
</event>
<event>
 7    1  0.3884463E-009  0.4778724E+02  0.7816164E-02  0.1312668E+00
        -11   -1    0    0    0    0  0.00000000000E+00  0.00000000000E+00  0.45593999997E+02  0.45594000000E+02  0.51100000000E-03 0. -1.
         11   -1    0    0    0    0 -0.00000000000E+00 -0.00000000000E+00 -0.45593999997E+02  0.45594000000E+02  0.51100000000E-03 0.  1.
    9900012    2    1    2    0    0 -0.25829991380E+02  0.34765016908E+02  0.27984770200E+01  0.47787235849E+02  0.19999839528E+02 0.  0.
        -12    1    1    2    0    0  0.25829991380E+02 -0.34765016908E+02 -0.27984770200E+01  0.43400764151E+02  0.00000000000E+00 0.  1.
         11    1    3    3    0    0  0.59268639204E+00  0.31307242876E+01 -0.79058442990E+00  0.32829461961E+01  0.51100000000E-03 0. -1.
        -11    1    3    3    0    0 -0.20586478534E+02  0.32435226080E+02  0.38389639711E+01  0.38608090265E+02  0.51100000000E-03 0.  1.
        -12    1    3    3    0    0 -0.58361992379E+01 -0.80093345960E+00 -0.24990252117E+00  0.58961993878E+01  0.00000000000E+00 0.  1.
</event>
<event>
 7    1  0.3884463E-009  0.4778727E+02  0.7816164E-02  0.1312668E+00
        -11   -1    0    0    0    0  0.00000000000E+00  0.00000000000E+00  0.45593999997E+02  0.45594000000E+02  0.51100000000E-03 0.  1.
         11   -1    0    0    0    0 -0.00000000000E+00 -0.00000000000E+00 -0.45593999997E+02  0.45594000000E+02  0.51100000000E-03 0. -1.
    9900012    2    1    2    0    0  0.19225374179E+02  0.15310681688E+02 -0.35771376182E+02  0.47787270283E+02  0.19999996528E+02 0.  0.
        -12    1    1    2    0    0 -0.19225374179E+02 -0.15310681688E+02  0.35771376182E+02  0.43400729717E+02  0.00000000000E+00 0.  1.
         11    1    3    3    0    0  0.39222615576E+01  0.66656033939E+01 -0.18291791080E+02  0.19859607889E+02  0.51100000000E-03 0. -1.
        -11    1    3    3    0    0  0.12573782273E+02  0.11853212851E+02 -0.15727847943E+02  0.23365869483E+02  0.51100000000E-03 0.  1.
         12    1    3    3    0    0  0.27293303479E+01 -0.32081345570E+01 -0.17517371586E+01  0.45617929104E+01  0.00000000000E+00 0. -1.
</event>
<event>
 7    1  0.3884463E-009  0.4778727E+02  0.7816164E-02  0.1312668E+00
        -11   -1    0    0    0    0  0.00000000000E+00  0.00000000000E+00  0.45593999997E+02  0.45594000000E+02  0.51100000000E-03 0. -1.
         11   -1    0    0    0    0 -0.00000000000E+00 -0.00000000000E+00 -0.45593999997E+02  0.45594000000E+02  0.51100000000E-03 0.  1.
    9900012    2    1    2    0    0 -0.33836751075E+02 -0.14495500604E+02  0.22990824648E+02  0.47787270985E+02  0.19999999727E+02 0.  0.
        -12    1    1    2    0    0  0.33836751075E+02  0.14495500604E+02 -0.22990824648E+02  0.43400729015E+02  0.00000000000E+00 0.  1.
         11    1    3    3    0    0 -0.22117037517E+02 -0.17009896021E+01  0.10159665209E+02  0.24398268619E+02  0.51100000000E-03 0. -1.
        -11    1    3    3    0    0 -0.85720871207E+01 -0.46518590126E+01  0.29185668601E+01  0.10180299733E+02  0.51100000000E-03 0.  1.
        -12    1    3    3    0    0 -0.31476264369E+01 -0.81426519893E+01  0.99125925791E+01  0.13208702633E+02  0.00000000000E+00 0.  1.
</event>
<event>
 7    1  0.3884463E-009  0.4778727E+02  0.7816164E-02  0.1312668E+00
        -11   -1    0    0    0    0  0.00000000000E+00  0.00000000000E+00  0.45593999997E+02  0.45594000000E+02  0.51100000000E-03 0. -1.
         11   -1    0    0    0    0 -0.00000000000E+00 -0.00000000000E+00 -0.45593999997E+02  0.45594000000E+02  0.51100000000E-03 0.  1.
    9900012    2    1    2    0    0  0.16736200118E+02  0.88337327409E+01  0.39057496186E+02  0.47787271471E+02  0.20000001947E+02 0.  0.
        -12    1    1    2    0    0 -0.16736200118E+02 -0.88337327409E+01 -0.39057496186E+02  0.43400728529E+02  0.00000000000E+00 0.  1.
         11    1    3    3    0    0  0.52464232076E+01  0.50350389975E+01  0.10068792302E+02  0.12420030308E+02  0.51100000000E-03 0. -1.
        -11    1    3    3    0    0  0.10452231686E+02  0.45806603811E+01  0.71006051165E+01  0.13440617174E+02  0.51100000000E-03 0.  1.
         12    1    3    3    0    0  0.10375452247E+01 -0.78196663768E+00  0.21888098767E+02  0.21926623989E+02  0.00000000000E+00 0. -1.
</event>
<event>
 7    1  0.3884463E-009  0.4778726E+02  0.7816164E-02  0.1312668E+00
        -11   -1    0    0    0    0  0.00000000000E+00  0.00000000000E+00  0.45593999997E+02  0.45594000000E+02  0.51100000000E-03 0.  1.
         11   -1    0    0    0    0 -0.00000000000E+00 -0.00000000000E+00 -0.45593999997E+02  0.45594000000E+02  0.51100000000E-03 0. -1.
    9900012    2    1    2    0    0  0.30967736999E+02 -0.29170589944E+02  0.85848905453E+01  0.47787258092E+02  0.19999940943E+02 0.  0.
        -12    1    1    2    0    0 -0.30967736999E+02  0.29170589944E+02 -0.85848905453E+01  0.43400741908E+02  0.00000000000E+00 0.  1.
         11    1    3    3    0    0  0.17447864828E+02 -0.10968409831E+02 -0.16324347995E+01  0.20673626796E+02  0.51100000000E-03 0. -1.
        -11    1    3    3    0    0  0.13775271920E+02 -0.10341693339E+02  0.75716731355E+01  0.18815923361E+02  0.51100000000E-03 0.  1.
         12    1    3    3    0    0 -0.25539974916E+00 -0.78604867735E+01  0.26456522093E+01  0.82977079342E+01  0.00000000000E+00 0. -1.
</event>
<event>
 7    1  0.3884463E-009  0.4778727E+02  0.7816164E-02  0.1312668E+00
        -11   -1    0    0    0    0  0.00000000000E+00  0.00000000000E+00  0.45593999997E+02  0.45594000000E+02  0.51100000000E-03 0.  1.
         11   -1    0    0    0    0 -0.00000000000E+00 -0.00000000000E+00 -0.45593999997E+02  0.45594000000E+02  0.51100000000E-03 0. -1.
    9900012    2    1    2    0    0  0.21388990160E+02  0.36703907947E+02 -0.88858069628E+01  0.47787270467E+02  0.19999997368E+02 0.  0.
        -12    1    1    2    0    0 -0.21388990160E+02 -0.36703907947E+02  0.88858069628E+01  0.43400729533E+02  0.00000000000E+00 0.  1.
         11    1    3    3    0    0  0.13574991326E+02  0.23545315063E+02 -0.28042105915E+01  0.27322625207E+02  0.51100000000E-03 0. -1.
        -11    1    3    3    0    0  0.29705753642E+01  0.38133552955E+01  0.37063253713E+01  0.60912104399E+01  0.51100000000E-03 0.  1.
        -12    1    3    3    0    0  0.48434234695E+01  0.93452375880E+01 -0.97879217426E+01  0.14373434820E+02  0.00000000000E+00 0.  1.
</event>
<event>
 7    1  0.3884463E-009  0.4778727E+02  0.7816164E-02  0.1312668E+00
        -11   -1    0    0    0    0  0.00000000000E+00  0.00000000000E+00  0.45593999997E+02  0.45594000000E+02  0.51100000000E-03 0. -1.
         11   -1    0    0    0    0 -0.00000000000E+00 -0.00000000000E+00 -0.45593999997E+02  0.45594000000E+02  0.51100000000E-03 0.  1.
    9900012    2    1    2    0    0 -0.16761164673E+02  0.18742136130E+02  0.35375399742E+02  0.47787271725E+02  0.20000003103E+02 0.  0.
        -12    1    1    2    0    0  0.16761164673E+02 -0.18742136130E+02 -0.35375399742E+02  0.43400728275E+02  0.00000000000E+00 0.  1.
         11    1    3    3    0    0 -0.93057199050E+00  0.37190748866E+01  0.15641509224E+02  0.16104480535E+02  0.51100000000E-03 0. -1.
        -11    1    3    3    0    0 -0.64895971971E+01  0.52310523934E+00  0.98382820711E+01  0.11797470290E+02  0.51100000000E-03 0.  1.
         12    1    3    3    0    0 -0.93409954852E+01  0.14499956004E+02  0.98956084473E+01  0.19885320900E+02  0.00000000000E+00 0. -1.
</event>
<event>
 7    1  0.3884463E-009  0.4778727E+02  0.7816164E-02  0.1312668E+00
        -11   -1    0    0    0    0  0.00000000000E+00  0.00000000000E+00  0.45593999997E+02  0.45594000000E+02  0.51100000000E-03 0.  1.
         11   -1    0    0    0    0 -0.00000000000E+00 -0.00000000000E+00 -0.45593999997E+02  0.45594000000E+02  0.51100000000E-03 0. -1.
    9900012    2    1    2    0    0  0.14143518961E+02 -0.34544029355E+02 -0.22142595891E+02  0.47787266763E+02  0.19999980481E+02 0.  0.
        -12    1    1    2    0    0 -0.14143518961E+02  0.34544029355E+02  0.22142595891E+02  0.43400733237E+02  0.00000000000E+00 0.  1.
         11    1    3    3    0    0  0.67383253224E+01 -0.17607096921E+02 -0.66999136799E+01  0.20007591902E+02  0.51100000000E-03 0. -1.
        -11    1    3    3    0    0  0.66479428506E+01 -0.48531457269E+01 -0.95350173464E-01  0.82314797885E+01  0.51100000000E-03 0.  1.
         12    1    3    3    0    0  0.75725078826E+00 -0.12083786707E+02 -0.15347332037E+02  0.19548195073E+02  0.00000000000E+00 0. -1.
</event>
<event>
 7    1  0.3884463E-009  0.4778727E+02  0.7816164E-02  0.1312668E+00
        -11   -1    0    0    0    0  0.00000000000E+00  0.00000000000E+00  0.45593999997E+02  0.45594000000E+02  0.51100000000E-03 0. -1.
         11   -1    0    0    0    0 -0.00000000000E+00 -0.00000000000E+00 -0.45593999997E+02  0.45594000000E+02  0.51100000000E-03 0.  1.
    9900012    2    1    2    0    0 -0.14002889852E+02  0.39936206363E+02  0.96250606301E+01  0.47787270801E+02  0.19999998889E+02 0.  0.
        -12    1    1    2    0    0  0.14002889852E+02 -0.39936206363E+02 -0.96250606301E+01  0.43400729199E+02  0.00000000000E+00 0.  1.
         11    1    3    3    0    0 -0.24188983767E+01  0.11582609413E+00  0.15047766979E+01  0.28511117502E+01  0.51100000000E-03 0. -1.
        -11    1    3    3    0    0 -0.15626550681E+01  0.14862515035E+02 -0.39492067456E+01  0.15457440868E+02  0.51100000000E-03 0.  1.
         12    1    3    3    0    0 -0.10021336408E+02  0.24957865234E+02  0.12069490678E+02  0.29478718182E+02  0.00000000000E+00 0. -1.
</event>
<event>
 7    1  0.3884463E-009  0.4778727E+02  0.7816164E-02  0.1312668E+00
        -11   -1    0    0    0    0  0.00000000000E+00  0.00000000000E+00  0.45593999997E+02  0.45594000000E+02  0.51100000000E-03 0.  1.
         11   -1    0    0    0    0 -0.00000000000E+00 -0.00000000000E+00 -0.45593999997E+02  0.45594000000E+02  0.51100000000E-03 0. -1.
    9900012    2    1    2    0    0  0.55794031678E+01 -0.15894597281E+02 -0.39998187329E+02  0.47787274752E+02  0.20000016904E+02 0.  0.
        -12    1    1    2    0    0 -0.55794031678E+01  0.15894597281E+02  0.39998187329E+02  0.43400725248E+02  0.00000000000E+00 0.  1.
         11    1    3    3    0    0  0.52319523282E+01 -0.81547834175E+01 -0.18608756691E+02  0.20979981973E+02  0.51100000000E-03 0. -1.
        -11    1    3    3    0    0  0.70668231716E+01 -0.22444527611E+01 -0.86700233290E+01  0.11408192789E+02  0.51100000000E-03 0.  1.
         12    1    3    3    0    0 -0.67193723319E+01 -0.54953611019E+01 -0.12719407309E+02  0.15399099989E+02  0.00000000000E+00 0. -1.
</event>
<event>
 7    1  0.3884463E-009  0.4778728E+02  0.7816164E-02  0.1312668E+00
        -11   -1    0    0    0    0  0.00000000000E+00  0.00000000000E+00  0.45593999997E+02  0.45594000000E+02  0.51100000000E-03 0. -1.
         11   -1    0    0    0    0 -0.00000000000E+00 -0.00000000000E+00 -0.45593999997E+02  0.45594000000E+02  0.51100000000E-03 0.  1.
    9900012    2    1    2    0    0  0.41445167902E+00  0.36350882084E+02  0.23707895723E+02  0.47787277447E+02  0.20000029193E+02 0.  0.
        -12    1    1    2    0    0 -0.41445167902E+00 -0.36350882084E+02 -0.23707895723E+02  0.43400722553E+02  0.00000000000E+00 0.  1.
         11    1    3    3    0    0  0.47112527138E+01  0.85551525450E+01  0.37357845002E+01  0.10456702314E+02  0.51100000000E-03 0. -1.
        -11    1    3    3    0    0  0.26550824921E+01  0.41300645949E+01 -0.93293124179E+00  0.49977252386E+01  0.51100000000E-03 0.  1.
        -12    1    3    3    0    0 -0.69518835269E+01  0.23665664944E+02  0.20905042465E+02  0.32332849894E+02  0.00000000000E+00 0.  1.
</event>
<event>
 7    1  0.3884463E-009  0.4778727E+02  0.7816164E-02  0.1312668E+00
        -11   -1    0    0    0    0  0.00000000000E+00  0.00000000000E+00  0.45593999997E+02  0.45594000000E+02  0.51100000000E-03 0. -1.
         11   -1    0    0    0    0 -0.00000000000E+00 -0.00000000000E+00 -0.45593999997E+02  0.45594000000E+02  0.51100000000E-03 0.  1.
    9900012    2    1    2    0    0  0.38081718554E+02  0.61124275697E+01  0.19900859181E+02  0.47787271262E+02  0.20000000991E+02 0.  0.
        -12    1    1    2    0    0 -0.38081718554E+02 -0.61124275697E+01 -0.19900859181E+02  0.43400728738E+02  0.00000000000E+00 0.  1.
         11    1    3    3    0    0  0.31514505819E+02  0.61970257797E+01  0.11423300499E+02  0.34088986492E+02  0.51100000000E-03 0. -1.
        -11    1    3    3    0    0  0.76238699191E+01  0.11096291517E+01  0.34822281302E+01  0.84546189984E+01  0.51100000000E-03 0.  1.
        -12    1    3    3    0    0 -0.10566571836E+01 -0.11942273617E+01  0.49953305520E+01  0.52436657711E+01  0.00000000000E+00 0.  1.
</event>
<event>
 7    1  0.3884463E-009  0.4778730E+02  0.7816164E-02  0.1312668E+00
        -11   -1    0    0    0    0  0.00000000000E+00  0.00000000000E+00  0.45593999997E+02  0.45594000000E+02  0.51100000000E-03 0.  1.
         11   -1    0    0    0    0 -0.00000000000E+00 -0.00000000000E+00 -0.45593999997E+02  0.45594000000E+02  0.51100000000E-03 0. -1.
    9900012    2    1    2    0    0  0.41086872383E+02  0.10940253104E+02 -0.87063375288E+01  0.47787302616E+02  0.20000143949E+02 0.  0.
        -12    1    1    2    0    0 -0.41086872383E+02 -0.10940253104E+02  0.87063375288E+01  0.43400697384E+02  0.00000000000E+00 0.  1.
         11    1    3    3    0    0  0.11984064610E+02  0.62805934847E+01 -0.36205358414E+00  0.13534945222E+02  0.51100000000E-03 0. -1.
        -11    1    3    3    0    0  0.96049164295E+01 -0.38511663356E+00  0.42376998423E+01  0.10505276515E+02  0.51100000000E-03 0.  1.
         12    1    3    3    0    0  0.19497891343E+02  0.50447762531E+01 -0.12581983787E+02  0.23747080879E+02  0.00000000000E+00 0. -1.
</event>
<event>
 7    1  0.3884463E-009  0.4778727E+02  0.7816164E-02  0.1312668E+00
        -11   -1    0    0    0    0  0.00000000000E+00  0.00000000000E+00  0.45593999997E+02  0.45594000000E+02  0.51100000000E-03 0. -1.
         11   -1    0    0    0    0 -0.00000000000E+00 -0.00000000000E+00 -0.45593999997E+02  0.45594000000E+02  0.51100000000E-03 0.  1.
    9900012    2    1    2    0    0 -0.57397936568E+01 -0.33657199185E+02  0.26793108301E+02  0.47787274883E+02  0.20000017503E+02 0.  0.
        -12    1    1    2    0    0  0.57397936568E+01  0.33657199185E+02 -0.26793108301E+02  0.43400725117E+02  0.00000000000E+00 0.  1.
         11    1    3    3    0    0 -0.79704418194E+01 -0.31521047736E+02  0.22810800478E+02  0.39716961262E+02  0.51100000000E-03 0. -1.
        -11    1    3    3    0    0  0.15598042529E+01 -0.39338795908E+01  0.44019015664E+01  0.61061555502E+01  0.51100000000E-03 0.  1.
         12    1    3    3    0    0  0.67084390980E+00  0.17977281413E+01 -0.41959374287E+00  0.19641580717E+01  0.00000000000E+00 0. -1.
</event>
<event>
 7    1  0.3884463E-009  0.4778727E+02  0.7816164E-02  0.1312668E+00
        -11   -1    0    0    0    0  0.00000000000E+00  0.00000000000E+00  0.45593999997E+02  0.45594000000E+02  0.51100000000E-03 0. -1.
         11   -1    0    0    0    0 -0.00000000000E+00 -0.00000000000E+00 -0.45593999997E+02  0.45594000000E+02  0.51100000000E-03 0.  1.
    9900012    2    1    2    0    0 -0.19176365253E+02 -0.37660683754E+02 -0.98774293165E+01  0.47787266193E+02  0.19999977879E+02 0.  0.
        -12    1    1    2    0    0  0.19176365253E+02  0.37660683754E+02  0.98774293165E+01  0.43400733807E+02  0.00000000000E+00 0.  1.
         11    1    3    3    0    0  0.35311114143E+00 -0.45782270139E+01 -0.94780503106E-01  0.45928023770E+01  0.51100000000E-03 0.  1.
        -11    1    3    3    0    0 -0.12347331180E+02 -0.21090399990E+02  0.25262644770E+01  0.24569158950E+02  0.51100000000E-03 0. -1.
         12    1    3    3    0    0 -0.71821452138E+01 -0.11992056750E+02 -0.12308913290E+02  0.18625304866E+02  0.00000000000E+00 0. -1.
</event>
<event>
 7    1  0.3884463E-009  0.4778727E+02  0.7816164E-02  0.1312668E+00
        -11   -1    0    0    0    0  0.00000000000E+00  0.00000000000E+00  0.45593999997E+02  0.45594000000E+02  0.51100000000E-03 0. -1.
         11   -1    0    0    0    0 -0.00000000000E+00 -0.00000000000E+00 -0.45593999997E+02  0.45594000000E+02  0.51100000000E-03 0.  1.
    9900012    2    1    2    0    0  0.10640396328E+02  0.40893465614E+02  0.99060467793E+01  0.47787270436E+02  0.19999997225E+02 0.  0.
        -12    1    1    2    0    0 -0.10640396328E+02 -0.40893465614E+02 -0.99060467793E+01  0.43400729564E+02  0.00000000000E+00 0.  1.
         11    1    3    3    0    0  0.25474244211E+01 -0.15716917700E+00  0.13714471105E+01  0.28974024176E+01  0.51100000000E-03 0. -1.
        -11    1    3    3    0    0  0.35039020147E+01  0.13226146932E+01  0.23522560011E+01  0.44226403326E+01  0.51100000000E-03 0.  1.
         12    1    3    3    0    0  0.45890698918E+01  0.39728020097E+02  0.61823436676E+01  0.40467227686E+02  0.00000000000E+00 0. -1.
</event>
<event>
 7    1  0.3884463E-009  0.4778727E+02  0.7816164E-02  0.1312668E+00
        -11   -1    0    0    0    0  0.00000000000E+00  0.00000000000E+00  0.45593999997E+02  0.45594000000E+02  0.51100000000E-03 0. -1.
         11   -1    0    0    0    0 -0.00000000000E+00 -0.00000000000E+00 -0.45593999997E+02  0.45594000000E+02  0.51100000000E-03 0.  1.
    9900012    2    1    2    0    0  0.23601684508E+02  0.31693326258E+02  0.17947614213E+02  0.47787270779E+02  0.19999998791E+02 0.  0.
        -12    1    1    2    0    0 -0.23601684508E+02 -0.31693326258E+02 -0.17947614213E+02  0.43400729221E+02  0.00000000000E+00 0.  1.
         11    1    3    3    0    0  0.51417652808E+01  0.32541596188E+01  0.95277825812E+00  0.61591469943E+01  0.51100000000E-03 0. -1.
        -11    1    3    3    0    0  0.16370847210E+01 -0.20740487379E+01  0.32084378333E+01  0.41564165025E+01  0.51100000000E-03 0.  1.
         12    1    3    3    0    0  0.16822834506E+02  0.30513215377E+02  0.13786398122E+02  0.37471707283E+02  0.00000000000E+00 0. -1.
</event>
<event>
 7    1  0.3884463E-009  0.4778726E+02  0.7816164E-02  0.1312668E+00
        -11   -1    0    0    0    0  0.00000000000E+00  0.00000000000E+00  0.45593999997E+02  0.45594000000E+02  0.51100000000E-03 0.  1.
         11   -1    0    0    0    0 -0.00000000000E+00 -0.00000000000E+00 -0.45593999997E+02  0.45594000000E+02  0.51100000000E-03 0. -1.
    9900012    2    1    2    0    0 -0.38704819460E+02 -0.13264693883E+01 -0.19590847518E+02  0.47787264096E+02  0.19999968321E+02 0.  0.
        -12    1    1    2    0    0  0.38704819460E+02  0.13264693883E+01  0.19590847518E+02  0.43400735904E+02  0.00000000000E+00 0.  1.
         11    1    3    3    0    0 -0.10444212702E+02  0.19792668119E+01 -0.12331400274E+02  0.16280740433E+02  0.51100000000E-03 0. -1.
        -11    1    3    3    0    0  0.37166741633E+00 -0.12848816538E+01  0.96343526848E+00  0.16484129672E+01  0.51100000000E-03 0.  1.
         12    1    3    3    0    0 -0.28632274175E+02 -0.20208545464E+01 -0.82228825124E+01  0.29858110696E+02  0.00000000000E+00 0. -1.
</event>
<event>
 7    1  0.3884463E-009  0.4778727E+02  0.7816164E-02  0.1312668E+00
        -11   -1    0    0    0    0  0.00000000000E+00  0.00000000000E+00  0.45593999997E+02  0.45594000000E+02  0.51100000000E-03 0. -1.
         11   -1    0    0    0    0 -0.00000000000E+00 -0.00000000000E+00 -0.45593999997E+02  0.45594000000E+02  0.51100000000E-03 0.  1.
    9900012    2    1    2    0    0  0.19653559505E+02 -0.38417756189E+02 -0.46300267049E+01  0.47787267989E+02  0.19999986070E+02 0.  0.
        -12    1    1    2    0    0 -0.19653559505E+02  0.38417756189E+02  0.46300267049E+01  0.43400732011E+02  0.00000000000E+00 0.  1.
         11    1    3    3    0    0  0.55235019177E+01 -0.80011334563E+01 -0.56182039885E+01  0.11229043875E+02  0.51100000000E-03 0.  1.
        -11    1    3    3    0    0  0.32551848626E+01 -0.20323488148E+02 -0.38760083090E+01  0.20944303275E+02  0.51100000000E-03 0. -1.
         12    1    3    3    0    0  0.10874872725E+02 -0.10093134584E+02  0.48641855926E+01  0.15613920840E+02  0.00000000000E+00 0. -1.
</event>
<event>
 7    1  0.3884463E-009  0.4778727E+02  0.7816164E-02  0.1312668E+00
        -11   -1    0    0    0    0  0.00000000000E+00  0.00000000000E+00  0.45593999997E+02  0.45594000000E+02  0.51100000000E-03 0.  1.
         11   -1    0    0    0    0 -0.00000000000E+00 -0.00000000000E+00 -0.45593999997E+02  0.45594000000E+02  0.51100000000E-03 0. -1.
    9900012    2    1    2    0    0 -0.90236867393E+01 -0.91420485952E+01 -0.41456230148E+02  0.47787274281E+02  0.20000014756E+02 0.  0.
        -12    1    1    2    0    0  0.90236867393E+01  0.91420485952E+01  0.41456230148E+02  0.43400725719E+02  0.00000000000E+00 0.  1.
         11    1    3    3    0    0 -0.76437525757E+01 -0.64409216987E+01 -0.10343822676E+02  0.14384265486E+02  0.51100000000E-03 0. -1.
        -11    1    3    3    0    0 -0.16003697221E+01  0.55388306954E+00  0.38530519567E+00  0.17367872803E+01  0.51100000000E-03 0.  1.
         12    1    3    3    0    0  0.22043555840E+00 -0.32550099660E+01 -0.31497712668E+02  0.31666221515E+02  0.00000000000E+00 0. -1.
</event>
<event>
 7    1  0.5064443E-009  0.4778726E+02  0.7816164E-02  0.1312668E+00
        -11   -1    0    0    0    0  0.00000000000E+00  0.00000000000E+00  0.45593999997E+02  0.45594000000E+02  0.51100000000E-03 0. -1.
         11   -1    0    0    0    0 -0.00000000000E+00 -0.00000000000E+00 -0.45593999997E+02  0.45594000000E+02  0.51100000000E-03 0.  1.
    9900012    2    1    2    0    0  0.16515738516E+01 -0.12804943862E+02  0.41435850145E+02  0.47787263132E+02  0.19999963924E+02 0.  0.
        -12    1    1    2    0    0 -0.16515738516E+01  0.12804943862E+02 -0.41435850145E+02  0.43400736868E+02  0.00000000000E+00 0.  1.
         11    1    3    3    0    0 -0.35949670889E+01 -0.10860126406E+01  0.18403048721E+02  0.18782316532E+02  0.51100000000E-03 0. -1.
        -11    1    3    3    0    0  0.37285004343E+01 -0.86974878798E+01  0.23734624599E+02  0.25551524730E+02  0.51100000000E-03 0.  1.
        -12    1    3    3    0    0  0.15180405061E+01 -0.30214433412E+01 -0.70182317533E+00  0.34534218699E+01  0.00000000000E+00 0.  1.
</event>
<event>
 7    1  0.3884463E-009  0.4778728E+02  0.7816164E-02  0.1312668E+00
        -11   -1    0    0    0    0  0.00000000000E+00  0.00000000000E+00  0.45593999997E+02  0.45594000000E+02  0.51100000000E-03 0.  1.
         11   -1    0    0    0    0 -0.00000000000E+00 -0.00000000000E+00 -0.45593999997E+02  0.45594000000E+02  0.51100000000E-03 0. -1.
    9900012    2    1    2    0    0  0.14907964104E+02  0.39194126168E+02 -0.11189093792E+02  0.47787277198E+02  0.20000028057E+02 0.  0.
        -12    1    1    2    0    0 -0.14907964104E+02 -0.39194126168E+02  0.11189093792E+02  0.43400722802E+02  0.00000000000E+00 0.  1.
         11    1    3    3    0    0  0.69719439229E+01  0.31402314454E+02 -0.12529901521E+02  0.34521178826E+02  0.51100000000E-03 0. -1.
        -11    1    3    3    0    0 -0.88004594905E+00  0.16378204797E+01 -0.12071818314E+01  0.22168051406E+01  0.51100000000E-03 0.  1.
        -12    1    3    3    0    0  0.88160661301E+01  0.61539912349E+01  0.25479895601E+01  0.11049293232E+02  0.00000000000E+00 0.  1.
</event>
<event>
 7    1  0.3884463E-009  0.4778727E+02  0.7816164E-02  0.1312668E+00
        -11   -1    0    0    0    0  0.00000000000E+00  0.00000000000E+00  0.45593999997E+02  0.45594000000E+02  0.51100000000E-03 0.  1.
         11   -1    0    0    0    0 -0.00000000000E+00 -0.00000000000E+00 -0.45593999997E+02  0.45594000000E+02  0.51100000000E-03 0. -1.
    9900012    2    1    2    0    0  0.19282064416E+02  0.13979644538E+02 -0.36282151141E+02  0.47787274649E+02  0.20000016436E+02 0.  0.
        -12    1    1    2    0    0 -0.19282064416E+02 -0.13979644538E+02  0.36282151141E+02  0.43400725351E+02  0.00000000000E+00 0.  1.
         11    1    3    3    0    0  0.79896494841E+01  0.44108239612E+01 -0.72380388431E+01  0.11648136050E+02  0.51100000000E-03 0.  1.
        -11    1    3    3    0    0  0.14707432450E+02  0.46257555222E+01 -0.19456591833E+02  0.24824688305E+02  0.51100000000E-03 0. -1.
         12    1    3    3    0    0 -0.34150175181E+01  0.49430650547E+01 -0.95875204647E+01  0.11314450294E+02  0.00000000000E+00 0. -1.
</event>
<event>
 7    1  0.3884463E-009  0.4778727E+02  0.7816164E-02  0.1312668E+00
        -11   -1    0    0    0    0  0.00000000000E+00  0.00000000000E+00  0.45593999997E+02  0.45594000000E+02  0.51100000000E-03 0. -1.
         11   -1    0    0    0    0 -0.00000000000E+00 -0.00000000000E+00 -0.45593999997E+02  0.45594000000E+02  0.51100000000E-03 0.  1.
    9900012    2    1    2    0    0 -0.39102108853E+02  0.81638257164E+01  0.16970579672E+02  0.47787267962E+02  0.19999985945E+02 0.  0.
        -12    1    1    2    0    0  0.39102108853E+02 -0.81638257164E+01 -0.16970579672E+02  0.43400732038E+02  0.00000000000E+00 0.  1.
         11    1    3    3    0    0 -0.39563207597E+01  0.59929247959E+01  0.10662121114E+01  0.72597816834E+01  0.51100000000E-03 0. -1.
        -11    1    3    3    0    0  0.86236164440E+00  0.73509731489E+00 -0.98319825923E-02  0.11331957453E+01  0.51100000000E-03 0.  1.
         12    1    3    3    0    0 -0.36008149738E+02  0.14358036056E+01  0.15914199543E+02  0.39394290533E+02  0.00000000000E+00 0. -1.
</event>
<event>
 7    1  0.3884463E-009  0.4778727E+02  0.7816164E-02  0.1312668E+00
        -11   -1    0    0    0    0  0.00000000000E+00  0.00000000000E+00  0.45593999997E+02  0.45594000000E+02  0.51100000000E-03 0.  1.
         11   -1    0    0    0    0 -0.00000000000E+00 -0.00000000000E+00 -0.45593999997E+02  0.45594000000E+02  0.51100000000E-03 0. -1.
    9900012    2    1    2    0    0 -0.42903122658E+02  0.62247712795E+01 -0.20487877668E+01  0.47787271405E+02  0.20000001644E+02 0.  0.
        -12    1    1    2    0    0  0.42903122658E+02 -0.62247712795E+01  0.20487877668E+01  0.43400728595E+02  0.00000000000E+00 0.  1.
         11    1    3    3    0    0 -0.35593687503E+02  0.14487342816E+01 -0.90587158393E-01  0.35623273675E+02  0.51100000000E-03 0. -1.
        -11    1    3    3    0    0 -0.84103919191E+01  0.34486163424E+01 -0.36056679694E+01  0.97789819857E+01  0.51100000000E-03 0.  1.
        -12    1    3    3    0    0  0.11009567641E+01  0.13274206555E+01  0.16474673610E+01  0.23850157439E+01  0.00000000000E+00 0.  1.
</event>
<event>
 7    1  0.3884463E-009  0.4778727E+02  0.7816164E-02  0.1312668E+00
        -11   -1    0    0    0    0  0.00000000000E+00  0.00000000000E+00  0.45593999997E+02  0.45594000000E+02  0.51100000000E-03 0.  1.
         11   -1    0    0    0    0 -0.00000000000E+00 -0.00000000000E+00 -0.45593999997E+02  0.45594000000E+02  0.51100000000E-03 0. -1.
    9900012    2    1    2    0    0  0.20504032105E+02 -0.37995530332E+02 -0.44212654377E+01  0.47787271368E+02  0.20000001474E+02 0.  0.
        -12    1    1    2    0    0 -0.20504032105E+02  0.37995530332E+02  0.44212654377E+01  0.43400728632E+02  0.00000000000E+00 0.  1.
         11    1    3    3    0    0  0.62181131094E+00 -0.15931185222E+02  0.22098429330E+00  0.15944847011E+02  0.51100000000E-03 0. -1.
        -11    1    3    3    0    0  0.13088326514E+02 -0.20732659477E+02 -0.27954387819E+01  0.24677154175E+02  0.51100000000E-03 0.  1.
        -12    1    3    3    0    0  0.67938942795E+01 -0.13316856336E+01 -0.18468109490E+01  0.71652701826E+01  0.00000000000E+00 0.  1.
</event>
<event>
 7    1  0.3884463E-009  0.4778727E+02  0.7816164E-02  0.1312668E+00
        -11   -1    0    0    0    0  0.00000000000E+00  0.00000000000E+00  0.45593999997E+02  0.45594000000E+02  0.51100000000E-03 0.  1.
         11   -1    0    0    0    0 -0.00000000000E+00 -0.00000000000E+00 -0.45593999997E+02  0.45594000000E+02  0.51100000000E-03 0. -1.
    9900012    2    1    2    0    0 -0.36985173492E+02  0.21464163750E+01 -0.22607808719E+02  0.47787272165E+02  0.20000005111E+02 0.  0.
        -12    1    1    2    0    0  0.36985173492E+02 -0.21464163750E+01  0.22607808719E+02  0.43400727835E+02  0.00000000000E+00 0.  1.
         11    1    3    3    0    0 -0.54311855500E+01 -0.35746979121E+01 -0.91782162518E+01  0.11247928497E+02  0.51100000000E-03 0. -1.
        -11    1    3    3    0    0 -0.18162130315E+01 -0.22465877754E+01 -0.26494114644E+01  0.39198428256E+01  0.51100000000E-03 0.  1.
         12    1    3    3    0    0 -0.29737774911E+02  0.79677020625E+01 -0.10780181003E+02  0.32619500843E+02  0.00000000000E+00 0. -1.
</event>
<event>
 7    1  0.3884463E-009  0.4778727E+02  0.7816164E-02  0.1312668E+00
        -11   -1    0    0    0    0  0.00000000000E+00  0.00000000000E+00  0.45593999997E+02  0.45594000000E+02  0.51100000000E-03 0.  1.
         11   -1    0    0    0    0 -0.00000000000E+00 -0.00000000000E+00 -0.45593999997E+02  0.45594000000E+02  0.51100000000E-03 0. -1.
    9900012    2    1    2    0    0  0.23539920551E+02  0.24622115662E+02 -0.26893247010E+02  0.47787272195E+02  0.20000005245E+02 0.  0.
        -12    1    1    2    0    0 -0.23539920551E+02 -0.24622115662E+02  0.26893247010E+02  0.43400727805E+02  0.00000000000E+00 0.  1.
         11    1    3    3    0    0  0.69551324236E+01  0.10430450618E+02 -0.21286022164E+02  0.24703499893E+02  0.51100000000E-03 0. -1.
        -11    1    3    3    0    0  0.17459903380E+01  0.40641776639E+01 -0.94261115624E+00  0.45226693884E+01  0.51100000000E-03 0.  1.
        -12    1    3    3    0    0  0.14838797790E+02  0.10127487380E+02 -0.46646136903E+01  0.18561102913E+02  0.00000000000E+00 0.  1.
</event>
<event>
 7    1  0.3884463E-009  0.4778728E+02  0.7816164E-02  0.1312668E+00
        -11   -1    0    0    0    0  0.00000000000E+00  0.00000000000E+00  0.45593999997E+02  0.45594000000E+02  0.51100000000E-03 0.  1.
         11   -1    0    0    0    0 -0.00000000000E+00 -0.00000000000E+00 -0.45593999997E+02  0.45594000000E+02  0.51100000000E-03 0. -1.
    9900012    2    1    2    0    0 -0.27142540435E+02  0.17358868853E+02 -0.29078772582E+02  0.47787275997E+02  0.20000022582E+02 0.  0.
        -12    1    1    2    0    0  0.27142540435E+02 -0.17358868853E+02  0.29078772582E+02  0.43400724003E+02  0.00000000000E+00 0.  1.
         11    1    3    3    0    0 -0.14397897338E+02  0.90902295151E+01 -0.15989272336E+02  0.23357837025E+02  0.51100000000E-03 0. -1.
        -11    1    3    3    0    0 -0.14936883614E+02  0.34548683047E+01 -0.94714206817E+01  0.18020943846E+02  0.51100000000E-03 0.  1.
        -12    1    3    3    0    0  0.21922405180E+01  0.48137710332E+01 -0.36180795644E+01  0.64084951262E+01  0.00000000000E+00 0.  1.
</event>
<event>
 7    1  0.3884463E-009  0.4778728E+02  0.7816164E-02  0.1312668E+00
        -11   -1    0    0    0    0  0.00000000000E+00  0.00000000000E+00  0.45593999997E+02  0.45594000000E+02  0.51100000000E-03 0. -1.
         11   -1    0    0    0    0 -0.00000000000E+00 -0.00000000000E+00 -0.45593999997E+02  0.45594000000E+02  0.51100000000E-03 0.  1.
    9900012    2    1    2    0    0 -0.66678337153E+01  0.39867692698E+02  0.15802846049E+02  0.47787275689E+02  0.20000021175E+02 0.  0.
        -12    1    1    2    0    0  0.66678337153E+01 -0.39867692698E+02 -0.15802846049E+02  0.43400724311E+02  0.00000000000E+00 0.  1.
         11    1    3    3    0    0 -0.64781843100E+01  0.10430416072E+02 -0.24854159546E+01  0.12527479560E+02  0.51100000000E-03 0. -1.
        -11    1    3    3    0    0  0.83726305644E+00  0.23633354709E+01  0.37534600725E+01  0.45138483305E+01  0.51100000000E-03 0.  1.
        -12    1    3    3    0    0 -0.10269124618E+01  0.27073941155E+02  0.14534801931E+02  0.30745947799E+02  0.00000000000E+00 0.  1.
</event>
<event>
 7    1  0.3884463E-009  0.4778727E+02  0.7816164E-02  0.1312668E+00
        -11   -1    0    0    0    0  0.00000000000E+00  0.00000000000E+00  0.45593999997E+02  0.45594000000E+02  0.51100000000E-03 0. -1.
         11   -1    0    0    0    0 -0.00000000000E+00 -0.00000000000E+00 -0.45593999997E+02  0.45594000000E+02  0.51100000000E-03 0.  1.
    9900012    2    1    2    0    0  0.27552486358E+02  0.24427685801E+02  0.22973294570E+02  0.47787267270E+02  0.19999982790E+02 0.  0.
        -12    1    1    2    0    0 -0.27552486358E+02 -0.24427685801E+02 -0.22973294570E+02  0.43400732730E+02  0.00000000000E+00 0.  1.
         11    1    3    3    0    0  0.13083520364E+02  0.11937010264E+02  0.44714868763E+01  0.18266497045E+02  0.51100000000E-03 0. -1.
        -11    1    3    3    0    0  0.29936879918E+01  0.10175104941E+02  0.52364537433E+01  0.11828583027E+02  0.51100000000E-03 0.  1.
         12    1    3    3    0    0  0.11475278003E+02  0.23155705964E+01  0.13265353950E+02  0.17692187198E+02  0.00000000000E+00 0. -1.
</event>
<event>
 7    1  0.4150425E-009  0.4778726E+02  0.7816164E-02  0.1312668E+00
        -11   -1    0    0    0    0  0.00000000000E+00  0.00000000000E+00  0.45593999997E+02  0.45594000000E+02  0.51100000000E-03 0. -1.
         11   -1    0    0    0    0 -0.00000000000E+00 -0.00000000000E+00 -0.45593999997E+02  0.45594000000E+02  0.51100000000E-03 0.  1.
    9900012    2    1    2    0    0 -0.73045351107E+01  0.12683875024E+02  0.40858137131E+02  0.47787259354E+02  0.19999946697E+02 0.  0.
        -12    1    1    2    0    0  0.73045351107E+01 -0.12683875024E+02 -0.40858137131E+02  0.43400740646E+02  0.00000000000E+00 0.  1.
         11    1    3    3    0    0 -0.21132492662E+01 -0.26275574151E+01  0.44826099584E+01  0.56092488562E+01  0.51100000000E-03 0. -1.
        -11    1    3    3    0    0 -0.37033467262E+01  0.58972823933E+01  0.32058676640E+01  0.76661792532E+01  0.51100000000E-03 0.  1.
         12    1    3    3    0    0 -0.14879391183E+01  0.94141500453E+01  0.33169659509E+02  0.34511831244E+02  0.00000000000E+00 0. -1.
</event>
<event>
 7    1  0.3884463E-009  0.4778727E+02  0.7816164E-02  0.1312668E+00
        -11   -1    0    0    0    0  0.00000000000E+00  0.00000000000E+00  0.45593999997E+02  0.45594000000E+02  0.51100000000E-03 0. -1.
         11   -1    0    0    0    0 -0.00000000000E+00 -0.00000000000E+00 -0.45593999997E+02  0.45594000000E+02  0.51100000000E-03 0.  1.
    9900012    2    1    2    0    0 -0.35176359330E+02  0.21387112029E+02  0.13741852688E+02  0.47787270376E+02  0.19999996950E+02 0.  0.
        -12    1    1    2    0    0  0.35176359330E+02 -0.21387112029E+02 -0.13741852688E+02  0.43400729624E+02  0.00000000000E+00 0.  1.
         11    1    3    3    0    0 -0.15986334982E+02  0.10802033197E+02  0.33399909950E+01  0.19580663100E+02  0.51100000000E-03 0. -1.
        -11    1    3    3    0    0 -0.11706747796E+02  0.30826119620E+01 -0.15831594284E+01  0.12208883425E+02  0.51100000000E-03 0.  1.
         12    1    3    3    0    0 -0.74832765523E+01  0.75024668699E+01  0.11985021121E+02  0.15997723850E+02  0.00000000000E+00 0. -1.
</event>
<event>
 7    1  0.3884463E-009  0.4778727E+02  0.7816164E-02  0.1312668E+00
        -11   -1    0    0    0    0  0.00000000000E+00  0.00000000000E+00  0.45593999997E+02  0.45594000000E+02  0.51100000000E-03 0.  1.
         11   -1    0    0    0    0 -0.00000000000E+00 -0.00000000000E+00 -0.45593999997E+02  0.45594000000E+02  0.51100000000E-03 0. -1.
    9900012    2    1    2    0    0 -0.30547951313E+02 -0.18021280600E+02 -0.25013585767E+02  0.47787270089E+02  0.19999995645E+02 0.  0.
        -12    1    1    2    0    0  0.30547951313E+02  0.18021280600E+02  0.25013585767E+02  0.43400729911E+02  0.00000000000E+00 0.  1.
         11    1    3    3    0    0 -0.14185275407E+02 -0.27434639612E+01 -0.16099229286E+02  0.21631777938E+02  0.51100000000E-03 0. -1.
        -11    1    3    3    0    0 -0.66511225023E+01 -0.25677133820E+00 -0.31396018278E+01  0.73593791830E+01  0.51100000000E-03 0.  1.
         12    1    3    3    0    0 -0.97115534031E+01 -0.15021045301E+02 -0.57747546532E+01  0.18796112969E+02  0.00000000000E+00 0. -1.
</event>
<event>
 7    1  0.3884463E-009  0.4778726E+02  0.7816164E-02  0.1312668E+00
        -11   -1    0    0    0    0  0.00000000000E+00  0.00000000000E+00  0.45593999997E+02  0.45594000000E+02  0.51100000000E-03 0. -1.
         11   -1    0    0    0    0 -0.00000000000E+00 -0.00000000000E+00 -0.45593999997E+02  0.45594000000E+02  0.51100000000E-03 0.  1.
    9900012    2    1    2    0    0 -0.40241581788E+02  0.16255423843E+02 -0.23441934375E-01  0.47787259700E+02  0.19999948275E+02 0.  0.
        -12    1    1    2    0    0  0.40241581788E+02 -0.16255423843E+02  0.23441934375E-01  0.43400740300E+02  0.00000000000E+00 0.  1.
         11    1    3    3    0    0 -0.46648462796E+00  0.20893658493E+01 -0.43287657945E+00  0.21841336851E+01  0.51100000000E-03 0. -1.
        -11    1    3    3    0    0 -0.10405761274E+02  0.72772508527E+01  0.73179437509E+01  0.14655734327E+02  0.51100000000E-03 0.  1.
         12    1    3    3    0    0 -0.29369335886E+02  0.68888071406E+01 -0.69085091058E+01  0.30947391687E+02  0.00000000000E+00 0. -1.
</event>
<event>
 7    1  0.3884463E-009  0.4778728E+02  0.7816164E-02  0.1312668E+00
        -11   -1    0    0    0    0  0.00000000000E+00  0.00000000000E+00  0.45593999997E+02  0.45594000000E+02  0.51100000000E-03 0. -1.
         11   -1    0    0    0    0 -0.00000000000E+00 -0.00000000000E+00 -0.45593999997E+02  0.45594000000E+02  0.51100000000E-03 0.  1.
    9900012    2    1    2    0    0  0.42561343756E+02  0.83089308775E+01  0.17652692314E+01  0.47787280074E+02  0.20000041169E+02 0.  0.
        -12    1    1    2    0    0 -0.42561343756E+02 -0.83089308775E+01 -0.17652692314E+01  0.43400719926E+02  0.00000000000E+00 0.  1.
         11    1    3    3    0    0  0.10063974540E+01  0.70477995884E+00 -0.16913345095E+01  0.20904935566E+01  0.51100000000E-03 0. -1.
        -11    1    3    3    0    0  0.21734315438E+02 -0.40865778170E+01 -0.14693500280E+01  0.22163925095E+02  0.51100000000E-03 0.  1.
         12    1    3    3    0    0  0.19820630864E+02  0.11690728736E+02  0.49259537690E+01  0.23532861423E+02  0.00000000000E+00 0. -1.
</event>
<event>
 7    1  0.3884463E-009  0.4778727E+02  0.7816164E-02  0.1312668E+00
        -11   -1    0    0    0    0  0.00000000000E+00  0.00000000000E+00  0.45593999997E+02  0.45594000000E+02  0.51100000000E-03 0. -1.
         11   -1    0    0    0    0 -0.00000000000E+00 -0.00000000000E+00 -0.45593999997E+02  0.45594000000E+02  0.51100000000E-03 0.  1.
    9900012    2    1    2    0    0 -0.39074714475E+02  0.18888038788E+02 -0.17887130124E+00  0.47787270565E+02  0.19999997813E+02 0.  0.
        -12    1    1    2    0    0  0.39074714475E+02 -0.18888038788E+02  0.17887130124E+00  0.43400729435E+02  0.00000000000E+00 0.  1.
         11    1    3    3    0    0 -0.21007734790E+02  0.77197369810E+01 -0.82317471572E+00  0.22396358564E+02  0.51100000000E-03 0. -1.
        -11    1    3    3    0    0 -0.38015124800E+01  0.20435720857E+00  0.55609408839E+01  0.67392375518E+01  0.51100000000E-03 0.  1.
         12    1    3    3    0    0 -0.14265467205E+02  0.10963944598E+02 -0.49166374694E+01  0.18651674449E+02  0.00000000000E+00 0. -1.
</event>
<event>
 7    1  0.3884463E-009  0.4778728E+02  0.7816164E-02  0.1312668E+00
        -11   -1    0    0    0    0  0.00000000000E+00  0.00000000000E+00  0.45593999997E+02  0.45594000000E+02  0.51100000000E-03 0.  1.
         11   -1    0    0    0    0 -0.00000000000E+00 -0.00000000000E+00 -0.45593999997E+02  0.45594000000E+02  0.51100000000E-03 0. -1.
    9900012    2    1    2    0    0  0.35110148524E+02 -0.25407002167E+02  0.23204720690E+01  0.47787275592E+02  0.20000020734E+02 0.  0.
        -12    1    1    2    0    0 -0.35110148524E+02  0.25407002167E+02 -0.23204720690E+01  0.43400724408E+02  0.00000000000E+00 0.  1.
         11    1    3    3    0    0  0.47518877595E+01 -0.64996678005E+01 -0.32577339728E+01  0.86855598377E+01  0.51100000000E-03 0. -1.
        -11    1    3    3    0    0  0.11489350571E+02 -0.49847743767E+01  0.89745534290E+01  0.15407652697E+02  0.51100000000E-03 0.  1.
        -12    1    3    3    0    0  0.18868910194E+02 -0.13922559990E+02 -0.33963473871E+01  0.23694063057E+02  0.00000000000E+00 0.  1.
</event>
<event>
 7    1  0.3884463E-009  0.4778727E+02  0.7816164E-02  0.1312668E+00
        -11   -1    0    0    0    0  0.00000000000E+00  0.00000000000E+00  0.45593999997E+02  0.45594000000E+02  0.51100000000E-03 0.  1.
         11   -1    0    0    0    0 -0.00000000000E+00 -0.00000000000E+00 -0.45593999997E+02  0.45594000000E+02  0.51100000000E-03 0. -1.
    9900012    2    1    2    0    0 -0.23086282463E+02  0.11230421048E+02 -0.34993204798E+02  0.47787272161E+02  0.20000005092E+02 0.  0.
        -12    1    1    2    0    0  0.23086282463E+02 -0.11230421048E+02  0.34993204798E+02  0.43400727839E+02  0.00000000000E+00 0.  1.
         11    1    3    3    0    0 -0.11567083294E+02  0.43878235758E+01 -0.15398653579E+02  0.19752694600E+02  0.51100000000E-03 0. -1.
        -11    1    3    3    0    0 -0.43720375054E+01  0.43384798533E+01 -0.19511910521E+02  0.20460981693E+02  0.51100000000E-03 0.  1.
        -12    1    3    3    0    0 -0.71471616639E+01  0.25041176189E+01 -0.82640698505E-01  0.75735958688E+01  0.00000000000E+00 0.  1.
</event>
<event>
 7    1  0.3884463E-009  0.4778728E+02  0.7816164E-02  0.1312668E+00
        -11   -1    0    0    0    0  0.00000000000E+00  0.00000000000E+00  0.45593999997E+02  0.45594000000E+02  0.51100000000E-03 0.  1.
         11   -1    0    0    0    0 -0.00000000000E+00 -0.00000000000E+00 -0.45593999997E+02  0.45594000000E+02  0.51100000000E-03 0. -1.
    9900012    2    1    2    0    0 -0.30721790766E+02  0.28736880187E+02 -0.10676426551E+02  0.47787276565E+02  0.20000025170E+02 0.  0.
        -12    1    1    2    0    0  0.30721790766E+02 -0.28736880187E+02  0.10676426551E+02  0.43400723435E+02  0.00000000000E+00 0.  1.
         11    1    3    3    0    0 -0.17515629540E+02  0.12323875239E+02 -0.13588751874E+02  0.25363938117E+02  0.51100000000E-03 0. -1.
        -11    1    3    3    0    0 -0.98721822823E+00  0.45759794851E+01 -0.13752325360E+01  0.48790831994E+01  0.51100000000E-03 0.  1.
        -12    1    3    3    0    0 -0.12218942998E+02  0.11837025464E+02  0.42875578584E+01  0.17544255248E+02  0.00000000000E+00 0.  1.
</event>
<event>
 7    1  0.3884463E-009  0.4778727E+02  0.7816164E-02  0.1312668E+00
        -11   -1    0    0    0    0  0.00000000000E+00  0.00000000000E+00  0.45593999997E+02  0.45594000000E+02  0.51100000000E-03 0.  1.
         11   -1    0    0    0    0 -0.00000000000E+00 -0.00000000000E+00 -0.45593999997E+02  0.45594000000E+02  0.51100000000E-03 0. -1.
    9900012    2    1    2    0    0 -0.30315927435E+02  0.21683281622E+02 -0.22235172705E+02  0.47787273470E+02  0.20000011057E+02 0.  0.
        -12    1    1    2    0    0  0.30315927435E+02 -0.21683281622E+02  0.22235172705E+02  0.43400726530E+02  0.00000000000E+00 0.  1.
         11    1    3    3    0    0 -0.23909961610E+01  0.27100751200E+01 -0.21671071824E+01  0.42139914095E+01  0.51100000000E-03 0. -1.
        -11    1    3    3    0    0 -0.19191873317E+01  0.49291177955E+01 -0.11724580238E+02  0.12862552790E+02  0.51100000000E-03 0.  1.
        -12    1    3    3    0    0 -0.26005743943E+02  0.14044088706E+02 -0.83434852842E+01  0.30710729270E+02  0.00000000000E+00 0.  1.
</event>
<event>
 7    1  0.3884463E-009  0.4778727E+02  0.7816164E-02  0.1312668E+00
        -11   -1    0    0    0    0  0.00000000000E+00  0.00000000000E+00  0.45593999997E+02  0.45594000000E+02  0.51100000000E-03 0.  1.
         11   -1    0    0    0    0 -0.00000000000E+00 -0.00000000000E+00 -0.45593999997E+02  0.45594000000E+02  0.51100000000E-03 0. -1.
    9900012    2    1    2    0    0  0.19052595440E+02  0.30252984139E+02 -0.24604454262E+02  0.47787267151E+02  0.19999982247E+02 0.  0.
        -12    1    1    2    0    0 -0.19052595440E+02 -0.30252984139E+02  0.24604454262E+02  0.43400732849E+02  0.00000000000E+00 0.  1.
         11    1    3    3    0    0  0.16873886976E+02  0.13477162812E+02 -0.58270677743E+01  0.22367760242E+02  0.51100000000E-03 0. -1.
        -11    1    3    3    0    0 -0.21961228467E+00  0.16149086351E+01 -0.91868298698E+00  0.18708656144E+01  0.51100000000E-03 0.  1.
         12    1    3    3    0    0  0.23983207485E+01  0.15160912692E+02 -0.17858703501E+02  0.23548641294E+02  0.00000000000E+00 0. -1.
</event>
<event>
 7    1  0.3884463E-009  0.4778727E+02  0.7816164E-02  0.1312668E+00
        -11   -1    0    0    0    0  0.00000000000E+00  0.00000000000E+00  0.45593999997E+02  0.45594000000E+02  0.51100000000E-03 0.  1.
         11   -1    0    0    0    0 -0.00000000000E+00 -0.00000000000E+00 -0.45593999997E+02  0.45594000000E+02  0.51100000000E-03 0. -1.
    9900012    2    1    2    0    0 -0.13150574361E+02 -0.19123665080E+02 -0.36673847808E+02  0.47787270915E+02  0.19999999409E+02 0.  0.
        -12    1    1    2    0    0  0.13150574361E+02  0.19123665080E+02  0.36673847808E+02  0.43400729085E+02  0.00000000000E+00 0.  1.
         11    1    3    3    0    0 -0.12954523320E+02 -0.75053888694E+01 -0.23976082873E+02  0.28266642651E+02  0.51100000000E-03 0. -1.
        -11    1    3    3    0    0 -0.45954408179E+01 -0.46796831491E+01 -0.64522828326E+01  0.92005143715E+01  0.51100000000E-03 0.  1.
        -12    1    3    3    0    0  0.43993897770E+01 -0.69385930611E+01 -0.62454821017E+01  0.10320113893E+02  0.00000000000E+00 0.  1.
</event>
<event>
 7    1  0.3884463E-009  0.4778727E+02  0.7816164E-02  0.1312668E+00
        -11   -1    0    0    0    0  0.00000000000E+00  0.00000000000E+00  0.45593999997E+02  0.45594000000E+02  0.51100000000E-03 0.  1.
         11   -1    0    0    0    0 -0.00000000000E+00 -0.00000000000E+00 -0.45593999997E+02  0.45594000000E+02  0.51100000000E-03 0. -1.
    9900012    2    1    2    0    0 -0.32753339961E+02  0.27702075308E+02 -0.65906746638E+01  0.47787271349E+02  0.20000001386E+02 0.  0.
        -12    1    1    2    0    0  0.32753339961E+02 -0.27702075308E+02  0.65906746638E+01  0.43400728651E+02  0.00000000000E+00 0.  1.
         11    1    3    3    0    0 -0.43734967183E+01  0.10228497237E+02  0.73962398490E+00  0.11148841787E+02  0.51100000000E-03 0. -1.
        -11    1    3    3    0    0 -0.39596786887E+01 -0.17745999174E+01  0.98962684933E+00  0.44505754399E+01  0.51100000000E-03 0.  1.
         12    1    3    3    0    0 -0.24420164554E+02  0.19248177988E+02 -0.83199254980E+01  0.32187854122E+02  0.00000000000E+00 0. -1.
</event>
<event>
 7    1  0.3884463E-009  0.4778727E+02  0.7816164E-02  0.1312668E+00
        -11   -1    0    0    0    0  0.00000000000E+00  0.00000000000E+00  0.45593999997E+02  0.45594000000E+02  0.51100000000E-03 0.  1.
         11   -1    0    0    0    0 -0.00000000000E+00 -0.00000000000E+00 -0.45593999997E+02  0.45594000000E+02  0.51100000000E-03 0. -1.
    9900012    2    1    2    0    0  0.30245350507E+01  0.12813698346E+02 -0.41355586714E+02  0.47787271550E+02  0.20000002304E+02 0.  0.
        -12    1    1    2    0    0 -0.30245350507E+01 -0.12813698346E+02  0.41355586714E+02  0.43400728450E+02  0.00000000000E+00 0.  1.
         11    1    3    3    0    0 -0.25192720323E+01  0.51456061973E+01 -0.21119819194E+02  0.21883115815E+02  0.51100000000E-03 0. -1.
        -11    1    3    3    0    0 -0.30720041325E+01  0.62603307859E+01 -0.59735567265E+01  0.91821746424E+01  0.51100000000E-03 0.  1.
        -12    1    3    3    0    0  0.86158112155E+01  0.14077613633E+01 -0.14262210793E+02  0.16721981092E+02  0.00000000000E+00 0.  1.
</event>
<event>
 7    1  0.3884463E-009  0.4778725E+02  0.7816164E-02  0.1312668E+00
        -11   -1    0    0    0    0  0.00000000000E+00  0.00000000000E+00  0.45593999997E+02  0.45594000000E+02  0.51100000000E-03 0.  1.
         11   -1    0    0    0    0 -0.00000000000E+00 -0.00000000000E+00 -0.45593999997E+02  0.45594000000E+02  0.51100000000E-03 0. -1.
    9900012    2    1    2    0    0 -0.10738203659E+02 -0.63097954472E+01 -0.41575268655E+02  0.47787245396E+02  0.19999883059E+02 0.  0.
        -12    1    1    2    0    0  0.10738203659E+02  0.63097954472E+01  0.41575268655E+02  0.43400754604E+02  0.00000000000E+00 0.  1.
         11    1    3    3    0    0 -0.26150128681E+01 -0.12289383711E+01 -0.82210421260E+00  0.30040701420E+01  0.51100000000E-03 0. -1.
        -11    1    3    3    0    0  0.63113750531E+00 -0.89258406207E+01 -0.21454850387E+02  0.23246065704E+02  0.51100000000E-03 0.  1.
        -12    1    3    3    0    0 -0.87543282964E+01  0.38449835447E+01 -0.19298314056E+02  0.21537109550E+02  0.00000000000E+00 0.  1.
</event>
<event>
 7    1  0.3884463E-009  0.4778727E+02  0.7816164E-02  0.1312668E+00
        -11   -1    0    0    0    0  0.00000000000E+00  0.00000000000E+00  0.45593999997E+02  0.45594000000E+02  0.51100000000E-03 0.  1.
         11   -1    0    0    0    0 -0.00000000000E+00 -0.00000000000E+00 -0.45593999997E+02  0.45594000000E+02  0.51100000000E-03 0. -1.
    9900012    2    1    2    0    0  0.20449544068E+02 -0.13935784574E-01 -0.38281055960E+02  0.47787270833E+02  0.19999999036E+02 0.  0.
        -12    1    1    2    0    0 -0.20449544068E+02  0.13935784574E-01  0.38281055960E+02  0.43400729167E+02  0.00000000000E+00 0.  1.
         11    1    3    3    0    0  0.89175741259E+01 -0.69013061242E+01 -0.16146708412E+02  0.19694348106E+02  0.51100000000E-03 0. -1.
        -11    1    3    3    0    0  0.10441287268E+02  0.13826263977E+01 -0.91656244883E+01  0.13962120473E+02  0.51100000000E-03 0.  1.
         12    1    3    3    0    0  0.10906826743E+01  0.55047439419E+01 -0.12968723060E+02  0.14130802255E+02  0.00000000000E+00 0. -1.
</event>
<event>
 7    1  0.3884463E-009  0.4778727E+02  0.7816164E-02  0.1312668E+00
        -11   -1    0    0    0    0  0.00000000000E+00  0.00000000000E+00  0.45593999997E+02  0.45594000000E+02  0.51100000000E-03 0. -1.
         11   -1    0    0    0    0 -0.00000000000E+00 -0.00000000000E+00 -0.45593999997E+02  0.45594000000E+02  0.51100000000E-03 0.  1.
    9900012    2    1    2    0    0  0.41626593848E+02  0.55445377771E+01  0.10959367698E+02  0.47787274719E+02  0.20000016756E+02 0.  0.
        -12    1    1    2    0    0 -0.41626593848E+02 -0.55445377771E+01 -0.10959367698E+02  0.43400725281E+02  0.00000000000E+00 0.  1.
         11    1    3    3    0    0  0.20238918163E+02  0.39863064303E+01  0.78971249895E+01  0.22087757485E+02  0.51100000000E-03 0. -1.
        -11    1    3    3    0    0  0.86394252675E+01  0.21839657194E+00  0.81777421476E+01  0.11898018024E+02  0.51100000000E-03 0.  1.
        -12    1    3    3    0    0  0.12748250418E+02  0.13398347749E+01 -0.51154994390E+01  0.13801499210E+02  0.00000000000E+00 0.  1.
</event>
<event>
 7    1  0.3884463E-009  0.4778727E+02  0.7816164E-02  0.1312668E+00
        -11   -1    0    0    0    0  0.00000000000E+00  0.00000000000E+00  0.45593999997E+02  0.45594000000E+02  0.51100000000E-03 0.  1.
         11   -1    0    0    0    0 -0.00000000000E+00 -0.00000000000E+00 -0.45593999997E+02  0.45594000000E+02  0.51100000000E-03 0. -1.
    9900012    2    1    2    0    0 -0.31078644574E+02 -0.90680608642E+01 -0.28905222804E+02  0.47787265193E+02  0.19999973323E+02 0.  0.
        -12    1    1    2    0    0  0.31078644574E+02  0.90680608642E+01  0.28905222804E+02  0.43400734807E+02  0.00000000000E+00 0.  1.
         11    1    3    3    0    0 -0.16800367297E+02 -0.19543661222E+01 -0.25074955484E+02  0.30246078771E+02  0.51100000000E-03 0. -1.
        -11    1    3    3    0    0 -0.17463327471E+00 -0.20902239777E+01 -0.42681419174E-01  0.20979406622E+01  0.51100000000E-03 0.  1.
         12    1    3    3    0    0 -0.14103644002E+02 -0.50234707643E+01 -0.37875859018E+01  0.15443245760E+02  0.00000000000E+00 0. -1.
</event>
<event>
 7    1  0.3884463E-009  0.4778727E+02  0.7816164E-02  0.1312668E+00
        -11   -1    0    0    0    0  0.00000000000E+00  0.00000000000E+00  0.45593999997E+02  0.45594000000E+02  0.51100000000E-03 0.  1.
         11   -1    0    0    0    0 -0.00000000000E+00 -0.00000000000E+00 -0.45593999997E+02  0.45594000000E+02  0.51100000000E-03 0. -1.
    9900012    2    1    2    0    0 -0.20348949849E+02 -0.38070670774E+02  0.44908222304E+01  0.47787271695E+02  0.20000002966E+02 0.  0.
        -12    1    1    2    0    0  0.20348949849E+02  0.38070670774E+02 -0.44908222304E+01  0.43400728305E+02  0.00000000000E+00 0.  1.
         11    1    3    3    0    0 -0.96454681731E+01 -0.17701720248E+02 -0.12209746673E+01  0.20195958393E+02  0.51100000000E-03 0. -1.
        -11    1    3    3    0    0 -0.59074217684E+01 -0.12194313047E+02 -0.38926165192E+01  0.14097920637E+02  0.51100000000E-03 0.  1.
        -12    1    3    3    0    0 -0.47960599077E+01 -0.81746374784E+01  0.96044134169E+01  0.13493392665E+02  0.00000000000E+00 0.  1.
</event>
<event>
 7    1  0.3884463E-009  0.4778727E+02  0.7816164E-02  0.1312668E+00
        -11   -1    0    0    0    0  0.00000000000E+00  0.00000000000E+00  0.45593999997E+02  0.45594000000E+02  0.51100000000E-03 0.  1.
         11   -1    0    0    0    0 -0.00000000000E+00 -0.00000000000E+00 -0.45593999997E+02  0.45594000000E+02  0.51100000000E-03 0. -1.
    9900012    2    1    2    0    0 -0.34178872573E+01 -0.12867607623E+02 -0.41308184836E+02  0.47787269434E+02  0.19999992657E+02 0.  0.
        -12    1    1    2    0    0  0.34178872573E+01  0.12867607623E+02  0.41308184836E+02  0.43400730566E+02  0.00000000000E+00 0.  1.
         11    1    3    3    0    0  0.25859132274E+01 -0.15839307330E+01 -0.27903436420E+01  0.41208981652E+01  0.51100000000E-03 0. -1.
        -11    1    3    3    0    0 -0.87790214727E+01 -0.29680306543E+00 -0.12399049343E+02  0.15195253698E+02  0.51100000000E-03 0.  1.
         12    1    3    3    0    0  0.27752209881E+01 -0.10986873825E+02 -0.26118791851E+02  0.28471117571E+02  0.00000000000E+00 0. -1.
</event>
<event>
 7    1  0.3884463E-009  0.4778727E+02  0.7816164E-02  0.1312668E+00
        -11   -1    0    0    0    0  0.00000000000E+00  0.00000000000E+00  0.45593999997E+02  0.45594000000E+02  0.51100000000E-03 0.  1.
         11   -1    0    0    0    0 -0.00000000000E+00 -0.00000000000E+00 -0.45593999997E+02  0.45594000000E+02  0.51100000000E-03 0. -1.
    9900012    2    1    2    0    0 -0.20207338879E+02 -0.27303333832E+02 -0.27015078103E+02  0.47787273879E+02  0.20000012922E+02 0.  0.
        -12    1    1    2    0    0  0.20207338879E+02  0.27303333832E+02  0.27015078103E+02  0.43400726121E+02  0.00000000000E+00 0.  1.
         11    1    3    3    0    0 -0.26060833919E+01 -0.42060075229E-01 -0.46359227145E+01  0.53183850342E+01  0.51100000000E-03 0. -1.
        -11    1    3    3    0    0 -0.12483897493E+02 -0.68259733620E+01 -0.47524443871E+01  0.15000911201E+02  0.51100000000E-03 0.  1.
         12    1    3    3    0    0 -0.51173579941E+01 -0.20435300395E+02 -0.17626711002E+02  0.27467977643E+02  0.00000000000E+00 0. -1.
</event>
<event>
 7    1  0.3884463E-009  0.4778727E+02  0.7816164E-02  0.1312668E+00
        -11   -1    0    0    0    0  0.00000000000E+00  0.00000000000E+00  0.45593999997E+02  0.45594000000E+02  0.51100000000E-03 0. -1.
         11   -1    0    0    0    0 -0.00000000000E+00 -0.00000000000E+00 -0.45593999997E+02  0.45594000000E+02  0.51100000000E-03 0.  1.
    9900012    2    1    2    0    0 -0.23311958605E+02 -0.11014244962E+02  0.34912214450E+02  0.47787265860E+02  0.19999976364E+02 0.  0.
        -12    1    1    2    0    0  0.23311958605E+02  0.11014244962E+02 -0.34912214450E+02  0.43400734140E+02  0.00000000000E+00 0.  1.
         11    1    3    3    0    0 -0.26269942268E+01 -0.10734236070E+02  0.76930969411E+01  0.13465090549E+02  0.51100000000E-03 0. -1.
        -11    1    3    3    0    0 -0.90310264862E+00  0.62509145982E+00  0.12427458842E+01  0.16585389115E+01  0.51100000000E-03 0.  1.
        -12    1    3    3    0    0 -0.19781861730E+02 -0.90510035170E+00  0.25976371624E+02  0.32663636400E+02  0.00000000000E+00 0.  1.
</event>
<event>
 7    1  0.3884463E-009  0.4778728E+02  0.7816164E-02  0.1312668E+00
        -11   -1    0    0    0    0  0.00000000000E+00  0.00000000000E+00  0.45593999997E+02  0.45594000000E+02  0.51100000000E-03 0.  1.
         11   -1    0    0    0    0 -0.00000000000E+00 -0.00000000000E+00 -0.45593999997E+02  0.45594000000E+02  0.51100000000E-03 0. -1.
    9900012    2    1    2    0    0 -0.73993771389E+01  0.19584502567E+02 -0.38017353183E+02  0.47787278048E+02  0.20000031934E+02 0.  0.
        -12    1    1    2    0    0  0.73993771389E+01 -0.19584502567E+02  0.38017353183E+02  0.43400721952E+02  0.00000000000E+00 0.  1.
         11    1    3    3    0    0 -0.46013165950E+01  0.96163169888E+01 -0.17610196238E+02  0.20585545381E+02  0.51100000000E-03 0. -1.
        -11    1    3    3    0    0 -0.57089412876E+01  0.10902875834E+02 -0.86227191447E+01  0.15027175310E+02  0.51100000000E-03 0.  1.
        -12    1    3    3    0    0  0.29108807437E+01 -0.93469025544E+00 -0.11784437801E+02  0.12174557358E+02  0.00000000000E+00 0.  1.
</event>
<event>
 7    1  0.3884463E-009  0.4778727E+02  0.7816164E-02  0.1312668E+00
        -11   -1    0    0    0    0  0.00000000000E+00  0.00000000000E+00  0.45593999997E+02  0.45594000000E+02  0.51100000000E-03 0.  1.
         11   -1    0    0    0    0 -0.00000000000E+00 -0.00000000000E+00 -0.45593999997E+02  0.45594000000E+02  0.51100000000E-03 0. -1.
    9900012    2    1    2    0    0  0.33475833517E+02 -0.21754001030E+02  0.17022195146E+02  0.47787272839E+02  0.20000008184E+02 0.  0.
        -12    1    1    2    0    0 -0.33475833517E+02  0.21754001030E+02 -0.17022195146E+02  0.43400727161E+02  0.00000000000E+00 0.  1.
         11    1    3    3    0    0  0.19614009279E+02 -0.14816411184E+02  0.17713355574E+02  0.30298487855E+02  0.51100000000E-03 0. -1.
        -11    1    3    3    0    0 -0.10831543599E+01 -0.56003096118E+00  0.76774805265E-01  0.12217825816E+01  0.51100000000E-03 0.  1.
         12    1    3    3    0    0  0.14944978599E+02 -0.63775588847E+01 -0.76793523357E+00  0.16267002403E+02  0.00000000000E+00 0. -1.
</event>
<event>
 7    1  0.3884463E-009  0.4778727E+02  0.7816164E-02  0.1312668E+00
        -11   -1    0    0    0    0  0.00000000000E+00  0.00000000000E+00  0.45593999997E+02  0.45594000000E+02  0.51100000000E-03 0. -1.
         11   -1    0    0    0    0 -0.00000000000E+00 -0.00000000000E+00 -0.45593999997E+02  0.45594000000E+02  0.51100000000E-03 0.  1.
    9900012    2    1    2    0    0 -0.79007303928E+01 -0.38547707945E+02  0.18310544119E+02  0.47787270116E+02  0.19999995765E+02 0.  0.
        -12    1    1    2    0    0  0.79007303928E+01  0.38547707945E+02 -0.18310544119E+02  0.43400729884E+02  0.00000000000E+00 0.  1.
         11    1    3    3    0    0  0.90337885964E+00 -0.18775146008E+02  0.73827998880E+01  0.20194750195E+02  0.51100000000E-03 0. -1.
        -11    1    3    3    0    0 -0.37213572449E+01 -0.11461173059E+02 -0.11159446382E+01  0.12101748648E+02  0.51100000000E-03 0.  1.
         12    1    3    3    0    0 -0.50827520076E+01 -0.83113888778E+01  0.12043688869E+02  0.15490771273E+02  0.00000000000E+00 0. -1.
</event>
<event>
 7    1  0.3884463E-009  0.4778726E+02  0.7816164E-02  0.1312668E+00
        -11   -1    0    0    0    0  0.00000000000E+00  0.00000000000E+00  0.45593999997E+02  0.45594000000E+02  0.51100000000E-03 0.  1.
         11   -1    0    0    0    0 -0.00000000000E+00 -0.00000000000E+00 -0.45593999997E+02  0.45594000000E+02  0.51100000000E-03 0. -1.
    9900012    2    1    2    0    0  0.26869486112E+02  0.14210419107E+02 -0.30979324818E+02  0.47787264277E+02  0.19999969144E+02 0.  0.
        -12    1    1    2    0    0 -0.26869486112E+02 -0.14210419107E+02  0.30979324818E+02  0.43400735723E+02  0.00000000000E+00 0.  1.
         11    1    3    3    0    0  0.44576790005E+01 -0.18937901634E+01 -0.31273881864E+01  0.57652320322E+01  0.51100000000E-03 0.  1.
        -11    1    3    3    0    0  0.23118306149E+02  0.12698905642E+02 -0.18987871156E+02  0.32500115922E+02  0.51100000000E-03 0. -1.
         12    1    3    3    0    0 -0.70649903690E+00  0.34053036282E+01 -0.88640654760E+01  0.95219163224E+01  0.00000000000E+00 0. -1.
</event>
<event>
 7    1  0.3884463E-009  0.4778724E+02  0.7816164E-02  0.1312668E+00
        -11   -1    0    0    0    0  0.00000000000E+00  0.00000000000E+00  0.45593999997E+02  0.45594000000E+02  0.51100000000E-03 0.  1.
         11   -1    0    0    0    0 -0.00000000000E+00 -0.00000000000E+00 -0.45593999997E+02  0.45594000000E+02  0.51100000000E-03 0. -1.
    9900012    2    1    2    0    0 -0.12890695573E+02 -0.17297547144E+02 -0.37659674997E+02  0.47787236292E+02  0.19999841550E+02 0.  0.
        -12    1    1    2    0    0  0.12890695573E+02  0.17297547144E+02  0.37659674997E+02  0.43400763708E+02  0.00000000000E+00 0.  1.
         11    1    3    3    0    0 -0.21617502569E+01 -0.37870512305E+01 -0.49315657472E+01  0.65829523905E+01  0.51100000000E-03 0. -1.
        -11    1    3    3    0    0 -0.78996862270E+01 -0.14638562729E+02 -0.12653309744E+02  0.20899732271E+02  0.51100000000E-03 0.  1.
         12    1    3    3    0    0 -0.28292590894E+01  0.11280668154E+01 -0.20074799506E+02  0.20304551631E+02  0.00000000000E+00 0. -1.
</event>
<event>
 7    1  0.3884463E-009  0.4778727E+02  0.7816164E-02  0.1312668E+00
        -11   -1    0    0    0    0  0.00000000000E+00  0.00000000000E+00  0.45593999997E+02  0.45594000000E+02  0.51100000000E-03 0.  1.
         11   -1    0    0    0    0 -0.00000000000E+00 -0.00000000000E+00 -0.45593999997E+02  0.45594000000E+02  0.51100000000E-03 0. -1.
    9900012    2    1    2    0    0 -0.21713095766E+02 -0.24936495286E+02 -0.28112916374E+02  0.47787269684E+02  0.19999993798E+02 0.  0.
        -12    1    1    2    0    0  0.21713095766E+02  0.24936495286E+02  0.28112916374E+02  0.43400730316E+02  0.00000000000E+00 0.  1.
         11    1    3    3    0    0  0.40618305623E+00  0.10265627845E+01 -0.32056721023E+01  0.33904497806E+01  0.51100000000E-03 0. -1.
        -11    1    3    3    0    0 -0.12445478182E+02 -0.50335510555E+01 -0.66213364321E+01  0.14968923135E+02  0.51100000000E-03 0.  1.
         12    1    3    3    0    0 -0.96738006400E+01 -0.20929507015E+02 -0.18285907840E+02  0.29427896769E+02  0.00000000000E+00 0. -1.
</event>
<event>
 7    1  0.3884463E-009  0.4778727E+02  0.7816164E-02  0.1312668E+00
        -11   -1    0    0    0    0  0.00000000000E+00  0.00000000000E+00  0.45593999997E+02  0.45594000000E+02  0.51100000000E-03 0.  1.
         11   -1    0    0    0    0 -0.00000000000E+00 -0.00000000000E+00 -0.45593999997E+02  0.45594000000E+02  0.51100000000E-03 0. -1.
    9900012    2    1    2    0    0  0.43055677052E+02 -0.51267799985E+00 -0.54377324344E+01  0.47787273057E+02  0.20000009175E+02 0.  0.
        -12    1    1    2    0    0 -0.43055677052E+02  0.51267799985E+00  0.54377324344E+01  0.43400726943E+02  0.00000000000E+00 0.  1.
         11    1    3    3    0    0  0.54433805571E+01  0.23675852824E+01  0.10310286180E+01  0.60248545402E+01  0.51100000000E-03 0. -1.
        -11    1    3    3    0    0  0.10456864994E+02 -0.58277108515E+00  0.56918983401E+01  0.11919872256E+02  0.51100000000E-03 0.  1.
         12    1    3    3    0    0  0.27155431502E+02 -0.22974921971E+01 -0.12160659392E+02  0.29842546260E+02  0.00000000000E+00 0. -1.
</event>
<event>
 7    1  0.3884463E-009  0.4778727E+02  0.7816164E-02  0.1312668E+00
        -11   -1    0    0    0    0  0.00000000000E+00  0.00000000000E+00  0.45593999997E+02  0.45594000000E+02  0.51100000000E-03 0.  1.
         11   -1    0    0    0    0 -0.00000000000E+00 -0.00000000000E+00 -0.45593999997E+02  0.45594000000E+02  0.51100000000E-03 0. -1.
    9900012    2    1    2    0    0  0.33964334827E+02 -0.20603476246E+02 -0.17479817116E+02  0.47787270973E+02  0.19999999676E+02 0.  0.
        -12    1    1    2    0    0 -0.33964334827E+02  0.20603476246E+02  0.17479817116E+02  0.43400729027E+02  0.00000000000E+00 0.  1.
         11    1    3    3    0    0  0.37325379977E+01 -0.50884645607E+01 -0.37046845131E+01  0.73177181616E+01  0.51100000000E-03 0. -1.
        -11    1    3    3    0    0  0.17368075605E+02 -0.22814788711E+01 -0.13025240045E+00  0.17517767038E+02  0.51100000000E-03 0.  1.
        -12    1    3    3    0    0  0.12863721224E+02 -0.13233532814E+02 -0.13644880202E+02  0.22951785774E+02  0.00000000000E+00 0.  1.
</event>
<event>
 7    1  0.3884463E-009  0.4778729E+02  0.7816164E-02  0.1312668E+00
        -11   -1    0    0    0    0  0.00000000000E+00  0.00000000000E+00  0.45593999997E+02  0.45594000000E+02  0.51100000000E-03 0. -1.
         11   -1    0    0    0    0 -0.00000000000E+00 -0.00000000000E+00 -0.45593999997E+02  0.45594000000E+02  0.51100000000E-03 0.  1.
    9900012    2    1    2    0    0  0.49609153118E+00 -0.63781570337E+01  0.42926616631E+02  0.47787292525E+02  0.20000097939E+02 0.  0.
        -12    1    1    2    0    0 -0.49609153118E+00  0.63781570337E+01 -0.42926616631E+02  0.43400707475E+02  0.00000000000E+00 0.  1.
         11    1    3    3    0    0 -0.47858296665E+00 -0.87246343857E+00  0.70677417771E+01  0.71374510994E+01  0.51100000000E-03 0. -1.
        -11    1    3    3    0    0 -0.13429545687E+01  0.10096344595E+01 -0.17409053486E+01  0.24194297695E+01  0.51100000000E-03 0.  1.
        -12    1    3    3    0    0  0.23176290665E+01 -0.65153280547E+01  0.37599780202E+02  0.38230411656E+02  0.00000000000E+00 0.  1.
</event>
<event>
 7    1  0.3884463E-009  0.4778728E+02  0.7816164E-02  0.1312668E+00
        -11   -1    0    0    0    0  0.00000000000E+00  0.00000000000E+00  0.45593999997E+02  0.45594000000E+02  0.51100000000E-03 0.  1.
         11   -1    0    0    0    0 -0.00000000000E+00 -0.00000000000E+00 -0.45593999997E+02  0.45594000000E+02  0.51100000000E-03 0. -1.
    9900012    2    1    2    0    0 -0.20604880478E+02 -0.31740657957E+02 -0.21250703008E+02  0.47787275981E+02  0.20000022506E+02 0.  0.
        -12    1    1    2    0    0  0.20604880478E+02  0.31740657957E+02  0.21250703008E+02  0.43400724019E+02  0.00000000000E+00 0.  1.
         11    1    3    3    0    0 -0.90148707803E+01 -0.19601545052E+02 -0.14148202522E+02  0.25800389503E+02  0.51100000000E-03 0. -1.
        -11    1    3    3    0    0 -0.13877661205E+02 -0.10656784830E+02 -0.41785146749E+01  0.17989344863E+02  0.51100000000E-03 0.  1.
        -12    1    3    3    0    0  0.22876515075E+01 -0.14823280748E+01 -0.29239858106E+01  0.39975416147E+01  0.00000000000E+00 0.  1.
</event>
<event>
 7    1  0.3884463E-009  0.4778727E+02  0.7816164E-02  0.1312668E+00
        -11   -1    0    0    0    0  0.00000000000E+00  0.00000000000E+00  0.45593999997E+02  0.45594000000E+02  0.51100000000E-03 0.  1.
         11   -1    0    0    0    0 -0.00000000000E+00 -0.00000000000E+00 -0.45593999997E+02  0.45594000000E+02  0.51100000000E-03 0. -1.
    9900012    2    1    2    0    0 -0.39773195769E+02 -0.16608738208E+02  0.50858476703E+01  0.47787272667E+02  0.20000007396E+02 0.  0.
        -12    1    1    2    0    0  0.39773195769E+02  0.16608738208E+02 -0.50858476703E+01  0.43400727333E+02  0.00000000000E+00 0.  1.
         11    1    3    3    0    0 -0.76784505108E+01  0.86708266234E+00  0.11816112858E+01  0.78170736265E+01  0.51100000000E-03 0.  1.
        -11    1    3    3    0    0  0.10686759376E+01 -0.23791959528E+01 -0.16864209109E+01  0.31059068549E+01  0.51100000000E-03 0. -1.
         12    1    3    3    0    0 -0.33163421196E+02 -0.15096624918E+02  0.55906572954E+01  0.36864292185E+02  0.00000000000E+00 0. -1.
</event>
<event>
 7    1  0.3884463E-009  0.4778727E+02  0.7816164E-02  0.1312668E+00
        -11   -1    0    0    0    0  0.00000000000E+00  0.00000000000E+00  0.45593999997E+02  0.45594000000E+02  0.51100000000E-03 0.  1.
         11   -1    0    0    0    0 -0.00000000000E+00 -0.00000000000E+00 -0.45593999997E+02  0.45594000000E+02  0.51100000000E-03 0. -1.
    9900012    2    1    2    0    0 -0.33333647437E+02  0.10928247835E+02  0.25555127381E+02  0.47787272038E+02  0.20000004529E+02 0.  0.
        -12    1    1    2    0    0  0.33333647437E+02 -0.10928247835E+02 -0.25555127381E+02  0.43400727962E+02  0.00000000000E+00 0.  1.
         11    1    3    3    0    0 -0.33423394187E+02  0.88643224768E+01  0.21081773027E+02  0.40498649931E+02  0.51100000000E-03 0. -1.
        -11    1    3    3    0    0 -0.16170185565E+01  0.30709817483E+01  0.39104489042E+01  0.52285073209E+01  0.51100000000E-03 0.  1.
         12    1    3    3    0    0  0.17067653070E+01 -0.10070563905E+01  0.56290545009E+00  0.20601147863E+01  0.00000000000E+00 0. -1.
</event>
<event>
 7    1  0.3884463E-009  0.4778727E+02  0.7816164E-02  0.1312668E+00
        -11   -1    0    0    0    0  0.00000000000E+00  0.00000000000E+00  0.45593999997E+02  0.45594000000E+02  0.51100000000E-03 0. -1.
         11   -1    0    0    0    0 -0.00000000000E+00 -0.00000000000E+00 -0.45593999997E+02  0.45594000000E+02  0.51100000000E-03 0.  1.
    9900012    2    1    2    0    0 -0.14978840228E+02  0.21921091563E+02  0.34332539665E+02  0.47787272013E+02  0.20000004418E+02 0.  0.
        -12    1    1    2    0    0  0.14978840228E+02 -0.21921091563E+02 -0.34332539665E+02  0.43400727987E+02  0.00000000000E+00 0.  1.
         11    1    3    3    0    0 -0.59001673991E+01  0.98911140385E+01  0.54329492863E+01  0.12734325678E+02  0.51100000000E-03 0.  1.
        -11    1    3    3    0    0 -0.10735154978E+02  0.11995582797E+02  0.18504304535E+02  0.24526451957E+02  0.51100000000E-03 0. -1.
        -12    1    3    3    0    0  0.16564821496E+01  0.34394727850E-01  0.10395285844E+02  0.10526494378E+02  0.00000000000E+00 0.  1.
</event>
<event>
 7    1  0.3884463E-009  0.4778727E+02  0.7816164E-02  0.1312668E+00
        -11   -1    0    0    0    0  0.00000000000E+00  0.00000000000E+00  0.45593999997E+02  0.45594000000E+02  0.51100000000E-03 0.  1.
         11   -1    0    0    0    0 -0.00000000000E+00 -0.00000000000E+00 -0.45593999997E+02  0.45594000000E+02  0.51100000000E-03 0. -1.
    9900012    2    1    2    0    0 -0.42970200600E+02  0.25099742095E+01 -0.55574702808E+01  0.47787267448E+02  0.19999983602E+02 0.  0.
        -12    1    1    2    0    0  0.42970200600E+02 -0.25099742095E+01  0.55574702808E+01  0.43400732552E+02  0.00000000000E+00 0.  1.
         11    1    3    3    0    0 -0.59374759912E+01 -0.84399626978E+00 -0.37592184693E+01  0.70779710801E+01  0.51100000000E-03 0. -1.
        -11    1    3    3    0    0 -0.38376042332E+02  0.42984679950E+01 -0.29111195265E+01  0.38725599664E+02  0.51100000000E-03 0.  1.
        -12    1    3    3    0    0  0.13433177232E+01 -0.94449751579E+00  0.11128677151E+01  0.19836967041E+01  0.00000000000E+00 0.  1.
</event>
<event>
 7    1  0.3884463E-009  0.4778727E+02  0.7816164E-02  0.1312668E+00
        -11   -1    0    0    0    0  0.00000000000E+00  0.00000000000E+00  0.45593999997E+02  0.45594000000E+02  0.51100000000E-03 0. -1.
         11   -1    0    0    0    0 -0.00000000000E+00 -0.00000000000E+00 -0.45593999997E+02  0.45594000000E+02  0.51100000000E-03 0.  1.
    9900012    2    1    2    0    0  0.19564119187E+01  0.31346091683E+02  0.29953600746E+02  0.47787271791E+02  0.20000003404E+02 0.  0.
        -12    1    1    2    0    0 -0.19564119187E+01 -0.31346091683E+02 -0.29953600746E+02  0.43400728209E+02  0.00000000000E+00 0.  1.
         11    1    3    3    0    0 -0.40897077040E+01  0.90854716192E+01  0.14365792251E+02  0.17482776979E+02  0.51100000000E-03 0. -1.
        -11    1    3    3    0    0  0.20419364937E-01 -0.14850608112E+01  0.10263152495E+01  0.18053104486E+01  0.51100000000E-03 0.  1.
         12    1    3    3    0    0  0.60257002578E+01  0.23745680875E+02  0.14561493246E+02  0.28499184363E+02  0.00000000000E+00 0. -1.
</event>
<event>
 7    1  0.3884463E-009  0.4778727E+02  0.7816164E-02  0.1312668E+00
        -11   -1    0    0    0    0  0.00000000000E+00  0.00000000000E+00  0.45593999997E+02  0.45594000000E+02  0.51100000000E-03 0. -1.
         11   -1    0    0    0    0 -0.00000000000E+00 -0.00000000000E+00 -0.45593999997E+02  0.45594000000E+02  0.51100000000E-03 0.  1.
    9900012    2    1    2    0    0  0.38860129939E+02 -0.11889374367E+02  0.15236675176E+02  0.47787271986E+02  0.20000004294E+02 0.  0.
        -12    1    1    2    0    0 -0.38860129939E+02  0.11889374367E+02 -0.15236675176E+02  0.43400728014E+02  0.00000000000E+00 0.  1.
         11    1    3    3    0    0  0.64305350078E+01 -0.75845712293E+01  0.25039265267E+01  0.10254128414E+02  0.51100000000E-03 0. -1.
        -11    1    3    3    0    0  0.17589524851E+02 -0.50211410313E+01  0.51833069294E+00  0.18299505695E+02  0.51100000000E-03 0.  1.
        -12    1    3    3    0    0  0.14840070080E+02  0.71633789326E+00  0.12214417957E+02  0.19233637877E+02  0.00000000000E+00 0.  1.
</event>
<event>
 7    1  0.3884463E-009  0.4778727E+02  0.7816164E-02  0.1312668E+00
        -11   -1    0    0    0    0  0.00000000000E+00  0.00000000000E+00  0.45593999997E+02  0.45594000000E+02  0.51100000000E-03 0.  1.
         11   -1    0    0    0    0 -0.00000000000E+00 -0.00000000000E+00 -0.45593999997E+02  0.45594000000E+02  0.51100000000E-03 0. -1.
    9900012    2    1    2    0    0  0.23200761542E+02 -0.11663931780E+02 -0.34775003864E+02  0.47787268043E+02  0.19999986313E+02 0.  0.
        -12    1    1    2    0    0 -0.23200761542E+02  0.11663931780E+02  0.34775003864E+02  0.43400731957E+02  0.00000000000E+00 0.  1.
         11    1    3    3    0    0  0.73240752030E+01  0.85346792511E+00 -0.46167946118E+01  0.86997286065E+01  0.51100000000E-03 0. -1.
        -11    1    3    3    0    0  0.16165880373E+02 -0.11496463511E+02 -0.17704178795E+02  0.26588386723E+02  0.51100000000E-03 0.  1.
         12    1    3    3    0    0 -0.28919403356E+00 -0.10209361938E+01 -0.12454030457E+02  0.12499152713E+02  0.00000000000E+00 0. -1.
</event>
<event>
 7    1  0.3884463E-009  0.4778727E+02  0.7816164E-02  0.1312668E+00
        -11   -1    0    0    0    0  0.00000000000E+00  0.00000000000E+00  0.45593999997E+02  0.45594000000E+02  0.51100000000E-03 0.  1.
         11   -1    0    0    0    0 -0.00000000000E+00 -0.00000000000E+00 -0.45593999997E+02  0.45594000000E+02  0.51100000000E-03 0. -1.
    9900012    2    1    2    0    0 -0.25777162290E+02  0.27929811037E+02 -0.20954392315E+02  0.47787274228E+02  0.20000014514E+02 0.  0.
        -12    1    1    2    0    0  0.25777162290E+02 -0.27929811037E+02  0.20954392315E+02  0.43400725772E+02  0.00000000000E+00 0.  1.
         11    1    3    3    0    0 -0.60340993780E+00  0.16800092920E+01  0.16062522361E+01  0.24013707088E+01  0.51100000000E-03 0. -1.
        -11    1    3    3    0    0  0.56477845498E+00 -0.24797815938E-01 -0.42717990112E+01  0.43090435932E+01  0.51100000000E-03 0.  1.
         12    1    3    3    0    0 -0.25738530807E+02  0.26274599561E+02 -0.18288845540E+02  0.41076859926E+02  0.00000000000E+00 0. -1.
</event>
<event>
 7    1  0.3884463E-009  0.4778727E+02  0.7816164E-02  0.1312668E+00
        -11   -1    0    0    0    0  0.00000000000E+00  0.00000000000E+00  0.45593999997E+02  0.45594000000E+02  0.51100000000E-03 0.  1.
         11   -1    0    0    0    0 -0.00000000000E+00 -0.00000000000E+00 -0.45593999997E+02  0.45594000000E+02  0.51100000000E-03 0. -1.
    9900012    2    1    2    0    0 -0.39988961208E+01 -0.30549136108E+02 -0.30567664618E+02  0.47787274115E+02  0.20000014000E+02 0.  0.
        -12    1    1    2    0    0  0.39988961208E+01  0.30549136108E+02  0.30567664618E+02  0.43400725885E+02  0.00000000000E+00 0.  1.
         11    1    3    3    0    0 -0.38171114306E+01 -0.19876229421E+02 -0.29812828834E+02  0.36033867389E+02  0.51100000000E-03 0. -1.
        -11    1    3    3    0    0 -0.20800144118E+01 -0.36061348366E+01 -0.14378417287E+01  0.44043225939E+01  0.51100000000E-03 0.  1.
         12    1    3    3    0    0  0.18982297215E+01 -0.70667718504E+01  0.68300594433E+00  0.73490841322E+01  0.00000000000E+00 0. -1.
</event>
<event>
 7    1  0.3884463E-009  0.4778727E+02  0.7816164E-02  0.1312668E+00
        -11   -1    0    0    0    0  0.00000000000E+00  0.00000000000E+00  0.45593999997E+02  0.45594000000E+02  0.51100000000E-03 0. -1.
         11   -1    0    0    0    0 -0.00000000000E+00 -0.00000000000E+00 -0.45593999997E+02  0.45594000000E+02  0.51100000000E-03 0.  1.
    9900012    2    1    2    0    0  0.42955631736E+02  0.15041855076E+01 -0.60145149363E+01  0.47787271184E+02  0.20000000634E+02 0.  0.
        -12    1    1    2    0    0 -0.42955631736E+02 -0.15041855076E+01  0.60145149363E+01  0.43400728816E+02  0.00000000000E+00 0.  1.
         11    1    3    3    0    0 -0.35262384679E-01  0.10897295911E+01 -0.17079915906E-01  0.10904338596E+01  0.51100000000E-03 0. -1.
        -11    1    3    3    0    0  0.14576751827E+02 -0.74834514467E+01  0.89807577337E+00  0.16410066415E+02  0.51100000000E-03 0.  1.
         12    1    3    3    0    0  0.28414142293E+02  0.78979073632E+01 -0.68955107938E+01  0.30286770909E+02  0.00000000000E+00 0. -1.
</event>
<event>
 7    1  0.3884463E-009  0.4778727E+02  0.7816164E-02  0.1312668E+00
        -11   -1    0    0    0    0  0.00000000000E+00  0.00000000000E+00  0.45593999997E+02  0.45594000000E+02  0.51100000000E-03 0.  1.
         11   -1    0    0    0    0 -0.00000000000E+00 -0.00000000000E+00 -0.45593999997E+02  0.45594000000E+02  0.51100000000E-03 0. -1.
    9900012    2    1    2    0    0  0.13464281468E+02  0.29877059719E+01 -0.41151063178E+02  0.47787271168E+02  0.20000000564E+02 0.  0.
        -12    1    1    2    0    0 -0.13464281468E+02 -0.29877059719E+01  0.41151063178E+02  0.43400728832E+02  0.00000000000E+00 0.  1.
         11    1    3    3    0    0  0.73248851929E+01  0.30483681354E+01 -0.22590220045E+02  0.23942943289E+02  0.51100000000E-03 0. -1.
        -11    1    3    3    0    0  0.10293728312E+02  0.64165448501E+00 -0.15575120255E+02  0.18680389029E+02  0.51100000000E-03 0.  1.
        -12    1    3    3    0    0 -0.41543320372E+01 -0.70231664851E+00 -0.29857228780E+01  0.51639388508E+01  0.00000000000E+00 0.  1.
</event>
<event>
 7    1  0.3884463E-009  0.4778727E+02  0.7816164E-02  0.1312668E+00
        -11   -1    0    0    0    0  0.00000000000E+00  0.00000000000E+00  0.45593999997E+02  0.45594000000E+02  0.51100000000E-03 0.  1.
         11   -1    0    0    0    0 -0.00000000000E+00 -0.00000000000E+00 -0.45593999997E+02  0.45594000000E+02  0.51100000000E-03 0. -1.
    9900012    2    1    2    0    0  0.81918262480E+01 -0.90676417699E+01 -0.41644868263E+02  0.47787271928E+02  0.20000004027E+02 0.  0.
        -12    1    1    2    0    0 -0.81918262480E+01  0.90676417699E+01  0.41644868263E+02  0.43400728072E+02  0.00000000000E+00 0.  1.
         11    1    3    3    0    0  0.52340009893E+00 -0.35009367999E+01 -0.12097608224E+02  0.12604865376E+02  0.51100000000E-03 0. -1.
        -11    1    3    3    0    0 -0.29350471295E+01  0.22573615938E+01 -0.11509972725E+01  0.38774963572E+01  0.51100000000E-03 0.  1.
        -12    1    3    3    0    0  0.10603473279E+02 -0.78240665638E+01 -0.28396262767E+02  0.31304910194E+02  0.00000000000E+00 0.  1.
</event>
<event>
 7    1  0.3884463E-009  0.4778726E+02  0.7816164E-02  0.1312668E+00
        -11   -1    0    0    0    0  0.00000000000E+00  0.00000000000E+00  0.45593999997E+02  0.45594000000E+02  0.51100000000E-03 0.  1.
         11   -1    0    0    0    0 -0.00000000000E+00 -0.00000000000E+00 -0.45593999997E+02  0.45594000000E+02  0.51100000000E-03 0. -1.
    9900012    2    1    2    0    0  0.10117008821E+02 -0.17995099566E+02 -0.38176520905E+02  0.47787260095E+02  0.19999950076E+02 0.  0.
        -12    1    1    2    0    0 -0.10117008821E+02  0.17995099566E+02  0.38176520905E+02  0.43400739905E+02  0.00000000000E+00 0.  1.
         11    1    3    3    0    0  0.23011464677E+01  0.15847874838E+01 -0.10023914046E+02  0.10406040530E+02  0.51100000000E-03 0. -1.
        -11    1    3    3    0    0  0.86975522471E+01 -0.79019191324E+01 -0.19698912971E+02  0.22937630950E+02  0.51100000000E-03 0.  1.
         12    1    3    3    0    0 -0.88168989393E+00 -0.11677967917E+02 -0.84536938877E+01  0.14443588616E+02  0.00000000000E+00 0. -1.
</event>
<event>
 7    1  0.3884463E-009  0.4778727E+02  0.7816164E-02  0.1312668E+00
        -11   -1    0    0    0    0  0.00000000000E+00  0.00000000000E+00  0.45593999997E+02  0.45594000000E+02  0.51100000000E-03 0.  1.
         11   -1    0    0    0    0 -0.00000000000E+00 -0.00000000000E+00 -0.45593999997E+02  0.45594000000E+02  0.51100000000E-03 0. -1.
    9900012    2    1    2    0    0  0.11276672863E+02 -0.64407924197E+01 -0.41412270265E+02  0.47787270900E+02  0.19999999343E+02 0.  0.
        -12    1    1    2    0    0 -0.11276672863E+02  0.64407924197E+01  0.41412270265E+02  0.43400729100E+02  0.00000000000E+00 0.  1.
         11    1    3    3    0    0  0.93515974965E+01 -0.69231554278E+01 -0.29324286971E+02  0.31548316333E+02  0.51100000000E-03 0. -1.
        -11    1    3    3    0    0  0.88272016327E+00  0.21334967093E+01 -0.13584180718E+02  0.13779004650E+02  0.51100000000E-03 0.  1.
        -12    1    3    3    0    0  0.10423552033E+01 -0.16511337012E+01  0.14961974235E+01  0.24599499180E+01  0.00000000000E+00 0.  1.
</event>
<event>
 7    1  0.3884463E-009  0.4778727E+02  0.7816164E-02  0.1312668E+00
        -11   -1    0    0    0    0  0.00000000000E+00  0.00000000000E+00  0.45593999997E+02  0.45594000000E+02  0.51100000000E-03 0.  1.
         11   -1    0    0    0    0 -0.00000000000E+00 -0.00000000000E+00 -0.45593999997E+02  0.45594000000E+02  0.51100000000E-03 0. -1.
    9900012    2    1    2    0    0  0.24345558973E+02  0.18880013400E+02 -0.30568975277E+02  0.47787269624E+02  0.19999993526E+02 0.  0.
        -12    1    1    2    0    0 -0.24345558973E+02 -0.18880013400E+02  0.30568975277E+02  0.43400730376E+02  0.00000000000E+00 0.  1.
         11    1    3    3    0    0  0.24003604353E+01  0.72529265773E+01 -0.90132546157E+00  0.76927928611E+01  0.51100000000E-03 0.  1.
        -11    1    3    3    0    0  0.51399188793E+01  0.56439728288E+01 -0.34343716415E+01  0.83706692810E+01  0.51100000000E-03 0. -1.
        -12    1    3    3    0    0  0.16805279658E+02  0.59831139937E+01 -0.26233278174E+02  0.31723807482E+02  0.00000000000E+00 0.  1.
</event>
<event>
 7    1  0.3884463E-009  0.4778730E+02  0.7816164E-02  0.1312668E+00
        -11   -1    0    0    0    0  0.00000000000E+00  0.00000000000E+00  0.45593999997E+02  0.45594000000E+02  0.51100000000E-03 0.  1.
         11   -1    0    0    0    0 -0.00000000000E+00 -0.00000000000E+00 -0.45593999997E+02  0.45594000000E+02  0.51100000000E-03 0. -1.
    9900012    2    1    2    0    0 -0.93799627043E+01  0.18193701127E+02 -0.38270441163E+02  0.47787295768E+02  0.20000112723E+02 0.  0.
        -12    1    1    2    0    0  0.93799627043E+01 -0.18193701127E+02  0.38270441163E+02  0.43400704232E+02  0.00000000000E+00 0.  1.
         11    1    3    3    0    0 -0.90553093717E+01  0.11002456952E+02 -0.14941237498E+02  0.20646870587E+02  0.51100000000E-03 0. -1.
        -11    1    3    3    0    0 -0.46778429033E+01  0.59931164958E+01 -0.74981527551E+01  0.10678106319E+02  0.51100000000E-03 0.  1.
        -12    1    3    3    0    0  0.43531895706E+01  0.11981276783E+01 -0.15831050910E+02  0.16462318862E+02  0.00000000000E+00 0.  1.
</event>
<event>
 7    1  0.3884463E-009  0.4778727E+02  0.7816164E-02  0.1312668E+00
        -11   -1    0    0    0    0  0.00000000000E+00  0.00000000000E+00  0.45593999997E+02  0.45594000000E+02  0.51100000000E-03 0.  1.
         11   -1    0    0    0    0 -0.00000000000E+00 -0.00000000000E+00 -0.45593999997E+02  0.45594000000E+02  0.51100000000E-03 0. -1.
    9900012    2    1    2    0    0  0.24600236554E+02 -0.66145279806E+01 -0.35138292806E+02  0.47787271432E+02  0.20000001768E+02 0.  0.
        -12    1    1    2    0    0 -0.24600236554E+02  0.66145279806E+01  0.35138292806E+02  0.43400728568E+02  0.00000000000E+00 0.  1.
         11    1    3    3    0    0  0.17502732937E+01 -0.11298665637E+01  0.66224956610E+00  0.21860077317E+01  0.51100000000E-03 0.  1.
        -11    1    3    3    0    0  0.61856056448E+00 -0.59583460170E+01 -0.82856316606E+01  0.10224294436E+02  0.51100000000E-03 0. -1.
         12    1    3    3    0    0  0.22231402696E+02  0.47368460013E+00 -0.27514910711E+02  0.35376969265E+02  0.00000000000E+00 0. -1.
</event>
<event>
 7    1  0.3884463E-009  0.4778727E+02  0.7816164E-02  0.1312668E+00
        -11   -1    0    0    0    0  0.00000000000E+00  0.00000000000E+00  0.45593999997E+02  0.45594000000E+02  0.51100000000E-03 0.  1.
         11   -1    0    0    0    0 -0.00000000000E+00 -0.00000000000E+00 -0.45593999997E+02  0.45594000000E+02  0.51100000000E-03 0. -1.
    9900012    2    1    2    0    0  0.18551994657E+01 -0.32283598694E+02 -0.28947376212E+02  0.47787273056E+02  0.20000009170E+02 0.  0.
        -12    1    1    2    0    0 -0.18551994657E+01  0.32283598694E+02  0.28947376212E+02  0.43400726944E+02  0.00000000000E+00 0.  1.
         11    1    3    3    0    0 -0.40738928658E+00 -0.16492558942E+02 -0.11653745735E+02  0.20198521144E+02  0.51100000000E-03 0. -1.
        -11    1    3    3    0    0 -0.33006309032E+01 -0.38240694859E+01  0.88148937500E+00  0.51278353690E+01  0.51100000000E-03 0.  1.
         12    1    3    3    0    0  0.55632196555E+01 -0.11966970267E+02 -0.18175119852E+02  0.22460916543E+02  0.00000000000E+00 0. -1.
</event>
<event>
 7    1  0.3884463E-009  0.4778727E+02  0.7816164E-02  0.1312668E+00
        -11   -1    0    0    0    0  0.00000000000E+00  0.00000000000E+00  0.45593999997E+02  0.45594000000E+02  0.51100000000E-03 0. -1.
         11   -1    0    0    0    0 -0.00000000000E+00 -0.00000000000E+00 -0.45593999997E+02  0.45594000000E+02  0.51100000000E-03 0.  1.
    9900012    2    1    2    0    0 -0.26401906250E+02  0.25480000597E+02  0.23180429568E+02  0.47787269602E+02  0.19999993425E+02 0.  0.
        -12    1    1    2    0    0  0.26401906250E+02 -0.25480000597E+02 -0.23180429568E+02  0.43400730398E+02  0.00000000000E+00 0.  1.
         11    1    3    3    0    0 -0.16071149045E+01 -0.97273760345E+00  0.12854877971E+01  0.22762943349E+01  0.51100000000E-03 0.  1.
        -11    1    3    3    0    0 -0.30242864953E+01  0.12860350073E+02  0.27568296989E+01  0.13495740923E+02  0.51100000000E-03 0. -1.
         12    1    3    3    0    0 -0.21770504851E+02  0.13592388128E+02  0.19138112072E+02  0.32015234345E+02  0.00000000000E+00 0. -1.
</event>
<event>
 7    1  0.3884463E-009  0.4778726E+02  0.7816164E-02  0.1312668E+00
        -11   -1    0    0    0    0  0.00000000000E+00  0.00000000000E+00  0.45593999997E+02  0.45594000000E+02  0.51100000000E-03 0. -1.
         11   -1    0    0    0    0 -0.00000000000E+00 -0.00000000000E+00 -0.45593999997E+02  0.45594000000E+02  0.51100000000E-03 0.  1.
    9900012    2    1    2    0    0  0.10733086496E+02 -0.41059647213E+02  0.90846087025E+01  0.47787263943E+02  0.19999967623E+02 0.  0.
        -12    1    1    2    0    0 -0.10733086496E+02  0.41059647213E+02 -0.90846087025E+01  0.43400736057E+02  0.00000000000E+00 0.  1.
         11    1    3    3    0    0 -0.40184823059E+00 -0.57402381085E+01  0.24032477116E+01  0.62359774989E+01  0.51100000000E-03 0. -1.
        -11    1    3    3    0    0 -0.19780322576E+01  0.23320719766E+00 -0.18395950929E+01  0.27112926024E+01  0.51100000000E-03 0.  1.
         12    1    3    3    0    0  0.13112966984E+02 -0.35552616302E+02  0.85209560838E+01  0.38839993842E+02  0.00000000000E+00 0. -1.
</event>
<event>
 7    1  0.3884463E-009  0.4778726E+02  0.7816164E-02  0.1312668E+00
        -11   -1    0    0    0    0  0.00000000000E+00  0.00000000000E+00  0.45593999997E+02  0.45594000000E+02  0.51100000000E-03 0.  1.
         11   -1    0    0    0    0 -0.00000000000E+00 -0.00000000000E+00 -0.45593999997E+02  0.45594000000E+02  0.51100000000E-03 0. -1.
    9900012    2    1    2    0    0 -0.23391453161E+02 -0.34050567570E+02  0.13304986421E+02  0.47787263872E+02  0.19999967296E+02 0.  0.
        -12    1    1    2    0    0  0.23391453161E+02  0.34050567570E+02 -0.13304986421E+02  0.43400736128E+02  0.00000000000E+00 0.  1.
         11    1    3    3    0    0  0.11513071255E+01 -0.65706891471E+01  0.42995985991E+01  0.79363727445E+01  0.51100000000E-03 0. -1.
        -11    1    3    3    0    0 -0.39876500774E+01 -0.12483838872E+02  0.85366042641E+00  0.13133024119E+02  0.51100000000E-03 0.  1.
         12    1    3    3    0    0 -0.20555110210E+02 -0.14996039551E+02  0.81517273953E+01  0.26717867008E+02  0.00000000000E+00 0. -1.
</event>
<event>
 7    1  0.3884463E-009  0.4778727E+02  0.7816164E-02  0.1312668E+00
        -11   -1    0    0    0    0  0.00000000000E+00  0.00000000000E+00  0.45593999997E+02  0.45594000000E+02  0.51100000000E-03 0.  1.
         11   -1    0    0    0    0 -0.00000000000E+00 -0.00000000000E+00 -0.45593999997E+02  0.45594000000E+02  0.51100000000E-03 0. -1.
    9900012    2    1    2    0    0 -0.49090802133E+01  0.15776839635E+02 -0.40132478204E+02  0.47787267930E+02  0.19999985801E+02 0.  0.
        -12    1    1    2    0    0  0.49090802133E+01 -0.15776839635E+02  0.40132478204E+02  0.43400732070E+02  0.00000000000E+00 0.  1.
         11    1    3    3    0    0 -0.82268359721E+00  0.51670889115E+01 -0.19058237303E+02  0.19763401162E+02  0.51100000000E-03 0. -1.
        -11    1    3    3    0    0 -0.62844763663E+00  0.82478625543E+01 -0.22197176050E+02  0.23688326408E+02  0.51100000000E-03 0.  1.
        -12    1    3    3    0    0 -0.34579489795E+01  0.23618881692E+01  0.11229351491E+01  0.43355403605E+01  0.00000000000E+00 0.  1.
</event>
<event>
 7    1  0.3884463E-009  0.4778726E+02  0.7816164E-02  0.1312668E+00
        -11   -1    0    0    0    0  0.00000000000E+00  0.00000000000E+00  0.45593999997E+02  0.45594000000E+02  0.51100000000E-03 0. -1.
         11   -1    0    0    0    0 -0.00000000000E+00 -0.00000000000E+00 -0.45593999997E+02  0.45594000000E+02  0.51100000000E-03 0.  1.
    9900012    2    1    2    0    0  0.35100148683E+01  0.10958319960E+02  0.41847567015E+02  0.47787264456E+02  0.19999969960E+02 0.  0.
        -12    1    1    2    0    0 -0.35100148683E+01 -0.10958319960E+02 -0.41847567015E+02  0.43400735544E+02  0.00000000000E+00 0.  1.
         11    1    3    3    0    0  0.52949671107E+01  0.38325976713E+01  0.53495857202E+01  0.84465110698E+01  0.51100000000E-03 0. -1.
        -11    1    3    3    0    0 -0.11785353169E+01  0.37328613248E+01  0.15292780106E+01  0.42026052227E+01  0.51100000000E-03 0.  1.
         12    1    3    3    0    0 -0.60641692548E+00  0.33928609643E+01  0.34968703284E+02  0.35138148163E+02  0.00000000000E+00 0. -1.
</event>
<event>
 7    1  0.3884463E-009  0.4778728E+02  0.7816164E-02  0.1312668E+00
        -11   -1    0    0    0    0  0.00000000000E+00  0.00000000000E+00  0.45593999997E+02  0.45594000000E+02  0.51100000000E-03 0. -1.
         11   -1    0    0    0    0 -0.00000000000E+00 -0.00000000000E+00 -0.45593999997E+02  0.45594000000E+02  0.51100000000E-03 0.  1.
    9900012    2    1    2    0    0  0.42613555290E+02 -0.22726751779E+01 -0.79083680519E+01  0.47787280741E+02  0.20000044212E+02 0.  0.
        -12    1    1    2    0    0 -0.42613555290E+02  0.22726751779E+01  0.79083680519E+01  0.43400719259E+02  0.00000000000E+00 0.  1.
         11    1    3    3    0    0  0.19727416213E+02 -0.10318487933E+02 -0.28735305077E+01  0.22447701920E+02  0.51100000000E-03 0. -1.
        -11    1    3    3    0    0  0.15957027937E+01  0.61738541142E-01 -0.17436037611E+01  0.23643674398E+01  0.51100000000E-03 0.  1.
         12    1    3    3    0    0  0.21290436284E+02  0.79840742140E+01 -0.32912337831E+01  0.22975211381E+02  0.00000000000E+00 0. -1.
</event>
<event>
 7    1  0.3884463E-009  0.4778726E+02  0.7816164E-02  0.1312668E+00
        -11   -1    0    0    0    0  0.00000000000E+00  0.00000000000E+00  0.45593999997E+02  0.45594000000E+02  0.51100000000E-03 0.  1.
         11   -1    0    0    0    0 -0.00000000000E+00 -0.00000000000E+00 -0.45593999997E+02  0.45594000000E+02  0.51100000000E-03 0. -1.
    9900012    2    1    2    0    0 -0.63549605050E+01  0.21103071363E+02 -0.37388488591E+02  0.47787260109E+02  0.19999950143E+02 0.  0.
        -12    1    1    2    0    0  0.63549605050E+01 -0.21103071363E+02  0.37388488591E+02  0.43400739891E+02  0.00000000000E+00 0.  1.
         11    1    3    3    0    0 -0.63983104328E+01  0.78899220898E+01 -0.13037962486E+02  0.16528088608E+02  0.51100000000E-03 0. -1.
        -11    1    3    3    0    0  0.62268645475E+00  0.15043186790E+02 -0.13443345925E+02  0.20184369129E+02  0.51100000000E-03 0.  1.
        -12    1    3    3    0    0 -0.57933652698E+00 -0.18300375169E+01 -0.10907180180E+02  0.11074802373E+02  0.00000000000E+00 0.  1.
</event>
<event>
 7    1  0.3884463E-009  0.4778727E+02  0.7816164E-02  0.1312668E+00
        -11   -1    0    0    0    0  0.00000000000E+00  0.00000000000E+00  0.45593999997E+02  0.45594000000E+02  0.51100000000E-03 0.  1.
         11   -1    0    0    0    0 -0.00000000000E+00 -0.00000000000E+00 -0.45593999997E+02  0.45594000000E+02  0.51100000000E-03 0. -1.
    9900012    2    1    2    0    0  0.35772452773E+02 -0.30049814714E+01 -0.24391091820E+02  0.47787266698E+02  0.19999980182E+02 0.  0.
        -12    1    1    2    0    0 -0.35772452773E+02  0.30049814714E+01  0.24391091820E+02  0.43400733302E+02  0.00000000000E+00 0.  1.
         11    1    3    3    0    0  0.10325274059E+02 -0.57739682425E+01 -0.96020335241E+01  0.15236437961E+02  0.51100000000E-03 0.  1.
        -11    1    3    3    0    0  0.20991777641E+02  0.64796131456E+01 -0.74504461303E+01  0.23198044376E+02  0.51100000000E-03 0. -1.
         12    1    3    3    0    0  0.44554010719E+01 -0.37106263745E+01 -0.73386121652E+01  0.93527843616E+01  0.00000000000E+00 0. -1.
</event>
<event>
 7    1  0.3884463E-009  0.4778727E+02  0.7816164E-02  0.1312668E+00
        -11   -1    0    0    0    0  0.00000000000E+00  0.00000000000E+00  0.45593999997E+02  0.45594000000E+02  0.51100000000E-03 0.  1.
         11   -1    0    0    0    0 -0.00000000000E+00 -0.00000000000E+00 -0.45593999997E+02  0.45594000000E+02  0.51100000000E-03 0. -1.
    9900012    2    1    2    0    0 -0.28247796860E+02 -0.26003934525E+02 -0.20235621235E+02  0.47787274142E+02  0.20000014122E+02 0.  0.
        -12    1    1    2    0    0  0.28247796860E+02  0.26003934525E+02  0.20235621235E+02  0.43400725858E+02  0.00000000000E+00 0.  1.
         11    1    3    3    0    0  0.50813776262E+00 -0.30501147491E+01 -0.18700533038E+01  0.36136551563E+01  0.51100000000E-03 0.  1.
        -11    1    3    3    0    0 -0.31213759606E+01 -0.34877181579E+01  0.29823149976E+01  0.55498980930E+01  0.51100000000E-03 0. -1.
         12    1    3    3    0    0 -0.25634558662E+02 -0.19466101618E+02 -0.21347882929E+02  0.38623720892E+02  0.00000000000E+00 0. -1.
</event>
<event>
 7    1  0.3884463E-009  0.4778727E+02  0.7816164E-02  0.1312668E+00
        -11   -1    0    0    0    0  0.00000000000E+00  0.00000000000E+00  0.45593999997E+02  0.45594000000E+02  0.51100000000E-03 0.  1.
         11   -1    0    0    0    0 -0.00000000000E+00 -0.00000000000E+00 -0.45593999997E+02  0.45594000000E+02  0.51100000000E-03 0. -1.
    9900012    2    1    2    0    0 -0.25073332517E+02  0.64449928983E+00 -0.35419434079E+02  0.47787266212E+02  0.19999977968E+02 0.  0.
        -12    1    1    2    0    0  0.25073332517E+02 -0.64449928983E+00  0.35419434079E+02  0.43400733788E+02  0.00000000000E+00 0.  1.
         11    1    3    3    0    0 -0.18089930145E+01  0.37487045757E+01 -0.49945014905E+01  0.65015603605E+01  0.51100000000E-03 0. -1.
        -11    1    3    3    0    0 -0.10743489727E+01 -0.54774849307E+01 -0.56695889802E+01  0.79562118088E+01  0.51100000000E-03 0.  1.
         12    1    3    3    0    0 -0.22189990530E+02  0.23732796448E+01 -0.24755343608E+02  0.33329494043E+02  0.00000000000E+00 0. -1.
</event>
<event>
 7    1  0.3884463E-009  0.4778728E+02  0.7816164E-02  0.1312668E+00
        -11   -1    0    0    0    0  0.00000000000E+00  0.00000000000E+00  0.45593999997E+02  0.45594000000E+02  0.51100000000E-03 0. -1.
         11   -1    0    0    0    0 -0.00000000000E+00 -0.00000000000E+00 -0.45593999997E+02  0.45594000000E+02  0.51100000000E-03 0.  1.
    9900012    2    1    2    0    0  0.17924293646E+01 -0.22352209892E+02  0.37158960386E+02  0.47787280801E+02  0.20000044483E+02 0.  0.
        -12    1    1    2    0    0 -0.17924293646E+01  0.22352209892E+02 -0.37158960386E+02  0.43400719199E+02  0.00000000000E+00 0.  1.
         11    1    3    3    0    0  0.22343534732E+01 -0.20687947328E+01  0.63864965164E+01  0.70752798605E+01  0.51100000000E-03 0. -1.
        -11    1    3    3    0    0 -0.19959670844E+01  0.16410373466E+01  0.10492261368E+02  0.10805759439E+02  0.51100000000E-03 0.  1.
         12    1    3    3    0    0  0.15540429758E+01 -0.21924452505E+02  0.20280202501E+02  0.29906241501E+02  0.00000000000E+00 0. -1.
</event>
<event>
 7    1  0.3884463E-009  0.4778727E+02  0.7816164E-02  0.1312668E+00
        -11   -1    0    0    0    0  0.00000000000E+00  0.00000000000E+00  0.45593999997E+02  0.45594000000E+02  0.51100000000E-03 0. -1.
         11   -1    0    0    0    0 -0.00000000000E+00 -0.00000000000E+00 -0.45593999997E+02  0.45594000000E+02  0.51100000000E-03 0.  1.
    9900012    2    1    2    0    0 -0.95157094390E+00 -0.30101081113E+02  0.31251287311E+02  0.47787268093E+02  0.19999986543E+02 0.  0.
        -12    1    1    2    0    0  0.95157094390E+00  0.30101081113E+02 -0.31251287311E+02  0.43400731907E+02  0.00000000000E+00 0.  1.
         11    1    3    3    0    0 -0.21722142766E+01 -0.27813591316E+02  0.28849465368E+02  0.40132356385E+02  0.51100000000E-03 0. -1.
        -11    1    3    3    0    0 -0.65793527294E+00 -0.30988055319E+01  0.39684334768E+01  0.50777887972E+01  0.51100000000E-03 0.  1.
        -12    1    3    3    0    0  0.18785786056E+01  0.81131573438E+00 -0.15666115337E+01  0.25771229105E+01  0.00000000000E+00 0.  1.
</event>
<event>
 7    1  0.3884463E-009  0.4778727E+02  0.7816164E-02  0.1312668E+00
        -11   -1    0    0    0    0  0.00000000000E+00  0.00000000000E+00  0.45593999997E+02  0.45594000000E+02  0.51100000000E-03 0.  1.
         11   -1    0    0    0    0 -0.00000000000E+00 -0.00000000000E+00 -0.45593999997E+02  0.45594000000E+02  0.51100000000E-03 0. -1.
    9900012    2    1    2    0    0 -0.69952941611E+01  0.19920034401E+02 -0.37919403490E+02  0.47787273371E+02  0.20000010607E+02 0.  0.
        -12    1    1    2    0    0  0.69952941611E+01 -0.19920034401E+02  0.37919403490E+02  0.43400726629E+02  0.00000000000E+00 0.  1.
         11    1    3    3    0    0  0.26467562402E+01  0.85619671493E+01 -0.20352755915E+02  0.22238418866E+02  0.51100000000E-03 0. -1.
        -11    1    3    3    0    0 -0.65958863761E+01  0.95399432189E+01 -0.18541236190E+02  0.21869926233E+02  0.51100000000E-03 0.  1.
        -12    1    3    3    0    0 -0.30461640252E+01  0.18181240329E+01  0.97458861484E+00  0.36789282727E+01  0.00000000000E+00 0.  1.
</event>
<event>
 7    1  0.3884463E-009  0.4778727E+02  0.7816164E-02  0.1312668E+00
        -11   -1    0    0    0    0  0.00000000000E+00  0.00000000000E+00  0.45593999997E+02  0.45594000000E+02  0.51100000000E-03 0.  1.
         11   -1    0    0    0    0 -0.00000000000E+00 -0.00000000000E+00 -0.45593999997E+02  0.45594000000E+02  0.51100000000E-03 0. -1.
    9900012    2    1    2    0    0 -0.18793570025E+02 -0.19762942566E+02 -0.33761687316E+02  0.47787266094E+02  0.19999977430E+02 0.  0.
        -12    1    1    2    0    0  0.18793570025E+02  0.19762942566E+02  0.33761687316E+02  0.43400733906E+02  0.00000000000E+00 0.  1.
         11    1    3    3    0    0 -0.14057715167E+02 -0.86221798728E+01 -0.14004730165E+02  0.21635475699E+02  0.51100000000E-03 0. -1.
        -11    1    3    3    0    0 -0.96317857781E-01  0.12523637866E+01 -0.90302957843E+01  0.91172328256E+01  0.51100000000E-03 0.  1.
         12    1    3    3    0    0 -0.46395370005E+01 -0.12393126479E+02 -0.10726661366E+02  0.17034557569E+02  0.00000000000E+00 0. -1.
</event>
<event>
 7    1  0.3884463E-009  0.4778727E+02  0.7816164E-02  0.1312668E+00
        -11   -1    0    0    0    0  0.00000000000E+00  0.00000000000E+00  0.45593999997E+02  0.45594000000E+02  0.51100000000E-03 0.  1.
         11   -1    0    0    0    0 -0.00000000000E+00 -0.00000000000E+00 -0.45593999997E+02  0.45594000000E+02  0.51100000000E-03 0. -1.
    9900012    2    1    2    0    0  0.23337270222E+02  0.57800097896E+01 -0.36132900732E+02  0.47787271781E+02  0.20000003361E+02 0.  0.
        -12    1    1    2    0    0 -0.23337270222E+02 -0.57800097896E+01  0.36132900732E+02  0.43400728219E+02  0.00000000000E+00 0.  1.
         11    1    3    3    0    0  0.69713836971E+01 -0.42369623667E+01 -0.14326226799E+02  0.16486140097E+02  0.51100000000E-03 0. -1.
        -11    1    3    3    0    0  0.15543982846E+01 -0.18759522696E+01 -0.63843679763E+01  0.68334109831E+01  0.51100000000E-03 0.  1.
        -12    1    3    3    0    0  0.14811488240E+02  0.11892924426E+02 -0.15422305957E+02  0.24467720701E+02  0.00000000000E+00 0.  1.
</event>
<event>
 7    1  0.3884463E-009  0.4778727E+02  0.7816164E-02  0.1312668E+00
        -11   -1    0    0    0    0  0.00000000000E+00  0.00000000000E+00  0.45593999997E+02  0.45594000000E+02  0.51100000000E-03 0.  1.
         11   -1    0    0    0    0 -0.00000000000E+00 -0.00000000000E+00 -0.45593999997E+02  0.45594000000E+02  0.51100000000E-03 0. -1.
    9900012    2    1    2    0    0  0.39964244105E+01 -0.17566365092E+02 -0.39485116034E+02  0.47787274443E+02  0.20000015496E+02 0.  0.
        -12    1    1    2    0    0 -0.39964244105E+01  0.17566365092E+02  0.39485116034E+02  0.43400725557E+02  0.00000000000E+00 0.  1.
         11    1    3    3    0    0  0.75588726530E+01 -0.61787081876E+01 -0.46528403228E+01  0.10814893156E+02  0.51100000000E-03 0.  1.
        -11    1    3    3    0    0 -0.22577197393E+01 -0.31276809431E+01 -0.82808239876E+01  0.91351919891E+01  0.51100000000E-03 0. -1.
        -12    1    3    3    0    0 -0.13047285032E+01 -0.82599759612E+01 -0.26551451724E+02  0.27837189298E+02  0.00000000000E+00 0.  1.
</event>
<event>
 7    1  0.3884463E-009  0.4778726E+02  0.7816164E-02  0.1312668E+00
        -11   -1    0    0    0    0  0.00000000000E+00  0.00000000000E+00  0.45593999997E+02  0.45594000000E+02  0.51100000000E-03 0.  1.
         11   -1    0    0    0    0 -0.00000000000E+00 -0.00000000000E+00 -0.45593999997E+02  0.45594000000E+02  0.51100000000E-03 0. -1.
    9900012    2    1    2    0    0 -0.25953896448E+02 -0.27301171208E+02 -0.21556092636E+02  0.47787264754E+02  0.19999971320E+02 0.  0.
        -12    1    1    2    0    0  0.25953896448E+02  0.27301171208E+02  0.21556092636E+02  0.43400735246E+02  0.00000000000E+00 0.  1.
         11    1    3    3    0    0 -0.47112342719E+01 -0.20689294465E+00 -0.20496052580E+01  0.51419271708E+01  0.51100000000E-03 0. -1.
        -11    1    3    3    0    0 -0.13146852700E+02 -0.46022651861E+01 -0.86005532959E+01  0.16370403111E+02  0.51100000000E-03 0.  1.
         12    1    3    3    0    0 -0.80958094764E+01 -0.22492013077E+02 -0.10905934083E+02  0.26274934473E+02  0.00000000000E+00 0. -1.
</event>
<event>
 7    1  0.3884463E-009  0.4778727E+02  0.7816164E-02  0.1312668E+00
        -11   -1    0    0    0    0  0.00000000000E+00  0.00000000000E+00  0.45593999997E+02  0.45594000000E+02  0.51100000000E-03 0.  1.
         11   -1    0    0    0    0 -0.00000000000E+00 -0.00000000000E+00 -0.45593999997E+02  0.45594000000E+02  0.51100000000E-03 0. -1.
    9900012    2    1    2    0    0 -0.79939738313E+01  0.58866155902E-01 -0.42658129707E+02  0.47787272899E+02  0.20000008454E+02 0.  0.
        -12    1    1    2    0    0  0.79939738313E+01 -0.58866155902E-01  0.42658129707E+02  0.43400727101E+02  0.00000000000E+00 0.  1.
         11    1    3    3    0    0 -0.42235108416E+01 -0.63344100529E+01 -0.15736096739E+02  0.17481062193E+02  0.51100000000E-03 0.  1.
        -11    1    3    3    0    0 -0.42981851994E+01  0.93019940265E+01 -0.24231019987E+02  0.26308626318E+02  0.51100000000E-03 0. -1.
         12    1    3    3    0    0  0.52772220981E+00 -0.29087178176E+01 -0.26910129814E+01  0.39975843880E+01  0.00000000000E+00 0. -1.
</event>
<event>
 7    1  0.3884463E-009  0.4778727E+02  0.7816164E-02  0.1312668E+00
        -11   -1    0    0    0    0  0.00000000000E+00  0.00000000000E+00  0.45593999997E+02  0.45594000000E+02  0.51100000000E-03 0.  1.
         11   -1    0    0    0    0 -0.00000000000E+00 -0.00000000000E+00 -0.45593999997E+02  0.45594000000E+02  0.51100000000E-03 0. -1.
    9900012    2    1    2    0    0 -0.41750574386E+01  0.19952699305E+02 -0.38315561881E+02  0.47787267329E+02  0.19999983058E+02 0.  0.
        -12    1    1    2    0    0  0.41750574386E+01 -0.19952699305E+02  0.38315561881E+02  0.43400732671E+02  0.00000000000E+00 0.  1.
         11    1    3    3    0    0  0.29582931752E+01  0.61925251911E+01 -0.75875899601E+01  0.10230854726E+02  0.51100000000E-03 0. -1.
        -11    1    3    3    0    0 -0.97309208829E+00  0.60324573759E+01 -0.95312763411E+00  0.61843271867E+01  0.51100000000E-03 0.  1.
         12    1    3    3    0    0 -0.61602585255E+01  0.77277167383E+01 -0.29774844286E+02  0.31372085416E+02  0.00000000000E+00 0. -1.
</event>
<event>
 7    1  0.3884463E-009  0.4778727E+02  0.7816164E-02  0.1312668E+00
        -11   -1    0    0    0    0  0.00000000000E+00  0.00000000000E+00  0.45593999997E+02  0.45594000000E+02  0.51100000000E-03 0. -1.
         11   -1    0    0    0    0 -0.00000000000E+00 -0.00000000000E+00 -0.45593999997E+02  0.45594000000E+02  0.51100000000E-03 0.  1.
    9900012    2    1    2    0    0  0.11691012652E+02 -0.32765494814E+02  0.25949290501E+02  0.47787272993E+02  0.20000008883E+02 0.  0.
        -12    1    1    2    0    0 -0.11691012652E+02  0.32765494814E+02 -0.25949290501E+02  0.43400727007E+02  0.00000000000E+00 0.  1.
         11    1    3    3    0    0  0.49602150657E+01 -0.54992318422E+01  0.15886086960E+02  0.17527493931E+02  0.51100000000E-03 0. -1.
        -11    1    3    3    0    0  0.62800347437E+00 -0.71670990470E+00 -0.45730462693E+00  0.10569717282E+01  0.51100000000E-03 0.  1.
         12    1    3    3    0    0  0.61027941120E+01 -0.26549553067E+02  0.10520508168E+02  0.29202807333E+02  0.00000000000E+00 0. -1.
</event>
<event>
 7    1  0.3884463E-009  0.4778728E+02  0.7816164E-02  0.1312668E+00
        -11   -1    0    0    0    0  0.00000000000E+00  0.00000000000E+00  0.45593999997E+02  0.45594000000E+02  0.51100000000E-03 0.  1.
         11   -1    0    0    0    0 -0.00000000000E+00 -0.00000000000E+00 -0.45593999997E+02  0.45594000000E+02  0.51100000000E-03 0. -1.
    9900012    2    1    2    0    0 -0.14765440585E+02 -0.36599811464E+02 -0.18057068940E+02  0.47787283721E+02  0.20000057797E+02 0.  0.
        -12    1    1    2    0    0  0.14765440585E+02  0.36599811464E+02  0.18057068940E+02  0.43400716279E+02  0.00000000000E+00 0.  1.
         11    1    3    3    0    0 -0.38164811966E+01 -0.11046230362E+02  0.81905961146E+00  0.11715613208E+02  0.51100000000E-03 0. -1.
        -11    1    3    3    0    0 -0.71631423795E+01 -0.22431558888E+02 -0.93115093011E+01  0.25321722861E+02  0.51100000000E-03 0.  1.
        -12    1    3    3    0    0 -0.37858170093E+01 -0.31220222136E+01 -0.95646192502E+01  0.10749947652E+02  0.00000000000E+00 0.  1.
</event>
<event>
 7    1  0.3884463E-009  0.4778727E+02  0.7816164E-02  0.1312668E+00
        -11   -1    0    0    0    0  0.00000000000E+00  0.00000000000E+00  0.45593999997E+02  0.45594000000E+02  0.51100000000E-03 0. -1.
         11   -1    0    0    0    0 -0.00000000000E+00 -0.00000000000E+00 -0.45593999997E+02  0.45594000000E+02  0.51100000000E-03 0.  1.
    9900012    2    1    2    0    0  0.42340616966E+02 -0.95066182849E+01  0.72109904731E+00  0.47787267055E+02  0.19999981812E+02 0.  0.
        -12    1    1    2    0    0 -0.42340616966E+02  0.95066182849E+01 -0.72109904731E+00  0.43400732945E+02  0.00000000000E+00 0.  1.
         11    1    3    3    0    0  0.16253313584E+02 -0.26106131263E+00 -0.52201101859E+01  0.17073016901E+02  0.51100000000E-03 0. -1.
        -11    1    3    3    0    0  0.16724849703E+01 -0.23881866824E+01 -0.26490191393E+01  0.39392822020E+01  0.51100000000E-03 0.  1.
         12    1    3    3    0    0  0.24414818412E+02 -0.68573702899E+01  0.85902283725E+01  0.26774967953E+02  0.00000000000E+00 0. -1.
</event>
<event>
 7    1  0.3884463E-009  0.4778727E+02  0.7816164E-02  0.1312668E+00
        -11   -1    0    0    0    0  0.00000000000E+00  0.00000000000E+00  0.45593999997E+02  0.45594000000E+02  0.51100000000E-03 0.  1.
         11   -1    0    0    0    0 -0.00000000000E+00 -0.00000000000E+00 -0.45593999997E+02  0.45594000000E+02  0.51100000000E-03 0. -1.
    9900012    2    1    2    0    0  0.20904170203E+02 -0.24791804625E+02 -0.28844500422E+02  0.47787272898E+02  0.20000008450E+02 0.  0.
        -12    1    1    2    0    0 -0.20904170203E+02  0.24791804625E+02  0.28844500422E+02  0.43400727102E+02  0.00000000000E+00 0.  1.
         11    1    3    3    0    0  0.10134314895E+02 -0.93585501497E+01 -0.30697917704E+01  0.14131893754E+02  0.51100000000E-03 0. -1.
        -11    1    3    3    0    0  0.47566225463E+01 -0.68936430057E+01 -0.35457996084E+01  0.90950792774E+01  0.51100000000E-03 0.  1.
         12    1    3    3    0    0  0.60132327619E+01 -0.85396114692E+01 -0.22228909043E+02  0.24560299867E+02  0.00000000000E+00 0. -1.
</event>
<event>
 7    1  0.3884463E-009  0.4778727E+02  0.7816164E-02  0.1312668E+00
        -11   -1    0    0    0    0  0.00000000000E+00  0.00000000000E+00  0.45593999997E+02  0.45594000000E+02  0.51100000000E-03 0. -1.
         11   -1    0    0    0    0 -0.00000000000E+00 -0.00000000000E+00 -0.45593999997E+02  0.45594000000E+02  0.51100000000E-03 0.  1.
    9900012    2    1    2    0    0 -0.37348580684E+02 -0.41639027501E+01  0.21711026376E+02  0.47787271532E+02  0.20000002224E+02 0.  0.
        -12    1    1    2    0    0  0.37348580684E+02  0.41639027501E+01 -0.21711026376E+02  0.43400728468E+02  0.00000000000E+00 0.  1.
         11    1    3    3    0    0 -0.87604653862E+01 -0.10003523939E+02  0.75014817087E+01  0.15267235279E+02  0.51100000000E-03 0.  1.
        -11    1    3    3    0    0 -0.12085904315E+01  0.23165035398E+00  0.16482640067E+00  0.12415799294E+01  0.51100000000E-03 0. -1.
        -12    1    3    3    0    0 -0.27379524866E+02  0.56079708353E+01  0.14044718267E+02  0.31278456324E+02  0.00000000000E+00 0.  1.
</event>
<event>
 7    1  0.3884463E-009  0.4778727E+02  0.7816164E-02  0.1312668E+00
        -11   -1    0    0    0    0  0.00000000000E+00  0.00000000000E+00  0.45593999997E+02  0.45594000000E+02  0.51100000000E-03 0. -1.
         11   -1    0    0    0    0 -0.00000000000E+00 -0.00000000000E+00 -0.45593999997E+02  0.45594000000E+02  0.51100000000E-03 0.  1.
    9900012    2    1    2    0    0  0.39253572903E+02  0.15107598307E+02 -0.10702371678E+02  0.47787271069E+02  0.20000000110E+02 0.  0.
        -12    1    1    2    0    0 -0.39253572903E+02 -0.15107598307E+02  0.10702371678E+02  0.43400728931E+02  0.00000000000E+00 0.  1.
         11    1    3    3    0    0  0.10830447546E+02  0.59142287833E-01  0.23770697846E+01  0.11088397218E+02  0.51100000000E-03 0. -1.
        -11    1    3    3    0    0  0.49776413456E+01  0.36954613459E+00 -0.66240488782E+01  0.82940642337E+01  0.51100000000E-03 0.  1.
         12    1    3    3    0    0  0.23445484011E+02  0.14678909885E+02 -0.64553925849E+01  0.28404809616E+02  0.00000000000E+00 0. -1.
</event>
<event>
 7    1  0.3884463E-009  0.4778727E+02  0.7816164E-02  0.1312668E+00
        -11   -1    0    0    0    0  0.00000000000E+00  0.00000000000E+00  0.45593999997E+02  0.45594000000E+02  0.51100000000E-03 0.  1.
         11   -1    0    0    0    0 -0.00000000000E+00 -0.00000000000E+00 -0.45593999997E+02  0.45594000000E+02  0.51100000000E-03 0. -1.
    9900012    2    1    2    0    0 -0.35887228072E+02 -0.23560799899E+02  0.63733080055E+01  0.47787268607E+02  0.19999988885E+02 0.  0.
        -12    1    1    2    0    0  0.35887228072E+02  0.23560799899E+02 -0.63733080055E+01  0.43400731393E+02  0.00000000000E+00 0.  1.
         11    1    3    3    0    0 -0.20995800005E+01 -0.56792256737E+01  0.33408337004E+01  0.69154183175E+01  0.51100000000E-03 0. -1.
        -11    1    3    3    0    0 -0.60975543092E+01 -0.31003098469E+01  0.63183319848E+01  0.93120034918E+01  0.51100000000E-03 0.  1.
        -12    1    3    3    0    0 -0.27690093762E+02 -0.14781264379E+02 -0.32858576797E+01  0.31559846797E+02  0.00000000000E+00 0.  1.
</event>
<event>
 7    1  0.3884463E-009  0.4778727E+02  0.7816164E-02  0.1312668E+00
        -11   -1    0    0    0    0  0.00000000000E+00  0.00000000000E+00  0.45593999997E+02  0.45594000000E+02  0.51100000000E-03 0. -1.
         11   -1    0    0    0    0 -0.00000000000E+00 -0.00000000000E+00 -0.45593999997E+02  0.45594000000E+02  0.51100000000E-03 0.  1.
    9900012    2    1    2    0    0  0.40764930068E+02  0.13846066671E+02  0.54891183134E+01  0.47787268376E+02  0.19999987832E+02 0.  0.
        -12    1    1    2    0    0 -0.40764930068E+02 -0.13846066671E+02 -0.54891183134E+01  0.43400731624E+02  0.00000000000E+00 0.  1.
         11    1    3    3    0    0  0.32665445414E+02  0.15660422406E+02  0.20343650646E+01  0.36282486071E+02  0.51100000000E-03 0. -1.
        -11    1    3    3    0    0  0.74597745049E+00  0.23870883512E+01  0.91447042687E+00  0.26628799402E+01  0.51100000000E-03 0.  1.
        -12    1    3    3    0    0  0.73535072034E+01 -0.42014440869E+01  0.25402828219E+01  0.88419023644E+01  0.00000000000E+00 0.  1.
</event>
<event>
 7    1  0.3884463E-009  0.4778728E+02  0.7816164E-02  0.1312668E+00
        -11   -1    0    0    0    0  0.00000000000E+00  0.00000000000E+00  0.45593999997E+02  0.45594000000E+02  0.51100000000E-03 0.  1.
         11   -1    0    0    0    0 -0.00000000000E+00 -0.00000000000E+00 -0.45593999997E+02  0.45594000000E+02  0.51100000000E-03 0. -1.
    9900012    2    1    2    0    0 -0.30369072193E+02  0.20801782763E+02 -0.22991912863E+02  0.47787276860E+02  0.20000026516E+02 0.  0.
        -12    1    1    2    0    0  0.30369072193E+02 -0.20801782763E+02  0.22991912863E+02  0.43400723140E+02  0.00000000000E+00 0.  1.
         11    1    3    3    0    0 -0.69877712079E+01 -0.41779493651E+00 -0.99143199848E+01  0.12136607437E+02  0.51100000000E-03 0.  1.
        -11    1    3    3    0    0 -0.70911579079E+01  0.24852248224E+01  0.15982716354E+00  0.75157440002E+01  0.51100000000E-03 0. -1.
         12    1    3    3    0    0 -0.16290143077E+02  0.18734352877E+02 -0.13237420042E+02  0.28134925423E+02  0.00000000000E+00 0. -1.
</event>
<event>
 7    1  0.3884463E-009  0.4778727E+02  0.7816164E-02  0.1312668E+00
        -11   -1    0    0    0    0  0.00000000000E+00  0.00000000000E+00  0.45593999997E+02  0.45594000000E+02  0.51100000000E-03 0.  1.
         11   -1    0    0    0    0 -0.00000000000E+00 -0.00000000000E+00 -0.45593999997E+02  0.45594000000E+02  0.51100000000E-03 0. -1.
    9900012    2    1    2    0    0  0.25756505471E+02 -0.30779837394E+02 -0.16517487755E+02  0.47787269985E+02  0.19999995170E+02 0.  0.
        -12    1    1    2    0    0 -0.25756505471E+02  0.30779837394E+02  0.16517487755E+02  0.43400730015E+02  0.00000000000E+00 0.  1.
         11    1    3    3    0    0  0.25255884308E+01 -0.12351737447E+02 -0.56005930660E+01  0.13795312894E+02  0.51100000000E-03 0. -1.
        -11    1    3    3    0    0  0.25270359428E+01  0.28204548079E+00  0.20065997670E+01  0.32391207442E+01  0.51100000000E-03 0.  1.
         12    1    3    3    0    0  0.20703881097E+02 -0.18710145428E+02 -0.12923494456E+02  0.30752836347E+02  0.00000000000E+00 0. -1.
</event>
<event>
 7    1  0.3884463E-009  0.4778727E+02  0.7816164E-02  0.1312668E+00
        -11   -1    0    0    0    0  0.00000000000E+00  0.00000000000E+00  0.45593999997E+02  0.45594000000E+02  0.51100000000E-03 0.  1.
         11   -1    0    0    0    0 -0.00000000000E+00 -0.00000000000E+00 -0.45593999997E+02  0.45594000000E+02  0.51100000000E-03 0. -1.
    9900012    2    1    2    0    0 -0.35251759473E+02 -0.25071229155E+02 -0.35171291295E+01  0.47787271036E+02  0.19999999962E+02 0.  0.
        -12    1    1    2    0    0  0.35251759473E+02  0.25071229155E+02  0.35171291295E+01  0.43400728964E+02  0.00000000000E+00 0.  1.
         11    1    3    3    0    0 -0.10932820663E+02 -0.10578766890E+02  0.16340084346E+01  0.15300550984E+02  0.51100000000E-03 0. -1.
        -11    1    3    3    0    0 -0.20392426046E+02 -0.10918499901E+02  0.24001467085E+01  0.23255652746E+02  0.51100000000E-03 0.  1.
        -12    1    3    3    0    0 -0.39265127635E+01 -0.35739623636E+01 -0.75512842726E+01  0.92310673069E+01  0.00000000000E+00 0.  1.
</event>
<event>
 7    1  0.3884463E-009  0.4778727E+02  0.7816164E-02  0.1312668E+00
        -11   -1    0    0    0    0  0.00000000000E+00  0.00000000000E+00  0.45593999997E+02  0.45594000000E+02  0.51100000000E-03 0. -1.
         11   -1    0    0    0    0 -0.00000000000E+00 -0.00000000000E+00 -0.45593999997E+02  0.45594000000E+02  0.51100000000E-03 0.  1.
    9900012    2    1    2    0    0  0.20405034929E+02  0.38298508857E+02 -0.69417376777E+00  0.47787272951E+02  0.20000008693E+02 0.  0.
        -12    1    1    2    0    0 -0.20405034929E+02 -0.38298508857E+02  0.69417376777E+00  0.43400727049E+02  0.00000000000E+00 0.  1.
         11    1    3    3    0    0  0.13112249850E+02  0.32570433868E+02 -0.27998338159E+01  0.35222199365E+02  0.51100000000E-03 0. -1.
        -11    1    3    3    0    0  0.49530000218E+01  0.42312533341E+01 -0.26701509597E+01  0.70402713302E+01  0.51100000000E-03 0.  1.
         12    1    3    3    0    0  0.23397850577E+01  0.14968216556E+01  0.47758110079E+01  0.55248022560E+01  0.00000000000E+00 0. -1.
</event>
<event>
 7    1  0.3884463E-009  0.4778727E+02  0.7816164E-02  0.1312668E+00
        -11   -1    0    0    0    0  0.00000000000E+00  0.00000000000E+00  0.45593999997E+02  0.45594000000E+02  0.51100000000E-03 0.  1.
         11   -1    0    0    0    0 -0.00000000000E+00 -0.00000000000E+00 -0.45593999997E+02  0.45594000000E+02  0.51100000000E-03 0. -1.
    9900012    2    1    2    0    0 -0.21010324869E+02  0.14420892970E+02 -0.35131573379E+02  0.47787270130E+02  0.19999995829E+02 0.  0.
        -12    1    1    2    0    0  0.21010324869E+02 -0.14420892970E+02  0.35131573379E+02  0.43400729870E+02  0.00000000000E+00 0.  1.
         11    1    3    3    0    0 -0.51520077116E+01  0.43951595946E+00 -0.76447179542E+01  0.92291966388E+01  0.51100000000E-03 0. -1.
        -11    1    3    3    0    0 -0.98767725003E+01  0.13843064678E+02 -0.92361900263E+01  0.19351699697E+02  0.51100000000E-03 0.  1.
        -12    1    3    3    0    0 -0.59815446573E+01  0.13831233191E+00 -0.18250665399E+02  0.19206373793E+02  0.00000000000E+00 0.  1.
</event>
<event>
 7    1  0.3884463E-009  0.4778727E+02  0.7816164E-02  0.1312668E+00
        -11   -1    0    0    0    0  0.00000000000E+00  0.00000000000E+00  0.45593999997E+02  0.45594000000E+02  0.51100000000E-03 0.  1.
         11   -1    0    0    0    0 -0.00000000000E+00 -0.00000000000E+00 -0.45593999997E+02  0.45594000000E+02  0.51100000000E-03 0. -1.
    9900012    2    1    2    0    0 -0.39838983076E+02  0.20037788022E+01 -0.17101557117E+02  0.47787274685E+02  0.20000016600E+02 0.  0.
        -12    1    1    2    0    0  0.39838983076E+02 -0.20037788022E+01  0.17101557117E+02  0.43400725315E+02  0.00000000000E+00 0.  1.
         11    1    3    3    0    0 -0.76778625997E+01  0.47395956952E+01 -0.37545448417E+01  0.97729191485E+01  0.51100000000E-03 0. -1.
        -11    1    3    3    0    0 -0.79294450883E+01  0.49089122514E+01 -0.74342044597E+01  0.11926479577E+02  0.51100000000E-03 0.  1.
         12    1    3    3    0    0 -0.24231675388E+02 -0.76447291443E+01 -0.59128078154E+01  0.26087875959E+02  0.00000000000E+00 0. -1.
</event>
<event>
 7    1  0.3884463E-009  0.4778727E+02  0.7816164E-02  0.1312668E+00
        -11   -1    0    0    0    0  0.00000000000E+00  0.00000000000E+00  0.45593999997E+02  0.45594000000E+02  0.51100000000E-03 0.  1.
         11   -1    0    0    0    0 -0.00000000000E+00 -0.00000000000E+00 -0.45593999997E+02  0.45594000000E+02  0.51100000000E-03 0. -1.
    9900012    2    1    2    0    0  0.36177394850E+01  0.36368628908E+02 -0.23406372870E+02  0.47787268456E+02  0.19999988199E+02 0.  0.
        -12    1    1    2    0    0 -0.36177394850E+01 -0.36368628908E+02  0.23406372870E+02  0.43400731544E+02  0.00000000000E+00 0.  1.
         11    1    3    3    0    0  0.17161745171E+01  0.34410473426E+02 -0.16092196859E+02  0.38026105985E+02  0.51100000000E-03 0. -1.
        -11    1    3    3    0    0  0.37606625849E+01  0.14992776303E+01 -0.29930572654E+01  0.50347600286E+01  0.51100000000E-03 0.  1.
        -12    1    3    3    0    0 -0.18590976171E+01  0.45887785105E+00 -0.43211187456E+01  0.47264024422E+01  0.00000000000E+00 0.  1.
</event>
<event>
 7    1  0.3884463E-009  0.4778727E+02  0.7816164E-02  0.1312668E+00
        -11   -1    0    0    0    0  0.00000000000E+00  0.00000000000E+00  0.45593999997E+02  0.45594000000E+02  0.51100000000E-03 0. -1.
         11   -1    0    0    0    0 -0.00000000000E+00 -0.00000000000E+00 -0.45593999997E+02  0.45594000000E+02  0.51100000000E-03 0.  1.
    9900012    2    1    2    0    0  0.12741998179E+02  0.40259576943E+02  0.10021557753E+02  0.47787266446E+02  0.19999979033E+02 0.  0.
        -12    1    1    2    0    0 -0.12741998179E+02 -0.40259576943E+02 -0.10021557753E+02  0.43400733554E+02  0.00000000000E+00 0.  1.
         11    1    3    3    0    0  0.26365369497E+01  0.77809578620E+01  0.10557938835E+01  0.82830751128E+01  0.51100000000E-03 0. -1.
        -11    1    3    3    0    0  0.49233975580E+01  0.21913579024E+02 -0.30735094435E+01  0.22669169586E+02  0.51100000000E-03 0.  1.
         12    1    3    3    0    0  0.51820636713E+01  0.10565040057E+02  0.12039273313E+02  0.16835021747E+02  0.00000000000E+00 0. -1.
</event>
<event>
 7    1  0.3884463E-009  0.4778727E+02  0.7816164E-02  0.1312668E+00
        -11   -1    0    0    0    0  0.00000000000E+00  0.00000000000E+00  0.45593999997E+02  0.45594000000E+02  0.51100000000E-03 0.  1.
         11   -1    0    0    0    0 -0.00000000000E+00 -0.00000000000E+00 -0.45593999997E+02  0.45594000000E+02  0.51100000000E-03 0. -1.
    9900012    2    1    2    0    0 -0.36339031301E+02 -0.57656607536E+01 -0.23018587373E+02  0.47787269540E+02  0.19999993142E+02 0.  0.
        -12    1    1    2    0    0  0.36339031301E+02  0.57656607536E+01  0.23018587373E+02  0.43400730460E+02  0.00000000000E+00 0.  1.
         11    1    3    3    0    0 -0.16348733847E+02 -0.43155164300E+01 -0.73215925891E+01  0.18425810668E+02  0.51100000000E-03 0. -1.
        -11    1    3    3    0    0 -0.10625087180E+02  0.55792338721E+00  0.38119677005E+00  0.10646551899E+02  0.51100000000E-03 0.  1.
        -12    1    3    3    0    0 -0.93652102733E+01 -0.20080677108E+01 -0.16078191553E+02  0.18714906973E+02  0.00000000000E+00 0.  1.
</event>
<event>
 7    1  0.3884463E-009  0.4778727E+02  0.7816164E-02  0.1312668E+00
        -11   -1    0    0    0    0  0.00000000000E+00  0.00000000000E+00  0.45593999997E+02  0.45594000000E+02  0.51100000000E-03 0.  1.
         11   -1    0    0    0    0 -0.00000000000E+00 -0.00000000000E+00 -0.45593999997E+02  0.45594000000E+02  0.51100000000E-03 0. -1.
    9900012    2    1    2    0    0  0.39335475707E+02 -0.11670055582E+02 -0.14147549754E+02  0.47787274080E+02  0.20000013840E+02 0.  0.
        -12    1    1    2    0    0 -0.39335475707E+02  0.11670055582E+02  0.14147549754E+02  0.43400725920E+02  0.00000000000E+00 0.  1.
         11    1    3    3    0    0  0.86137867729E+01 -0.45157517270E+01 -0.37045945712E+01  0.10407370342E+02  0.51100000000E-03 0. -1.
        -11    1    3    3    0    0  0.24134292505E+01 -0.32540325812E+00  0.41469333440E+01  0.48091147260E+01  0.51100000000E-03 0.  1.
        -12    1    3    3    0    0  0.28308259683E+02 -0.68289005972E+01 -0.14589888526E+02  0.32570789012E+02  0.00000000000E+00 0.  1.
</event>
<event>
 7    1  0.3884463E-009  0.4778727E+02  0.7816164E-02  0.1312668E+00
        -11   -1    0    0    0    0  0.00000000000E+00  0.00000000000E+00  0.45593999997E+02  0.45594000000E+02  0.51100000000E-03 0.  1.
         11   -1    0    0    0    0 -0.00000000000E+00 -0.00000000000E+00 -0.45593999997E+02  0.45594000000E+02  0.51100000000E-03 0. -1.
    9900012    2    1    2    0    0  0.94148749597E+01  0.24801281198E+01 -0.42294594410E+02  0.47787267031E+02  0.19999981700E+02 0.  0.
        -12    1    1    2    0    0 -0.94148749597E+01 -0.24801281198E+01  0.42294594410E+02  0.43400732969E+02  0.00000000000E+00 0.  1.
         11    1    3    3    0    0  0.82014196420E+01 -0.31152569626E+01 -0.23950797905E+02  0.25507034925E+02  0.51100000000E-03 0. -1.
        -11    1    3    3    0    0 -0.39415581618E+00 -0.33338147367E+01 -0.69255236216E+01  0.76962690442E+01  0.51100000000E-03 0.  1.
        -12    1    3    3    0    0  0.16076111339E+01  0.89291998192E+01 -0.11418272883E+02  0.14583963062E+02  0.00000000000E+00 0.  1.
</event>
<event>
 7    1  0.3884463E-009  0.4778727E+02  0.7816164E-02  0.1312668E+00
        -11   -1    0    0    0    0  0.00000000000E+00  0.00000000000E+00  0.45593999997E+02  0.45594000000E+02  0.51100000000E-03 0.  1.
         11   -1    0    0    0    0 -0.00000000000E+00 -0.00000000000E+00 -0.45593999997E+02  0.45594000000E+02  0.51100000000E-03 0. -1.
    9900012    2    1    2    0    0  0.12406133717E+02  0.37699985637E+02 -0.17561959881E+02  0.47787268373E+02  0.19999987820E+02 0.  0.
        -12    1    1    2    0    0 -0.12406133717E+02 -0.37699985637E+02  0.17561959881E+02  0.43400731627E+02  0.00000000000E+00 0.  1.
         11    1    3    3    0    0  0.42507999397E+01  0.43664199718E+00 -0.71255577340E+00  0.43321694741E+01  0.51100000000E-03 0. -1.
        -11    1    3    3    0    0  0.31007146984E+01  0.18782882089E+01  0.60746564204E+00  0.36757873992E+01  0.51100000000E-03 0.  1.
         12    1    3    3    0    0  0.50546190791E+01  0.35385055431E+02 -0.17456869750E+02  0.39779311500E+02  0.00000000000E+00 0. -1.
</event>
<event>
 7    1  0.3884463E-009  0.4778727E+02  0.7816164E-02  0.1312668E+00
        -11   -1    0    0    0    0  0.00000000000E+00  0.00000000000E+00  0.45593999997E+02  0.45594000000E+02  0.51100000000E-03 0. -1.
         11   -1    0    0    0    0 -0.00000000000E+00 -0.00000000000E+00 -0.45593999997E+02  0.45594000000E+02  0.51100000000E-03 0.  1.
    9900012    2    1    2    0    0  0.40787219346E+02  0.74456856870E+01  0.12829172268E+02  0.47787272375E+02  0.20000006066E+02 0.  0.
        -12    1    1    2    0    0 -0.40787219346E+02 -0.74456856870E+01 -0.12829172268E+02  0.43400727625E+02  0.00000000000E+00 0.  1.
         11    1    3    3    0    0 -0.49427419026E+00  0.22267564334E+01 -0.15640394331E+01  0.27656772766E+01  0.51100000000E-03 0.  1.
        -11    1    3    3    0    0  0.65380430366E+01 -0.19192877110E+01  0.19646455227E+00  0.68167639425E+01  0.51100000000E-03 0. -1.
         12    1    3    3    0    0  0.34743450499E+02  0.71382169647E+01  0.14196747149E+02  0.38204831156E+02  0.00000000000E+00 0. -1.
</event>
<event>
 7    1  0.3884463E-009  0.4778727E+02  0.7816164E-02  0.1312668E+00
        -11   -1    0    0    0    0  0.00000000000E+00  0.00000000000E+00  0.45593999997E+02  0.45594000000E+02  0.51100000000E-03 0.  1.
         11   -1    0    0    0    0 -0.00000000000E+00 -0.00000000000E+00 -0.45593999997E+02  0.45594000000E+02  0.51100000000E-03 0. -1.
    9900012    2    1    2    0    0 -0.72669864474E+01  0.24726343974E+02 -0.34920225650E+02  0.47787270308E+02  0.19999996643E+02 0.  0.
        -12    1    1    2    0    0  0.72669864474E+01 -0.24726343974E+02  0.34920225650E+02  0.43400729692E+02  0.00000000000E+00 0.  1.
         11    1    3    3    0    0  0.55229430961E+01  0.71455334285E+01 -0.55078740343E+01  0.10578195737E+02  0.51100000000E-03 0. -1.
        -11    1    3    3    0    0 -0.46896159811E+00  0.46630944955E+01 -0.40493976027E+01  0.61937061974E+01  0.51100000000E-03 0.  1.
        -12    1    3    3    0    0 -0.12320967945E+02  0.12917716050E+02 -0.25362954013E+02  0.31015368373E+02  0.00000000000E+00 0.  1.
</event>
<event>
 7    1  0.3884463E-009  0.4778727E+02  0.7816164E-02  0.1312668E+00
        -11   -1    0    0    0    0  0.00000000000E+00  0.00000000000E+00  0.45593999997E+02  0.45594000000E+02  0.51100000000E-03 0.  1.
         11   -1    0    0    0    0 -0.00000000000E+00 -0.00000000000E+00 -0.45593999997E+02  0.45594000000E+02  0.51100000000E-03 0. -1.
    9900012    2    1    2    0    0 -0.40767429585E+02 -0.13703489512E+02  0.58184736309E+01  0.47787267573E+02  0.19999984172E+02 0.  0.
        -12    1    1    2    0    0  0.40767429585E+02  0.13703489512E+02 -0.58184736309E+01  0.43400732427E+02  0.00000000000E+00 0.  1.
         11    1    3    3    0    0 -0.25397984389E+02 -0.83090516596E+01  0.67777049581E+00  0.26731205053E+02  0.51100000000E-03 0. -1.
        -11    1    3    3    0    0 -0.15572047559E+02 -0.84694116922E+00  0.53820811571E+01  0.16497659602E+02  0.51100000000E-03 0.  1.
        -12    1    3    3    0    0  0.20260236228E+00 -0.45474966837E+01 -0.24137802202E+00  0.45584029171E+01  0.00000000000E+00 0.  1.
</event>
<event>
 7    1  0.3884463E-009  0.4778727E+02  0.7816164E-02  0.1312668E+00
        -11   -1    0    0    0    0  0.00000000000E+00  0.00000000000E+00  0.45593999997E+02  0.45594000000E+02  0.51100000000E-03 0.  1.
         11   -1    0    0    0    0 -0.00000000000E+00 -0.00000000000E+00 -0.45593999997E+02  0.45594000000E+02  0.51100000000E-03 0. -1.
    9900012    2    1    2    0    0 -0.15375804518E+02  0.35532787795E+02 -0.19611962759E+02  0.47787268943E+02  0.19999990419E+02 0.  0.
        -12    1    1    2    0    0  0.15375804518E+02 -0.35532787795E+02  0.19611962759E+02  0.43400731057E+02  0.00000000000E+00 0.  1.
         11    1    3    3    0    0 -0.91469765126E+01  0.24653376934E+02 -0.17456416424E+02  0.31562361258E+02  0.51100000000E-03 0. -1.
        -11    1    3    3    0    0 -0.49385796583E+01  0.11755314923E+02 -0.44030172001E+01  0.13489386891E+02  0.51100000000E-03 0.  1.
         12    1    3    3    0    0 -0.12902483466E+01 -0.87590406257E+00  0.22474708648E+01  0.27355207934E+01  0.00000000000E+00 0. -1.
</event>
<event>
 7    1  0.3884463E-009  0.4778727E+02  0.7816164E-02  0.1312668E+00
        -11   -1    0    0    0    0  0.00000000000E+00  0.00000000000E+00  0.45593999997E+02  0.45594000000E+02  0.51100000000E-03 0.  1.
         11   -1    0    0    0    0 -0.00000000000E+00 -0.00000000000E+00 -0.45593999997E+02  0.45594000000E+02  0.51100000000E-03 0. -1.
    9900012    2    1    2    0    0  0.17356223212E+02 -0.13121427447E+02 -0.37552797885E+02  0.47787274529E+02  0.20000015886E+02 0.  0.
        -12    1    1    2    0    0 -0.17356223212E+02  0.13121427447E+02  0.37552797885E+02  0.43400725471E+02  0.00000000000E+00 0.  1.
         11    1    3    3    0    0  0.12768595651E+02 -0.79614045231E+01 -0.29062095104E+02  0.32726539215E+02  0.51100000000E-03 0. -1.
        -11    1    3    3    0    0  0.77073797144E+01 -0.42863662557E+01 -0.77428369291E+01  0.11735764215E+02  0.51100000000E-03 0.  1.
        -12    1    3    3    0    0 -0.31197521534E+01 -0.87365666799E+00 -0.74786585161E+00  0.33249710983E+01  0.00000000000E+00 0.  1.
</event>
<event>
 7    1  0.3884463E-009  0.4778726E+02  0.7816164E-02  0.1312668E+00
        -11   -1    0    0    0    0  0.00000000000E+00  0.00000000000E+00  0.45593999997E+02  0.45594000000E+02  0.51100000000E-03 0.  1.
         11   -1    0    0    0    0 -0.00000000000E+00 -0.00000000000E+00 -0.45593999997E+02  0.45594000000E+02  0.51100000000E-03 0. -1.
    9900012    2    1    2    0    0  0.24399081404E+02 -0.32989019204E+02 -0.14143334932E+02  0.47787257098E+02  0.19999936414E+02 0.  0.
        -12    1    1    2    0    0 -0.24399081404E+02  0.32989019204E+02  0.14143334932E+02  0.43400742902E+02  0.00000000000E+00 0.  1.
         11    1    3    3    0    0  0.17369447637E+02 -0.23525220829E+02 -0.68271695936E+01  0.30029052119E+02  0.51100000000E-03 0. -1.
        -11    1    3    3    0    0  0.86745569335E+00 -0.89220053714E+01 -0.11736014839E+01  0.90405751991E+01  0.51100000000E-03 0.  1.
        -12    1    3    3    0    0  0.61621780741E+01 -0.54179300391E+00 -0.61425638542E+01  0.87176297798E+01  0.00000000000E+00 0.  1.
</event>
<event>
 7    1  0.3884463E-009  0.4778727E+02  0.7816164E-02  0.1312668E+00
        -11   -1    0    0    0    0  0.00000000000E+00  0.00000000000E+00  0.45593999997E+02  0.45594000000E+02  0.51100000000E-03 0. -1.
         11   -1    0    0    0    0 -0.00000000000E+00 -0.00000000000E+00 -0.45593999997E+02  0.45594000000E+02  0.51100000000E-03 0.  1.
    9900012    2    1    2    0    0 -0.21069669954E+02 -0.31407012452E+02  0.21290658262E+02  0.47787267836E+02  0.19999985371E+02 0.  0.
        -12    1    1    2    0    0  0.21069669954E+02  0.31407012452E+02 -0.21290658262E+02  0.43400732164E+02  0.00000000000E+00 0.  1.
         11    1    3    3    0    0 -0.82564163209E+01 -0.12967217298E+02  0.27599530576E+01  0.15618401841E+02  0.51100000000E-03 0. -1.
        -11    1    3    3    0    0  0.11446044509E+01 -0.79780993678E+01  0.23979937235E+01  0.84089573094E+01  0.51100000000E-03 0.  1.
         12    1    3    3    0    0 -0.13957858084E+02 -0.10461695786E+02  0.16132711481E+02  0.23759908685E+02  0.00000000000E+00 0. -1.
</event>
<event>
 7    1  0.3884463E-009  0.4778728E+02  0.7816164E-02  0.1312668E+00
        -11   -1    0    0    0    0  0.00000000000E+00  0.00000000000E+00  0.45593999997E+02  0.45594000000E+02  0.51100000000E-03 0.  1.
         11   -1    0    0    0    0 -0.00000000000E+00 -0.00000000000E+00 -0.45593999997E+02  0.45594000000E+02  0.51100000000E-03 0. -1.
    9900012    2    1    2    0    0  0.14928601985E+02 -0.31160094815E+02 -0.26264195862E+02  0.47787278228E+02  0.20000032752E+02 0.  0.
        -12    1    1    2    0    0 -0.14928601985E+02  0.31160094815E+02  0.26264195862E+02  0.43400721772E+02  0.00000000000E+00 0.  1.
         11    1    3    3    0    0 -0.99805391518E+00 -0.44796460207E+01 -0.12235320302E+01  0.47497758871E+01  0.51100000000E-03 0. -1.
        -11    1    3    3    0    0 -0.23791805837E+01 -0.96821518997E+01 -0.61033399166E+01  0.11689966812E+02  0.51100000000E-03 0.  1.
         12    1    3    3    0    0  0.18305836484E+02 -0.16998296894E+02 -0.18937323915E+02  0.31347535529E+02  0.00000000000E+00 0. -1.
</event>
<event>
 7    1  0.3884463E-009  0.4778727E+02  0.7816164E-02  0.1312668E+00
        -11   -1    0    0    0    0  0.00000000000E+00  0.00000000000E+00  0.45593999997E+02  0.45594000000E+02  0.51100000000E-03 0. -1.
         11   -1    0    0    0    0 -0.00000000000E+00 -0.00000000000E+00 -0.45593999997E+02  0.45594000000E+02  0.51100000000E-03 0.  1.
    9900012    2    1    2    0    0  0.19361359900E+02 -0.32655541870E+02  0.21032751201E+02  0.47787270800E+02  0.19999998885E+02 0.  0.
        -12    1    1    2    0    0 -0.19361359900E+02  0.32655541870E+02 -0.21032751201E+02  0.43400729200E+02  0.00000000000E+00 0.  1.
         11    1    3    3    0    0  0.10200602958E+01 -0.15171182302E+02  0.46182092419E+01  0.15891291713E+02  0.51100000000E-03 0. -1.
        -11    1    3    3    0    0  0.74958042212E+01 -0.13911941903E+02  0.80043922117E+01  0.17714386904E+02  0.51100000000E-03 0.  1.
        -12    1    3    3    0    0  0.10845495383E+02 -0.35724176655E+01  0.84101497470E+01  0.14181592183E+02  0.00000000000E+00 0.  1.
</event>
<event>
 7    1  0.3884463E-009  0.4778727E+02  0.7816164E-02  0.1312668E+00
        -11   -1    0    0    0    0  0.00000000000E+00  0.00000000000E+00  0.45593999997E+02  0.45594000000E+02  0.51100000000E-03 0.  1.
         11   -1    0    0    0    0 -0.00000000000E+00 -0.00000000000E+00 -0.45593999997E+02  0.45594000000E+02  0.51100000000E-03 0. -1.
    9900012    2    1    2    0    0  0.10171368159E+02  0.26804333022E+01 -0.42106789261E+02  0.47787272417E+02  0.20000006257E+02 0.  0.
        -12    1    1    2    0    0 -0.10171368159E+02 -0.26804333022E+01  0.42106789261E+02  0.43400727583E+02  0.00000000000E+00 0.  1.
         11    1    3    3    0    0  0.21032500898E+01 -0.47884620384E+01 -0.27297207550E+02  0.27793714576E+02  0.51100000000E-03 0.  1.
        -11    1    3    3    0    0 -0.11008946419E+01  0.12438413345E+01 -0.22530891283E+00  0.16762680708E+01  0.51100000000E-03 0. -1.
        -12    1    3    3    0    0  0.91690127112E+01  0.62250540062E+01 -0.14584272798E+02  0.18317289770E+02  0.00000000000E+00 0.  1.
</event>
<event>
 7    1  0.3884463E-009  0.4778727E+02  0.7816164E-02  0.1312668E+00
        -11   -1    0    0    0    0  0.00000000000E+00  0.00000000000E+00  0.45593999997E+02  0.45594000000E+02  0.51100000000E-03 0.  1.
         11   -1    0    0    0    0 -0.00000000000E+00 -0.00000000000E+00 -0.45593999997E+02  0.45594000000E+02  0.51100000000E-03 0. -1.
    9900012    2    1    2    0    0  0.26852977876E+02 -0.13098504097E+02 -0.31479678104E+02  0.47787270006E+02  0.19999995267E+02 0.  0.
        -12    1    1    2    0    0 -0.26852977876E+02  0.13098504097E+02  0.31479678104E+02  0.43400729994E+02  0.00000000000E+00 0.  1.
         11    1    3    3    0    0  0.18099738611E+02 -0.55291210574E+01 -0.19730308845E+02  0.27339656267E+02  0.51100000000E-03 0. -1.
        -11    1    3    3    0    0  0.47969976867E+01 -0.52103325709E+00 -0.11375092402E+02  0.12356188323E+02  0.51100000000E-03 0.  1.
         12    1    3    3    0    0  0.39562415791E+01 -0.70483497829E+01 -0.37427685759E+00  0.80914254159E+01  0.00000000000E+00 0. -1.
</event>
<event>
 7    1  0.3884463E-009  0.4778727E+02  0.7816164E-02  0.1312668E+00
        -11   -1    0    0    0    0  0.00000000000E+00  0.00000000000E+00  0.45593999997E+02  0.45594000000E+02  0.51100000000E-03 0. -1.
         11   -1    0    0    0    0 -0.00000000000E+00 -0.00000000000E+00 -0.45593999997E+02  0.45594000000E+02  0.51100000000E-03 0.  1.
    9900012    2    1    2    0    0 -0.13001734568E+02  0.32535490354E+02  0.25612891491E+02  0.47787269075E+02  0.19999991020E+02 0.  0.
        -12    1    1    2    0    0  0.13001734568E+02 -0.32535490354E+02 -0.25612891491E+02  0.43400730925E+02  0.00000000000E+00 0.  1.
         11    1    3    3    0    0 -0.81603651329E+00  0.49011951163E+01  0.10372615851E+02  0.11501251628E+02  0.51100000000E-03 0. -1.
        -11    1    3    3    0    0  0.90260449249E+00 -0.71821443646E+00  0.21211454884E+01  0.24144948313E+01  0.51100000000E-03 0.  1.
        -12    1    3    3    0    0 -0.13088302547E+02  0.28352509674E+02  0.13119130152E+02  0.33871522616E+02  0.00000000000E+00 0.  1.
</event>
<event>
 7    1  0.3884463E-009  0.4778726E+02  0.7816164E-02  0.1312668E+00
        -11   -1    0    0    0    0  0.00000000000E+00  0.00000000000E+00  0.45593999997E+02  0.45594000000E+02  0.51100000000E-03 0.  1.
         11   -1    0    0    0    0 -0.00000000000E+00 -0.00000000000E+00 -0.45593999997E+02  0.45594000000E+02  0.51100000000E-03 0. -1.
    9900012    2    1    2    0    0  0.39674302470E+02 -0.92562564919E+01 -0.14963144474E+02  0.47787259761E+02  0.19999948554E+02 0.  0.
        -12    1    1    2    0    0 -0.39674302470E+02  0.92562564919E+01  0.14963144474E+02  0.43400740239E+02  0.00000000000E+00 0.  1.
         11    1    3    3    0    0  0.18455617834E+02 -0.64944127980E+00 -0.96149349123E+01  0.20820148349E+02  0.51100000000E-03 0. -1.
        -11    1    3    3    0    0  0.14236416211E+01  0.23274032329E+01 -0.32684525844E+01  0.42575044136E+01  0.51100000000E-03 0.  1.
         12    1    3    3    0    0  0.19795043015E+02 -0.10934218445E+02 -0.20797569770E+01  0.22709606999E+02  0.00000000000E+00 0. -1.
</event>
<event>
 7    1  0.3884463E-009  0.4778727E+02  0.7816164E-02  0.1312668E+00
        -11   -1    0    0    0    0  0.00000000000E+00  0.00000000000E+00  0.45593999997E+02  0.45594000000E+02  0.51100000000E-03 0.  1.
         11   -1    0    0    0    0 -0.00000000000E+00 -0.00000000000E+00 -0.45593999997E+02  0.45594000000E+02  0.51100000000E-03 0. -1.
    9900012    2    1    2    0    0 -0.53203432546E+01 -0.12639012548E+02 -0.41177331816E+02  0.47787270213E+02  0.19999996208E+02 0.  0.
        -12    1    1    2    0    0  0.53203432546E+01  0.12639012548E+02  0.41177331816E+02  0.43400729787E+02  0.00000000000E+00 0.  1.
         11    1    3    3    0    0  0.86974464209E+00 -0.11683382808E+01 -0.15643266911E+02  0.15710928362E+02  0.51100000000E-03 0. -1.
        -11    1    3    3    0    0 -0.34708179865E+00 -0.12578220589E+02 -0.21428457848E+02  0.24849766699E+02  0.51100000000E-03 0.  1.
        -12    1    3    3    0    0 -0.58430060980E+01  0.11075463218E+01 -0.41056070567E+01  0.72265751515E+01  0.00000000000E+00 0.  1.
</event>
<event>
 7    1  0.3884463E-009  0.4778727E+02  0.7816164E-02  0.1312668E+00
        -11   -1    0    0    0    0  0.00000000000E+00  0.00000000000E+00  0.45593999997E+02  0.45594000000E+02  0.51100000000E-03 0.  1.
         11   -1    0    0    0    0 -0.00000000000E+00 -0.00000000000E+00 -0.45593999997E+02  0.45594000000E+02  0.51100000000E-03 0. -1.
    9900012    2    1    2    0    0  0.23909724472E+02 -0.28210887065E+02 -0.22717710174E+02  0.47787269259E+02  0.19999991858E+02 0.  0.
        -12    1    1    2    0    0 -0.23909724472E+02  0.28210887065E+02  0.22717710174E+02  0.43400730741E+02  0.00000000000E+00 0.  1.
         11    1    3    3    0    0  0.96221222767E+01 -0.34741803457E+01 -0.47600871090E+01  0.11283332652E+02  0.51100000000E-03 0. -1.
        -11    1    3    3    0    0  0.11506839831E+02 -0.25703992665E+02 -0.13674420653E+02  0.31306427172E+02  0.51100000000E-03 0.  1.
         12    1    3    3    0    0  0.27807623646E+01  0.96728594535E+00 -0.42832024114E+01  0.51975094349E+01  0.00000000000E+00 0. -1.
</event>
<event>
 7    1  0.3884463E-009  0.4778727E+02  0.7816164E-02  0.1312668E+00
        -11   -1    0    0    0    0  0.00000000000E+00  0.00000000000E+00  0.45593999997E+02  0.45594000000E+02  0.51100000000E-03 0.  1.
         11   -1    0    0    0    0 -0.00000000000E+00 -0.00000000000E+00 -0.45593999997E+02  0.45594000000E+02  0.51100000000E-03 0. -1.
    9900012    2    1    2    0    0  0.30424187598E+02  0.23413141621E+02 -0.20243942578E+02  0.47787267256E+02  0.19999982727E+02 0.  0.
        -12    1    1    2    0    0 -0.30424187598E+02 -0.23413141621E+02  0.20243942578E+02  0.43400732744E+02  0.00000000000E+00 0.  1.
         11    1    3    3    0    0  0.21641395308E+01 -0.87220079309E+00 -0.27281108891E+00  0.23491828970E+01  0.51100000000E-03 0. -1.
        -11    1    3    3    0    0 -0.14691021383E+01  0.53642611466E+01 -0.31125825183E+01  0.63735177834E+01  0.51100000000E-03 0.  1.
         12    1    3    3    0    0  0.29729150206E+02  0.18921081268E+02 -0.16858548971E+02  0.39064566576E+02  0.00000000000E+00 0. -1.
</event>
<event>
 7    1  0.3884463E-009  0.4778727E+02  0.7816164E-02  0.1312668E+00
        -11   -1    0    0    0    0  0.00000000000E+00  0.00000000000E+00  0.45593999997E+02  0.45594000000E+02  0.51100000000E-03 0.  1.
         11   -1    0    0    0    0 -0.00000000000E+00 -0.00000000000E+00 -0.45593999997E+02  0.45594000000E+02  0.51100000000E-03 0. -1.
    9900012    2    1    2    0    0  0.18154930218E+02 -0.39336181573E+02  0.25858613895E+01  0.47787270155E+02  0.19999995944E+02 0.  0.
        -12    1    1    2    0    0 -0.18154930218E+02  0.39336181573E+02 -0.25858613895E+01  0.43400729845E+02  0.00000000000E+00 0.  1.
         11    1    3    3    0    0  0.73415199411E+01 -0.14307932686E+02 -0.26524253040E+01  0.16298779496E+02  0.51100000000E-03 0. -1.
        -11    1    3    3    0    0  0.12553845371E+02 -0.10560677470E+02  0.16981333620E+01  0.16492743841E+02  0.51100000000E-03 0.  1.
        -12    1    3    3    0    0 -0.17404350942E+01 -0.14467571416E+02  0.35401533315E+01  0.14995746817E+02  0.00000000000E+00 0.  1.
</event>
<event>
 7    1  0.3884463E-009  0.4778727E+02  0.7816164E-02  0.1312668E+00
        -11   -1    0    0    0    0  0.00000000000E+00  0.00000000000E+00  0.45593999997E+02  0.45594000000E+02  0.51100000000E-03 0. -1.
         11   -1    0    0    0    0 -0.00000000000E+00 -0.00000000000E+00 -0.45593999997E+02  0.45594000000E+02  0.51100000000E-03 0.  1.
    9900012    2    1    2    0    0  0.42163463828E+02 -0.31807328978E+01  0.97851316924E+01  0.47787267910E+02  0.19999985708E+02 0.  0.
        -12    1    1    2    0    0 -0.42163463828E+02  0.31807328978E+01 -0.97851316924E+01  0.43400732090E+02  0.00000000000E+00 0.  1.
         11    1    3    3    0    0  0.13994835977E+02 -0.37967012301E+00  0.51075213684E+01  0.14902562136E+02  0.51100000000E-03 0. -1.
        -11    1    3    3    0    0  0.10168114954E+02  0.53632734792E+01 -0.26627188347E+01  0.11800226099E+02  0.51100000000E-03 0.  1.
         12    1    3    3    0    0  0.18000512897E+02 -0.81643362540E+01  0.73403291588E+01  0.21084479675E+02  0.00000000000E+00 0. -1.
</event>
<event>
 7    1  0.3884463E-009  0.4778727E+02  0.7816164E-02  0.1312668E+00
        -11   -1    0    0    0    0  0.00000000000E+00  0.00000000000E+00  0.45593999997E+02  0.45594000000E+02  0.51100000000E-03 0. -1.
         11   -1    0    0    0    0 -0.00000000000E+00 -0.00000000000E+00 -0.45593999997E+02  0.45594000000E+02  0.51100000000E-03 0.  1.
    9900012    2    1    2    0    0  0.22706731504E+01 -0.40555050718E+02 -0.15289060108E+02  0.47787268966E+02  0.19999990525E+02 0.  0.
        -12    1    1    2    0    0 -0.22706731504E+01  0.40555050718E+02  0.15289060108E+02  0.43400731034E+02  0.00000000000E+00 0.  1.
         11    1    3    3    0    0  0.33616276895E+01 -0.78405860099E+01 -0.16652417358E+00  0.85324709354E+01  0.51100000000E-03 0. -1.
        -11    1    3    3    0    0 -0.20150917763E+01 -0.32949448414E+02 -0.10657002940E+02  0.34688592615E+02  0.51100000000E-03 0.  1.
        -12    1    3    3    0    0  0.92413723719E+00  0.23498370650E+00 -0.44655329950E+01  0.45662054165E+01  0.00000000000E+00 0.  1.
</event>
<event>
 7    1  0.3884463E-009  0.4778727E+02  0.7816164E-02  0.1312668E+00
        -11   -1    0    0    0    0  0.00000000000E+00  0.00000000000E+00  0.45593999997E+02  0.45594000000E+02  0.51100000000E-03 0.  1.
         11   -1    0    0    0    0 -0.00000000000E+00 -0.00000000000E+00 -0.45593999997E+02  0.45594000000E+02  0.51100000000E-03 0. -1.
    9900012    2    1    2    0    0 -0.26144110202E+02 -0.13356380338E+02 -0.31964288308E+02  0.47787272806E+02  0.20000008030E+02 0.  0.
        -12    1    1    2    0    0  0.26144110202E+02  0.13356380338E+02  0.31964288308E+02  0.43400727194E+02  0.00000000000E+00 0.  1.
         11    1    3    3    0    0 -0.33032393904E+01 -0.27583975513E+01 -0.95234693722E+01  0.10450675417E+02  0.51100000000E-03 0.  1.
        -11    1    3    3    0    0 -0.44135179911E+01 -0.10484987019E+02 -0.76768586800E+01  0.13724002816E+02  0.51100000000E-03 0. -1.
         12    1    3    3    0    0 -0.18427352821E+02 -0.11299576746E+00 -0.14763960255E+02  0.23612594573E+02  0.00000000000E+00 0. -1.
</event>
<event>
 7    1  0.3884463E-009  0.4778726E+02  0.7816164E-02  0.1312668E+00
        -11   -1    0    0    0    0  0.00000000000E+00  0.00000000000E+00  0.45593999997E+02  0.45594000000E+02  0.51100000000E-03 0.  1.
         11   -1    0    0    0    0 -0.00000000000E+00 -0.00000000000E+00 -0.45593999997E+02  0.45594000000E+02  0.51100000000E-03 0. -1.
    9900012    2    1    2    0    0  0.14727284223E+02 -0.21105880610E+02 -0.34946724022E+02  0.47787255573E+02  0.19999929460E+02 0.  0.
        -12    1    1    2    0    0 -0.14727284223E+02  0.21105880610E+02  0.34946724022E+02  0.43400744427E+02  0.00000000000E+00 0.  1.
         11    1    3    3    0    0  0.72980844195E+01 -0.15430235977E+02 -0.91908647341E+01  0.19386237730E+02  0.51100000000E-03 0. -1.
        -11    1    3    3    0    0 -0.95648898768E+00 -0.30102094183E+01 -0.62721816987E+01  0.70225704302E+01  0.51100000000E-03 0.  1.
        -12    1    3    3    0    0  0.83856887916E+01 -0.26654352150E+01 -0.19483677589E+02  0.21378447413E+02  0.00000000000E+00 0.  1.
</event>
<event>
 7    1  0.3884463E-009  0.4778727E+02  0.7816164E-02  0.1312668E+00
        -11   -1    0    0    0    0  0.00000000000E+00  0.00000000000E+00  0.45593999997E+02  0.45594000000E+02  0.51100000000E-03 0.  1.
         11   -1    0    0    0    0 -0.00000000000E+00 -0.00000000000E+00 -0.45593999997E+02  0.45594000000E+02  0.51100000000E-03 0. -1.
    9900012    2    1    2    0    0  0.10137778085E+00  0.42943538449E+02 -0.62821518689E+01  0.47787271849E+02  0.20000003668E+02 0.  0.
        -12    1    1    2    0    0 -0.10137778085E+00 -0.42943538449E+02  0.62821518689E+01  0.43400728151E+02  0.00000000000E+00 0.  1.
         11    1    3    3    0    0 -0.11717216473E+01 -0.44499575659E+00  0.86137861670E-01  0.12563330906E+01  0.51100000000E-03 0. -1.
        -11    1    3    3    0    0 -0.38954292092E+01  0.18500372428E+02  0.35661234224E+01  0.19239422684E+02  0.51100000000E-03 0.  1.
         12    1    3    3    0    0  0.51685286374E+01  0.24888161778E+02 -0.99344131530E+01  0.27291516074E+02  0.00000000000E+00 0. -1.
</event>
<event>
 7    1  0.3884463E-009  0.4778727E+02  0.7816164E-02  0.1312668E+00
        -11   -1    0    0    0    0  0.00000000000E+00  0.00000000000E+00  0.45593999997E+02  0.45594000000E+02  0.51100000000E-03 0.  1.
         11   -1    0    0    0    0 -0.00000000000E+00 -0.00000000000E+00 -0.45593999997E+02  0.45594000000E+02  0.51100000000E-03 0. -1.
    9900012    2    1    2    0    0 -0.31037238933E+02 -0.30154770360E+02 -0.33170716001E+01  0.47787270282E+02  0.19999996524E+02 0.  0.
        -12    1    1    2    0    0  0.31037238933E+02  0.30154770360E+02  0.33170716001E+01  0.43400729718E+02  0.00000000000E+00 0.  1.
         11    1    3    3    0    0 -0.68047689095E+01 -0.19810886219E+01 -0.11038407865E+00  0.70881434061E+01  0.51100000000E-03 0. -1.
        -11    1    3    3    0    0 -0.20760025330E+02 -0.28911637308E+02 -0.61093479681E+01  0.36113509333E+02  0.51100000000E-03 0.  1.
        -12    1    3    3    0    0 -0.34724446940E+01  0.73795557008E+00  0.29026604466E+01  0.45856175424E+01  0.00000000000E+00 0.  1.
</event>
<event>
 7    1  0.3884463E-009  0.4778727E+02  0.7816164E-02  0.1312668E+00
        -11   -1    0    0    0    0  0.00000000000E+00  0.00000000000E+00  0.45593999997E+02  0.45594000000E+02  0.51100000000E-03 0. -1.
         11   -1    0    0    0    0 -0.00000000000E+00 -0.00000000000E+00 -0.45593999997E+02  0.45594000000E+02  0.51100000000E-03 0.  1.
    9900012    2    1    2    0    0  0.14605386651E+02 -0.66785971267E+01  0.40320000219E+02  0.47787269632E+02  0.19999993559E+02 0.  0.
        -12    1    1    2    0    0 -0.14605386651E+02  0.66785971267E+01 -0.40320000219E+02  0.43400730368E+02  0.00000000000E+00 0.  1.
         11    1    3    3    0    0  0.31519382406E+01  0.25519295098E+01  0.28691255220E+01  0.49677902953E+01  0.51100000000E-03 0. -1.
        -11    1    3    3    0    0 -0.33805592831E+01 -0.18419356947E+01  0.10471916910E+02  0.11157148032E+02  0.51100000000E-03 0.  1.
         12    1    3    3    0    0  0.14834007694E+02 -0.73885909418E+01  0.26978957787E+02  0.31662331305E+02  0.00000000000E+00 0. -1.
</event>
<event>
 7    1  0.3884463E-009  0.4778728E+02  0.7816164E-02  0.1312668E+00
        -11   -1    0    0    0    0  0.00000000000E+00  0.00000000000E+00  0.45593999997E+02  0.45594000000E+02  0.51100000000E-03 0.  1.
         11   -1    0    0    0    0 -0.00000000000E+00 -0.00000000000E+00 -0.45593999997E+02  0.45594000000E+02  0.51100000000E-03 0. -1.
    9900012    2    1    2    0    0  0.78209913494E+01  0.61757536836E+01 -0.42241144190E+02  0.47787284548E+02  0.20000061569E+02 0.  0.
        -12    1    1    2    0    0 -0.78209913494E+01 -0.61757536836E+01  0.42241144190E+02  0.43400715452E+02  0.00000000000E+00 0.  1.
         11    1    3    3    0    0  0.92128029321E+00 -0.15212392983E+01 -0.11483925946E+02  0.11620821045E+02  0.51100000000E-03 0.  1.
        -11    1    3    3    0    0  0.12604477639E+01  0.33088094047E+01 -0.28432849902E+02  0.28652467643E+02  0.51100000000E-03 0. -1.
         12    1    3    3    0    0  0.56392632923E+01  0.43881835772E+01 -0.23243683425E+01  0.75139958596E+01  0.00000000000E+00 0. -1.
</event>
<event>
 7    1  0.3884463E-009  0.4778727E+02  0.7816164E-02  0.1312668E+00
        -11   -1    0    0    0    0  0.00000000000E+00  0.00000000000E+00  0.45593999997E+02  0.45594000000E+02  0.51100000000E-03 0. -1.
         11   -1    0    0    0    0 -0.00000000000E+00 -0.00000000000E+00 -0.45593999997E+02  0.45594000000E+02  0.51100000000E-03 0.  1.
    9900012    2    1    2    0    0  0.31360651962E+02 -0.14617244578E+02  0.26200553806E+02  0.47787270165E+02  0.19999995989E+02 0.  0.
        -12    1    1    2    0    0 -0.31360651962E+02  0.14617244578E+02 -0.26200553806E+02  0.43400729835E+02  0.00000000000E+00 0.  1.
         11    1    3    3    0    0  0.10650800588E+02 -0.57238972070E+01  0.57076994611E+01  0.13370878273E+02  0.51100000000E-03 0. -1.
        -11    1    3    3    0    0  0.31205596939E+01 -0.81741096250E+01  0.21854353596E+01  0.90183196293E+01  0.51100000000E-03 0.  1.
         12    1    3    3    0    0  0.17589291680E+02 -0.71923774577E+00  0.18307418985E+02  0.25398072262E+02  0.00000000000E+00 0. -1.
</event>
<event>
 7    1  0.3884463E-009  0.4778727E+02  0.7816164E-02  0.1312668E+00
        -11   -1    0    0    0    0  0.00000000000E+00  0.00000000000E+00  0.45593999997E+02  0.45594000000E+02  0.51100000000E-03 0.  1.
         11   -1    0    0    0    0 -0.00000000000E+00 -0.00000000000E+00 -0.45593999997E+02  0.45594000000E+02  0.51100000000E-03 0. -1.
    9900012    2    1    2    0    0 -0.15463971672E+02  0.36034975630E+02 -0.18600247989E+02  0.47787272889E+02  0.20000008411E+02 0.  0.
        -12    1    1    2    0    0  0.15463971672E+02 -0.36034975630E+02  0.18600247989E+02  0.43400727111E+02  0.00000000000E+00 0.  1.
         11    1    3    3    0    0 -0.15710144946E+02  0.23079725023E+02 -0.12274907072E+02  0.30498454145E+02  0.51100000000E-03 0. -1.
        -11    1    3    3    0    0 -0.38261319446E+01  0.19658184745E+01 -0.10018426478E+01  0.44167201501E+01  0.51100000000E-03 0.  1.
        -12    1    3    3    0    0  0.40723052190E+01  0.10989432132E+02 -0.53234982691E+01  0.12872098594E+02  0.00000000000E+00 0.  1.
</event>
<event>
 7    1  0.3884463E-009  0.4778727E+02  0.7816164E-02  0.1312668E+00
        -11   -1    0    0    0    0  0.00000000000E+00  0.00000000000E+00  0.45593999997E+02  0.45594000000E+02  0.51100000000E-03 0.  1.
         11   -1    0    0    0    0 -0.00000000000E+00 -0.00000000000E+00 -0.45593999997E+02  0.45594000000E+02  0.51100000000E-03 0. -1.
    9900012    2    1    2    0    0 -0.22945274587E+02 -0.47880973356E+01 -0.36526864229E+02  0.47787270601E+02  0.19999997977E+02 0.  0.
        -12    1    1    2    0    0  0.22945274587E+02  0.47880973356E+01  0.36526864229E+02  0.43400729399E+02  0.00000000000E+00 0.  1.
         11    1    3    3    0    0 -0.24672145492E+01  0.23734590108E+01 -0.40537909563E+01  0.53060038340E+01  0.51100000000E-03 0. -1.
        -11    1    3    3    0    0 -0.99601054583E+01 -0.26146625574E+01 -0.27983447799E+01  0.10671030634E+02  0.51100000000E-03 0.  1.
         12    1    3    3    0    0 -0.10517954580E+02 -0.45468937891E+01 -0.29674728493E+02  0.31810236132E+02  0.00000000000E+00 0. -1.
</event>
<event>
 7    1  0.3884463E-009  0.4778727E+02  0.7816164E-02  0.1312668E+00
        -11   -1    0    0    0    0  0.00000000000E+00  0.00000000000E+00  0.45593999997E+02  0.45594000000E+02  0.51100000000E-03 0.  1.
         11   -1    0    0    0    0 -0.00000000000E+00 -0.00000000000E+00 -0.45593999997E+02  0.45594000000E+02  0.51100000000E-03 0. -1.
    9900012    2    1    2    0    0 -0.29456130660E+02  0.19481924188E+02 -0.25227250824E+02  0.47787272038E+02  0.20000004530E+02 0.  0.
        -12    1    1    2    0    0  0.29456130660E+02 -0.19481924188E+02  0.25227250824E+02  0.43400727962E+02  0.00000000000E+00 0.  1.
         11    1    3    3    0    0 -0.16462496560E+02  0.91960340986E+01 -0.11842985744E+02  0.22267401010E+02  0.51100000000E-03 0. -1.
        -11    1    3    3    0    0 -0.46419864311E+00  0.62461141045E+01 -0.10209916098E+02  0.11977971814E+02  0.51100000000E-03 0.  1.
        -12    1    3    3    0    0 -0.12529435457E+02  0.40397759845E+01 -0.31743489818E+01  0.13541899215E+02  0.00000000000E+00 0.  1.
</event>
<event>
 7    1  0.3884463E-009  0.4778727E+02  0.7816164E-02  0.1312668E+00
        -11   -1    0    0    0    0  0.00000000000E+00  0.00000000000E+00  0.45593999997E+02  0.45594000000E+02  0.51100000000E-03 0.  1.
         11   -1    0    0    0    0 -0.00000000000E+00 -0.00000000000E+00 -0.45593999997E+02  0.45594000000E+02  0.51100000000E-03 0. -1.
    9900012    2    1    2    0    0 -0.24977706214E+02  0.31076200148E+02 -0.17146634348E+02  0.47787273130E+02  0.20000009510E+02 0.  0.
        -12    1    1    2    0    0  0.24977706214E+02 -0.31076200148E+02  0.17146634348E+02  0.43400726870E+02  0.00000000000E+00 0.  1.
         11    1    3    3    0    0 -0.14676711507E+02  0.16683678793E+02 -0.88037473487E+01  0.23900982540E+02  0.51100000000E-03 0. -1.
        -11    1    3    3    0    0 -0.11420704609E+02  0.16344500213E+02 -0.64826946022E+01  0.20966652344E+02  0.51100000000E-03 0.  1.
        -12    1    3    3    0    0  0.11197099022E+01 -0.19519788584E+01 -0.18601923973E+01  0.29196382453E+01  0.00000000000E+00 0.  1.
</event>
<event>
 7    1  0.3884463E-009  0.4778727E+02  0.7816164E-02  0.1312668E+00
        -11   -1    0    0    0    0  0.00000000000E+00  0.00000000000E+00  0.45593999997E+02  0.45594000000E+02  0.51100000000E-03 0. -1.
         11   -1    0    0    0    0 -0.00000000000E+00 -0.00000000000E+00 -0.45593999997E+02  0.45594000000E+02  0.51100000000E-03 0.  1.
    9900012    2    1    2    0    0 -0.84981705657E+01  0.36370106756E+02  0.22104738314E+02  0.47787273920E+02  0.20000013109E+02 0.  0.
        -12    1    1    2    0    0  0.84981705657E+01 -0.36370106756E+02 -0.22104738314E+02  0.43400726080E+02  0.00000000000E+00 0.  1.
         11    1    3    3    0    0  0.39925763899E+01  0.10721169753E+02  0.68989824425E+01  0.13359644685E+02  0.51100000000E-03 0.  1.
        -11    1    3    3    0    0 -0.15553098465E+01  0.14372018031E+02  0.36013210588E+01  0.14897765088E+02  0.51100000000E-03 0. -1.
         12    1    3    3    0    0 -0.10935437109E+02  0.11276918973E+02  0.11604434812E+02  0.19529864147E+02  0.00000000000E+00 0. -1.
</event>
<event>
 7    1  0.3884463E-009  0.4778727E+02  0.7816164E-02  0.1312668E+00
        -11   -1    0    0    0    0  0.00000000000E+00  0.00000000000E+00  0.45593999997E+02  0.45594000000E+02  0.51100000000E-03 0. -1.
         11   -1    0    0    0    0 -0.00000000000E+00 -0.00000000000E+00 -0.45593999997E+02  0.45594000000E+02  0.51100000000E-03 0.  1.
    9900012    2    1    2    0    0  0.13561533519E+02 -0.38759449193E+02  0.14050378623E+02  0.47787271520E+02  0.20000002168E+02 0.  0.
        -12    1    1    2    0    0 -0.13561533519E+02  0.38759449193E+02 -0.14050378623E+02  0.43400728480E+02  0.00000000000E+00 0.  1.
         11    1    3    3    0    0  0.72733178173E+01 -0.98867934446E+01 -0.16420343242E+01  0.12383299789E+02  0.51100000000E-03 0. -1.
        -11    1    3    3    0    0  0.10802700935E+01 -0.37037457633E+00 -0.13665467355E+01  0.17809017500E+01  0.51100000000E-03 0.  1.
         12    1    3    3    0    0  0.52079456078E+01 -0.28502281172E+02  0.17058959682E+02  0.33623069981E+02  0.00000000000E+00 0. -1.
</event>
<event>
 7    1  0.3884463E-009  0.4778731E+02  0.7816164E-02  0.1312668E+00
        -11   -1    0    0    0    0  0.00000000000E+00  0.00000000000E+00  0.45593999997E+02  0.45594000000E+02  0.51100000000E-03 0. -1.
         11   -1    0    0    0    0 -0.00000000000E+00 -0.00000000000E+00 -0.45593999997E+02  0.45594000000E+02  0.51100000000E-03 0.  1.
    9900012    2    1    2    0    0 -0.39595908904E+02 -0.58641749942E+00  0.17760624446E+02  0.47787312584E+02  0.20000189396E+02 0.  0.
        -12    1    1    2    0    0  0.39595908904E+02  0.58641749942E+00 -0.17760624446E+02  0.43400687416E+02  0.00000000000E+00 0.  1.
         11    1    3    3    0    0 -0.67014925483E+01  0.60225642950E+01 -0.12354592521E-01  0.90100741373E+01  0.51100000000E-03 0. -1.
        -11    1    3    3    0    0 -0.17353638234E+01 -0.12253645107E+01  0.34778735445E+01  0.40753662947E+01  0.51100000000E-03 0.  1.
         12    1    3    3    0    0 -0.31159052533E+02 -0.53836172837E+01  0.14295105494E+02  0.34701872152E+02  0.00000000000E+00 0. -1.
</event>
<event>
 7    1  0.3884463E-009  0.4778727E+02  0.7816164E-02  0.1312668E+00
        -11   -1    0    0    0    0  0.00000000000E+00  0.00000000000E+00  0.45593999997E+02  0.45594000000E+02  0.51100000000E-03 0. -1.
         11   -1    0    0    0    0 -0.00000000000E+00 -0.00000000000E+00 -0.45593999997E+02  0.45594000000E+02  0.51100000000E-03 0.  1.
    9900012    2    1    2    0    0 -0.29479609095E+02  0.14497879661E+02  0.28361721939E+02  0.47787272606E+02  0.20000007118E+02 0.  0.
        -12    1    1    2    0    0  0.29479609095E+02 -0.14497879661E+02 -0.28361721939E+02  0.43400727394E+02  0.00000000000E+00 0.  1.
         11    1    3    3    0    0 -0.12571798576E+02 -0.19191791274E+01  0.10434727873E+02  0.16450438110E+02  0.51100000000E-03 0. -1.
        -11    1    3    3    0    0 -0.13466129004E+02  0.60257449759E+01  0.10537234405E+02  0.18129521285E+02  0.51100000000E-03 0.  1.
         12    1    3    3    0    0 -0.34416815144E+01  0.10391313812E+02  0.73897596605E+01  0.13207313210E+02  0.00000000000E+00 0. -1.
</event>
<event>
 7    1  0.3884463E-009  0.4778727E+02  0.7816164E-02  0.1312668E+00
        -11   -1    0    0    0    0  0.00000000000E+00  0.00000000000E+00  0.45593999997E+02  0.45594000000E+02  0.51100000000E-03 0. -1.
         11   -1    0    0    0    0 -0.00000000000E+00 -0.00000000000E+00 -0.45593999997E+02  0.45594000000E+02  0.51100000000E-03 0.  1.
    9900012    2    1    2    0    0  0.16467952266E+01 -0.23064389006E+02  0.36727990539E+02  0.47787271161E+02  0.20000000531E+02 0.  0.
        -12    1    1    2    0    0 -0.16467952266E+01  0.23064389006E+02 -0.36727990539E+02  0.43400728839E+02  0.00000000000E+00 0.  1.
         11    1    3    3    0    0 -0.12543233996E+01 -0.11208409536E+02  0.10566769577E+02  0.15455044195E+02  0.51100000000E-03 0. -1.
        -11    1    3    3    0    0  0.57770195344E+01 -0.95493625090E+01  0.78289289619E+01  0.13632916342E+02  0.51100000000E-03 0.  1.
         12    1    3    3    0    0 -0.28759009082E+01 -0.23066169604E+01  0.18332292000E+02  0.18699310624E+02  0.00000000000E+00 0. -1.
</event>
<event>
 7    1  0.3884463E-009  0.4778727E+02  0.7816164E-02  0.1312668E+00
        -11   -1    0    0    0    0  0.00000000000E+00  0.00000000000E+00  0.45593999997E+02  0.45594000000E+02  0.51100000000E-03 0.  1.
         11   -1    0    0    0    0 -0.00000000000E+00 -0.00000000000E+00 -0.45593999997E+02  0.45594000000E+02  0.51100000000E-03 0. -1.
    9900012    2    1    2    0    0 -0.81619414390E+01  0.16138697754E+02 -0.39453120611E+02  0.47787267527E+02  0.19999983961E+02 0.  0.
        -12    1    1    2    0    0  0.81619414390E+01 -0.16138697754E+02  0.39453120611E+02  0.43400732473E+02  0.00000000000E+00 0.  1.
         11    1    3    3    0    0  0.23029395711E+01 -0.54953717735E-01 -0.11540901928E+01  0.25765238235E+01  0.51100000000E-03 0. -1.
        -11    1    3    3    0    0  0.14781453241E+01  0.89665062212E+01 -0.21675339913E+02  0.23503265902E+02  0.51100000000E-03 0.  1.
         12    1    3    3    0    0 -0.11943026334E+02  0.72271452504E+01 -0.16623690505E+02  0.21707477802E+02  0.00000000000E+00 0. -1.
</event>
<event>
 7    1  0.3884463E-009  0.4778727E+02  0.7816164E-02  0.1312668E+00
        -11   -1    0    0    0    0  0.00000000000E+00  0.00000000000E+00  0.45593999997E+02  0.45594000000E+02  0.51100000000E-03 0.  1.
         11   -1    0    0    0    0 -0.00000000000E+00 -0.00000000000E+00 -0.45593999997E+02  0.45594000000E+02  0.51100000000E-03 0. -1.
    9900012    2    1    2    0    0 -0.30455149562E+02  0.22057363393E+02 -0.21669793921E+02  0.47787269784E+02  0.19999994253E+02 0.  0.
        -12    1    1    2    0    0  0.30455149562E+02 -0.22057363393E+02  0.21669793921E+02  0.43400730216E+02  0.00000000000E+00 0.  1.
         11    1    3    3    0    0 -0.99503588463E+01  0.82800710186E+01 -0.10105815546E+02  0.16422445779E+02  0.51100000000E-03 0. -1.
        -11    1    3    3    0    0 -0.11977216348E+01 -0.30226501237E+01 -0.28660657849E+01  0.43341993758E+01  0.51100000000E-03 0.  1.
         12    1    3    3    0    0 -0.19307069081E+02  0.16799942498E+02 -0.86979125901E+01  0.27030624630E+02  0.00000000000E+00 0. -1.
</event>
<event>
 7    1  0.3884463E-009  0.4778727E+02  0.7816164E-02  0.1312668E+00
        -11   -1    0    0    0    0  0.00000000000E+00  0.00000000000E+00  0.45593999997E+02  0.45594000000E+02  0.51100000000E-03 0.  1.
         11   -1    0    0    0    0 -0.00000000000E+00 -0.00000000000E+00 -0.45593999997E+02  0.45594000000E+02  0.51100000000E-03 0. -1.
    9900012    2    1    2    0    0  0.38762772781E+02  0.54693922737E+01 -0.18739169226E+02  0.47787271103E+02  0.20000000268E+02 0.  0.
        -12    1    1    2    0    0 -0.38762772781E+02 -0.54693922737E+01  0.18739169226E+02  0.43400728897E+02  0.00000000000E+00 0.  1.
         11    1    3    3    0    0  0.88686994514E+01  0.24936482378E+01 -0.76011949537E+01  0.11943629117E+02  0.51100000000E-03 0.  1.
        -11    1    3    3    0    0  0.27467254794E+02  0.67157358753E+01 -0.12861212048E+02  0.31063837012E+02  0.51100000000E-03 0. -1.
         12    1    3    3    0    0  0.24268185350E+01 -0.37399918394E+01  0.17232377764E+01  0.47798049746E+01  0.00000000000E+00 0. -1.
</event>
<event>
 7    1  0.3884463E-009  0.4778727E+02  0.7816164E-02  0.1312668E+00
        -11   -1    0    0    0    0  0.00000000000E+00  0.00000000000E+00  0.45593999997E+02  0.45594000000E+02  0.51100000000E-03 0.  1.
         11   -1    0    0    0    0 -0.00000000000E+00 -0.00000000000E+00 -0.45593999997E+02  0.45594000000E+02  0.51100000000E-03 0. -1.
    9900012    2    1    2    0    0  0.19552046827E+02 -0.15271628649E+01 -0.38717030968E+02  0.47787271337E+02  0.20000001332E+02 0.  0.
        -12    1    1    2    0    0 -0.19552046827E+02  0.15271628649E+01  0.38717030968E+02  0.43400728663E+02  0.00000000000E+00 0.  1.
         11    1    3    3    0    0  0.39349899493E+01 -0.31512371457E+01 -0.18986022261E+01  0.53869408874E+01  0.51100000000E-03 0. -1.
        -11    1    3    3    0    0  0.64492677394E+01 -0.57802563046E+01 -0.10846130229E+02  0.13879587837E+02  0.51100000000E-03 0.  1.
         12    1    3    3    0    0  0.91677891386E+01  0.74043305855E+01 -0.25972298513E+02  0.28520742612E+02  0.00000000000E+00 0. -1.
</event>
<event>
 7    1  0.3884463E-009  0.4778727E+02  0.7816164E-02  0.1312668E+00
        -11   -1    0    0    0    0  0.00000000000E+00  0.00000000000E+00  0.45593999997E+02  0.45594000000E+02  0.51100000000E-03 0.  1.
         11   -1    0    0    0    0 -0.00000000000E+00 -0.00000000000E+00 -0.45593999997E+02  0.45594000000E+02  0.51100000000E-03 0. -1.
    9900012    2    1    2    0    0 -0.28872320443E+02  0.32037475444E+02 -0.48592559048E+01  0.47787273179E+02  0.20000009733E+02 0.  0.
        -12    1    1    2    0    0  0.28872320443E+02 -0.32037475444E+02  0.48592559048E+01  0.43400726821E+02  0.00000000000E+00 0.  1.
         11    1    3    3    0    0 -0.14116555650E+02  0.14881255645E+02 -0.75506368715E+01  0.21857287810E+02  0.51100000000E-03 0. -1.
        -11    1    3    3    0    0 -0.54921749574E+01  0.14992901025E+02 -0.26168236779E+00  0.15969331383E+02  0.51100000000E-03 0.  1.
         12    1    3    3    0    0 -0.92635898358E+01  0.21633187743E+01  0.29530633345E+01  0.99606539857E+01  0.00000000000E+00 0. -1.
</event>
<event>
 7    1  0.3884463E-009  0.4778727E+02  0.7816164E-02  0.1312668E+00
        -11   -1    0    0    0    0  0.00000000000E+00  0.00000000000E+00  0.45593999997E+02  0.45594000000E+02  0.51100000000E-03 0. -1.
         11   -1    0    0    0    0 -0.00000000000E+00 -0.00000000000E+00 -0.45593999997E+02  0.45594000000E+02  0.51100000000E-03 0.  1.
    9900012    2    1    2    0    0  0.27595724845E+02 -0.29272382908E+02  0.16285795215E+02  0.47787267787E+02  0.19999985149E+02 0.  0.
        -12    1    1    2    0    0 -0.27595724845E+02  0.29272382908E+02 -0.16285795215E+02  0.43400732213E+02  0.00000000000E+00 0.  1.
         11    1    3    3    0    0  0.69495391890E+01 -0.74319121984E+01 -0.10054749896E+01  0.10224499698E+02  0.51100000000E-03 0. -1.
        -11    1    3    3    0    0  0.73419073222E+01 -0.85312233498E+01 -0.10250108482E+01  0.11302036209E+02  0.51100000000E-03 0.  1.
        -12    1    3    3    0    0  0.13304278334E+02 -0.13309247360E+02  0.18316281053E+02  0.26260731880E+02  0.00000000000E+00 0.  1.
</event>
<event>
 7    1  0.3884463E-009  0.4778727E+02  0.7816164E-02  0.1312668E+00
        -11   -1    0    0    0    0  0.00000000000E+00  0.00000000000E+00  0.45593999997E+02  0.45594000000E+02  0.51100000000E-03 0.  1.
         11   -1    0    0    0    0 -0.00000000000E+00 -0.00000000000E+00 -0.45593999997E+02  0.45594000000E+02  0.51100000000E-03 0. -1.
    9900012    2    1    2    0    0  0.37997538206E+02  0.20810257188E+02  0.25968700489E+01  0.47787269039E+02  0.19999990854E+02 0.  0.
        -12    1    1    2    0    0 -0.37997538206E+02 -0.20810257188E+02 -0.25968700489E+01  0.43400730961E+02  0.00000000000E+00 0.  1.
         11    1    3    3    0    0  0.11877463944E+02 -0.25642051268E-02  0.61287286440E+01  0.13365458142E+02  0.51100000000E-03 0. -1.
        -11    1    3    3    0    0  0.68108362332E+01  0.69465169999E+01  0.21872988885E+01  0.99712519432E+01  0.51100000000E-03 0.  1.
        -12    1    3    3    0    0  0.19309238029E+02  0.13866304393E+02 -0.57191574836E+01  0.24450558953E+02  0.00000000000E+00 0.  1.
</event>
<event>
 7    1  0.3884463E-009  0.4778727E+02  0.7816164E-02  0.1312668E+00
        -11   -1    0    0    0    0  0.00000000000E+00  0.00000000000E+00  0.45593999997E+02  0.45594000000E+02  0.51100000000E-03 0.  1.
         11   -1    0    0    0    0 -0.00000000000E+00 -0.00000000000E+00 -0.45593999997E+02  0.45594000000E+02  0.51100000000E-03 0. -1.
    9900012    2    1    2    0    0  0.38329540489E+02 -0.79710200779E+01 -0.18733182788E+02  0.47787274516E+02  0.20000015827E+02 0.  0.
        -12    1    1    2    0    0 -0.38329540489E+02  0.79710200779E+01  0.18733182788E+02  0.43400725484E+02  0.00000000000E+00 0.  1.
         11    1    3    3    0    0  0.80942695550E+01  0.12205862480E+01 -0.10396588197E+02  0.13232387419E+02  0.51100000000E-03 0. -1.
        -11    1    3    3    0    0  0.14906130262E+01 -0.38588942254E+01  0.62174451840E-01  0.41372524410E+01  0.51100000000E-03 0.  1.
        -12    1    3    3    0    0  0.28744657908E+02 -0.53327121006E+01 -0.83987690430E+01  0.30417634655E+02  0.00000000000E+00 0.  1.
</event>
<event>
 7    1  0.3884463E-009  0.4778725E+02  0.7816164E-02  0.1312668E+00
        -11   -1    0    0    0    0  0.00000000000E+00  0.00000000000E+00  0.45593999997E+02  0.45594000000E+02  0.51100000000E-03 0.  1.
         11   -1    0    0    0    0 -0.00000000000E+00 -0.00000000000E+00 -0.45593999997E+02  0.45594000000E+02  0.51100000000E-03 0. -1.
    9900012    2    1    2    0    0 -0.11328775125E+02 -0.41860680735E+02  0.17225561373E+01  0.47787251884E+02  0.19999912638E+02 0.  0.
        -12    1    1    2    0    0  0.11328775125E+02  0.41860680735E+02 -0.17225561373E+01  0.43400748116E+02  0.00000000000E+00 0.  1.
         11    1    3    3    0    0 -0.24957539265E+01  0.45670233011E+00 -0.17983142634E+01  0.31098712402E+01  0.51100000000E-03 0. -1.
        -11    1    3    3    0    0  0.14707790838E+01 -0.56329156608E+01 -0.20418121145E+01  0.61694348952E+01  0.51100000000E-03 0.  1.
         12    1    3    3    0    0 -0.10303800282E+02 -0.36684467404E+02  0.55626825152E+01  0.38507945748E+02  0.00000000000E+00 0. -1.
</event>
<event>
 7    1  0.3884463E-009  0.4778726E+02  0.7816164E-02  0.1312668E+00
        -11   -1    0    0    0    0  0.00000000000E+00  0.00000000000E+00  0.45593999997E+02  0.45594000000E+02  0.51100000000E-03 0.  1.
         11   -1    0    0    0    0 -0.00000000000E+00 -0.00000000000E+00 -0.45593999997E+02  0.45594000000E+02  0.51100000000E-03 0. -1.
    9900012    2    1    2    0    0  0.33642593068E+02 -0.13813749326E+02 -0.23685025207E+02  0.47787260861E+02  0.19999953570E+02 0.  0.
        -12    1    1    2    0    0 -0.33642593068E+02  0.13813749326E+02  0.23685025207E+02  0.43400739139E+02  0.00000000000E+00 0.  1.
         11    1    3    3    0    0  0.26700578459E+01 -0.71717528470E+00 -0.27506367143E+01  0.38999425489E+01  0.51100000000E-03 0. -1.
        -11    1    3    3    0    0  0.33663468673E+01 -0.94885630048E+01 -0.93243690439E+01  0.13722571824E+02  0.51100000000E-03 0.  1.
         12    1    3    3    0    0  0.27606188355E+02 -0.36080110361E+01 -0.11610019448E+02  0.30164746489E+02  0.00000000000E+00 0. -1.
</event>
<event>
 7    1  0.3884463E-009  0.4778727E+02  0.7816164E-02  0.1312668E+00
        -11   -1    0    0    0    0  0.00000000000E+00  0.00000000000E+00  0.45593999997E+02  0.45594000000E+02  0.51100000000E-03 0.  1.
         11   -1    0    0    0    0 -0.00000000000E+00 -0.00000000000E+00 -0.45593999997E+02  0.45594000000E+02  0.51100000000E-03 0. -1.
    9900012    2    1    2    0    0  0.41341028979E+02 -0.26404186303E+01 -0.12944908712E+02  0.47787272481E+02  0.20000006549E+02 0.  0.
        -12    1    1    2    0    0 -0.41341028979E+02  0.26404186303E+01  0.12944908712E+02  0.43400727519E+02  0.00000000000E+00 0.  1.
         11    1    3    3    0    0  0.23855718708E+01 -0.18058256104E+01  0.45581831012E+00  0.30265045645E+01  0.51100000000E-03 0. -1.
        -11    1    3    3    0    0  0.21636764298E+02  0.80065186245E+01 -0.93799151934E+01  0.24904552176E+02  0.51100000000E-03 0.  1.
        -12    1    3    3    0    0  0.17318692811E+02 -0.88411116445E+01 -0.40208118290E+01  0.19856215741E+02  0.00000000000E+00 0.  1.
</event>
<event>
 7    1  0.3884463E-009  0.4778727E+02  0.7816164E-02  0.1312668E+00
        -11   -1    0    0    0    0  0.00000000000E+00  0.00000000000E+00  0.45593999997E+02  0.45594000000E+02  0.51100000000E-03 0.  1.
         11   -1    0    0    0    0 -0.00000000000E+00 -0.00000000000E+00 -0.45593999997E+02  0.45594000000E+02  0.51100000000E-03 0. -1.
    9900012    2    1    2    0    0  0.38679466051E+01 -0.32519520285E+02 -0.28480572094E+02  0.47787271927E+02  0.20000004024E+02 0.  0.
        -12    1    1    2    0    0 -0.38679466051E+01  0.32519520285E+02  0.28480572094E+02  0.43400728073E+02  0.00000000000E+00 0.  1.
         11    1    3    3    0    0  0.44527567072E+01 -0.99884528810E+01 -0.36666552632E+01  0.11534322448E+02  0.51100000000E-03 0. -1.
        -11    1    3    3    0    0 -0.23676563652E+01 -0.19404374680E+02 -0.25940525669E+02  0.32481478193E+02  0.51100000000E-03 0.  1.
         12    1    3    3    0    0  0.17828462630E+01 -0.31266927238E+01  0.11266088382E+01  0.37714712860E+01  0.00000000000E+00 0. -1.
</event>
<event>
 7    1  0.3884463E-009  0.4778728E+02  0.7816164E-02  0.1312668E+00
        -11   -1    0    0    0    0  0.00000000000E+00  0.00000000000E+00  0.45593999997E+02  0.45594000000E+02  0.51100000000E-03 0.  1.
         11   -1    0    0    0    0 -0.00000000000E+00 -0.00000000000E+00 -0.45593999997E+02  0.45594000000E+02  0.51100000000E-03 0. -1.
    9900012    2    1    2    0    0 -0.12999166618E+02 -0.11929158760E+02 -0.39652737665E+02  0.47787276897E+02  0.20000026686E+02 0.  0.
        -12    1    1    2    0    0  0.12999166618E+02  0.11929158760E+02  0.39652737665E+02  0.43400723103E+02  0.00000000000E+00 0.  1.
         11    1    3    3    0    0 -0.13125020125E+01 -0.61061356637E+01 -0.22914911934E+02  0.23750805113E+02  0.51100000000E-03 0. -1.
        -11    1    3    3    0    0  0.16859954689E+01  0.89369201144E+00 -0.38092139318E+01  0.42604433069E+01  0.51100000000E-03 0.  1.
         12    1    3    3    0    0 -0.13372660075E+02 -0.67167151078E+01 -0.12928611799E+02  0.19776028478E+02  0.00000000000E+00 0. -1.
</event>
<event>
 7    1  0.3884463E-009  0.4778728E+02  0.7816164E-02  0.1312668E+00
        -11   -1    0    0    0    0  0.00000000000E+00  0.00000000000E+00  0.45593999997E+02  0.45594000000E+02  0.51100000000E-03 0. -1.
         11   -1    0    0    0    0 -0.00000000000E+00 -0.00000000000E+00 -0.45593999997E+02  0.45594000000E+02  0.51100000000E-03 0.  1.
    9900012    2    1    2    0    0  0.22839506883E+02  0.28297734358E+02  0.23690031531E+02  0.47787280670E+02  0.20000043888E+02 0.  0.
        -12    1    1    2    0    0 -0.22839506883E+02 -0.28297734358E+02 -0.23690031531E+02  0.43400719330E+02  0.00000000000E+00 0.  1.
         11    1    3    3    0    0  0.23108178766E+02  0.17519800436E+02  0.11011758579E+02  0.31019190197E+02  0.51100000000E-03 0. -1.
        -11    1    3    3    0    0 -0.79387894959E+00  0.37868820856E+01  0.34901586615E+01  0.52107511417E+01  0.51100000000E-03 0.  1.
         12    1    3    3    0    0  0.52520706679E+00  0.69910518358E+01  0.91881142899E+01  0.11557339332E+02  0.00000000000E+00 0. -1.
</event>
<event>
 7    1  0.3884463E-009  0.4778727E+02  0.7816164E-02  0.1312668E+00
        -11   -1    0    0    0    0  0.00000000000E+00  0.00000000000E+00  0.45593999997E+02  0.45594000000E+02  0.51100000000E-03 0.  1.
         11   -1    0    0    0    0 -0.00000000000E+00 -0.00000000000E+00 -0.45593999997E+02  0.45594000000E+02  0.51100000000E-03 0. -1.
    9900012    2    1    2    0    0  0.42279706557E+02  0.46834239004E+01  0.86090038765E+01  0.47787274272E+02  0.20000014714E+02 0.  0.
        -12    1    1    2    0    0 -0.42279706557E+02 -0.46834239004E+01 -0.86090038765E+01  0.43400725728E+02  0.00000000000E+00 0.  1.
         11    1    3    3    0    0  0.38210969572E+02  0.35355048691E+01  0.90504117410E+01  0.39426995108E+02  0.51100000000E-03 0. -1.
        -11    1    3    3    0    0  0.41211033879E+01  0.32359165499E+01  0.15605075708E+01  0.54671595176E+01  0.51100000000E-03 0.  1.
        -12    1    3    3    0    0 -0.52366402107E-01 -0.20879975186E+01 -0.20019154353E+01  0.28931196464E+01  0.00000000000E+00 0.  1.
</event>
<event>
 7    1  0.3884463E-009  0.4778727E+02  0.7816164E-02  0.1312668E+00
        -11   -1    0    0    0    0  0.00000000000E+00  0.00000000000E+00  0.45593999997E+02  0.45594000000E+02  0.51100000000E-03 0.  1.
         11   -1    0    0    0    0 -0.00000000000E+00 -0.00000000000E+00 -0.45593999997E+02  0.45594000000E+02  0.51100000000E-03 0. -1.
    9900012    2    1    2    0    0  0.10717120069E+02  0.44540400372E+01 -0.41820189357E+02  0.47787269901E+02  0.19999994787E+02 0.  0.
        -12    1    1    2    0    0 -0.10717120069E+02 -0.44540400372E+01  0.41820189357E+02  0.43400730099E+02  0.00000000000E+00 0.  1.
         11    1    3    3    0    0  0.96177392011E+00 -0.30280393537E+01 -0.20047087670E+01  0.37567125126E+01  0.51100000000E-03 0. -1.
        -11    1    3    3    0    0 -0.13344562083E+01 -0.27260656006E+01 -0.30853169576E+01  0.43279773591E+01  0.51100000000E-03 0.  1.
         12    1    3    3    0    0  0.11089802357E+02  0.10208144991E+02 -0.36730163633E+02  0.39702580029E+02  0.00000000000E+00 0. -1.
</event>
<event>
 7    1  0.3884463E-009  0.4778727E+02  0.7816164E-02  0.1312668E+00
        -11   -1    0    0    0    0  0.00000000000E+00  0.00000000000E+00  0.45593999997E+02  0.45594000000E+02  0.51100000000E-03 0. -1.
         11   -1    0    0    0    0 -0.00000000000E+00 -0.00000000000E+00 -0.45593999997E+02  0.45594000000E+02  0.51100000000E-03 0.  1.
    9900012    2    1    2    0    0  0.13384120492E+02 -0.10877302679E+02  0.39826786023E+02  0.47787270976E+02  0.19999999686E+02 0.  0.
        -12    1    1    2    0    0 -0.13384120492E+02  0.10877302679E+02 -0.39826786023E+02  0.43400729024E+02  0.00000000000E+00 0.  1.
         11    1    3    3    0    0 -0.36578955073E+01 -0.60535458469E+01  0.78899624992E+01  0.10596090098E+02  0.51100000000E-03 0.  1.
        -11    1    3    3    0    0  0.27581670062E+01 -0.13455376889E+01  0.12204674769E+02  0.12584595480E+02  0.51100000000E-03 0. -1.
        -12    1    3    3    0    0  0.14283848994E+02 -0.34782191432E+01  0.19732148755E+02  0.24606585398E+02  0.00000000000E+00 0.  1.
</event>
<event>
 7    1  0.3884463E-009  0.4778727E+02  0.7816164E-02  0.1312668E+00
        -11   -1    0    0    0    0  0.00000000000E+00  0.00000000000E+00  0.45593999997E+02  0.45594000000E+02  0.51100000000E-03 0. -1.
         11   -1    0    0    0    0 -0.00000000000E+00 -0.00000000000E+00 -0.45593999997E+02  0.45594000000E+02  0.51100000000E-03 0.  1.
    9900012    2    1    2    0    0  0.28677249854E+02  0.32426106655E+02 -0.31283035024E+01  0.47787270343E+02  0.19999996801E+02 0.  0.
        -12    1    1    2    0    0 -0.28677249854E+02 -0.32426106655E+02  0.31283035024E+01  0.43400729657E+02  0.00000000000E+00 0.  1.
         11    1    3    3    0    0  0.24796814161E+02  0.17558343834E+02 -0.53797205750E+00  0.30388597284E+02  0.51100000000E-03 0. -1.
        -11    1    3    3    0    0  0.30380486642E+01  0.97665856618E+00  0.22885053979E+00  0.31993709494E+01  0.51100000000E-03 0.  1.
        -12    1    3    3    0    0  0.84238702896E+00  0.13891104255E+02 -0.28191819847E+01  0.14199302109E+02  0.00000000000E+00 0.  1.
</event>
<event>
 7    1  0.3884463E-009  0.4778723E+02  0.7816164E-02  0.1312668E+00
        -11   -1    0    0    0    0  0.00000000000E+00  0.00000000000E+00  0.45593999997E+02  0.45594000000E+02  0.51100000000E-03 0. -1.
         11   -1    0    0    0    0 -0.00000000000E+00 -0.00000000000E+00 -0.45593999997E+02  0.45594000000E+02  0.51100000000E-03 0.  1.
    9900012    2    1    2    0    0 -0.24731960412E+02  0.35628048010E+02  0.16122436486E+01  0.47787228112E+02  0.19999804254E+02 0.  0.
        -12    1    1    2    0    0  0.24731960412E+02 -0.35628048010E+02 -0.16122436486E+01  0.43400771888E+02  0.00000000000E+00 0.  1.
         11    1    3    3    0    0 -0.19116740345E+02  0.31723016190E+02 -0.14349656102E+01  0.37065599202E+02  0.51100000000E-03 0. -1.
        -11    1    3    3    0    0  0.10221383171E+01  0.26845488021E+01 -0.76234986216E+00  0.29719937052E+01  0.51100000000E-03 0.  1.
        -12    1    3    3    0    0 -0.66373583847E+01  0.12204830181E+01  0.38095591210E+01  0.77496352057E+01  0.00000000000E+00 0.  1.
</event>
<event>
 7    1  0.3884463E-009  0.4778727E+02  0.7816164E-02  0.1312668E+00
        -11   -1    0    0    0    0  0.00000000000E+00  0.00000000000E+00  0.45593999997E+02  0.45594000000E+02  0.51100000000E-03 0.  1.
         11   -1    0    0    0    0 -0.00000000000E+00 -0.00000000000E+00 -0.45593999997E+02  0.45594000000E+02  0.51100000000E-03 0. -1.
    9900012    2    1    2    0    0  0.12267937460E+02  0.22598221574E+00 -0.41630157907E+02  0.47787269536E+02  0.19999993122E+02 0.  0.
        -12    1    1    2    0    0 -0.12267937460E+02 -0.22598221574E+00  0.41630157907E+02  0.43400730464E+02  0.00000000000E+00 0.  1.
         11    1    3    3    0    0  0.25643562933E+01  0.38236438991E+01 -0.23989212923E+02  0.24427003763E+02  0.51100000000E-03 0. -1.
        -11    1    3    3    0    0  0.88198827769E+00  0.29266401192E+01 -0.63493494664E+00  0.31219014009E+01  0.51100000000E-03 0.  1.
         12    1    3    3    0    0  0.88215928893E+01 -0.65243018025E+01 -0.17006010036E+02  0.20238364373E+02  0.00000000000E+00 0. -1.
</event>
<event>
 7    1  0.3884463E-009  0.4778732E+02  0.7816164E-02  0.1312668E+00
        -11   -1    0    0    0    0  0.00000000000E+00  0.00000000000E+00  0.45593999997E+02  0.45594000000E+02  0.51100000000E-03 0.  1.
         11   -1    0    0    0    0 -0.00000000000E+00 -0.00000000000E+00 -0.45593999997E+02  0.45594000000E+02  0.51100000000E-03 0. -1.
    9900012    2    1    2    0    0 -0.64160658330E+01  0.18997270537E+02 -0.38491001890E+02  0.47787315499E+02  0.20000202687E+02 0.  0.
        -12    1    1    2    0    0  0.64160658330E+01 -0.18997270537E+02  0.38491001890E+02  0.43400684501E+02  0.00000000000E+00 0.  1.
         11    1    3    3    0    0  0.20600408766E+01 -0.13210450005E+01 -0.10605596125E+01  0.26671548998E+01  0.51100000000E-03 0. -1.
        -11    1    3    3    0    0 -0.68611166263E+01  0.35482155293E+01 -0.74580606180E+01  0.10737198110E+02  0.51100000000E-03 0.  1.
         12    1    3    3    0    0 -0.16149900833E+01  0.16770100008E+02 -0.29972381659E+02  0.34382962490E+02  0.00000000000E+00 0. -1.
</event>
<event>
 7    1  0.3884463E-009  0.4778724E+02  0.7816164E-02  0.1312668E+00
        -11   -1    0    0    0    0  0.00000000000E+00  0.00000000000E+00  0.45593999997E+02  0.45594000000E+02  0.51100000000E-03 0.  1.
         11   -1    0    0    0    0 -0.00000000000E+00 -0.00000000000E+00 -0.45593999997E+02  0.45594000000E+02  0.51100000000E-03 0. -1.
    9900012    2    1    2    0    0 -0.13601760195E+02  0.41214291654E+02  0.10001466520E-01  0.47787241746E+02  0.19999866418E+02 0.  0.
        -12    1    1    2    0    0  0.13601760195E+02 -0.41214291654E+02 -0.10001466520E-01  0.43400758254E+02  0.00000000000E+00 0.  1.
         11    1    3    3    0    0 -0.24756701827E+01  0.37204915252E+01 -0.22204916236E+01  0.49901486305E+01  0.51100000000E-03 0. -1.
        -11    1    3    3    0    0  0.24553596285E+01 -0.30190294546E+00  0.83527001444E+00  0.26110558308E+01  0.51100000000E-03 0.  1.
        -12    1    3    3    0    0 -0.13581449641E+02  0.37795703074E+02  0.13952230757E+01  0.40186037285E+02  0.00000000000E+00 0.  1.
</event>
<event>
 7    1  0.3884463E-009  0.4778727E+02  0.7816164E-02  0.1312668E+00
        -11   -1    0    0    0    0  0.00000000000E+00  0.00000000000E+00  0.45593999997E+02  0.45594000000E+02  0.51100000000E-03 0.  1.
         11   -1    0    0    0    0 -0.00000000000E+00 -0.00000000000E+00 -0.45593999997E+02  0.45594000000E+02  0.51100000000E-03 0. -1.
    9900012    2    1    2    0    0 -0.13675567437E+02  0.40610936660E+02 -0.68814151131E+01  0.47787271952E+02  0.20000004137E+02 0.  0.
        -12    1    1    2    0    0  0.13675567437E+02 -0.40610936660E+02  0.68814151131E+01  0.43400728048E+02  0.00000000000E+00 0.  1.
         11    1    3    3    0    0 -0.12644302756E+02  0.18908993585E+02  0.62998176551E+00  0.22755775264E+02  0.51100000000E-03 0. -1.
        -11    1    3    3    0    0 -0.49858539266E+01  0.14822205185E+02 -0.30666493986E+01  0.15936148993E+02  0.51100000000E-03 0.  1.
        -12    1    3    3    0    0  0.39545892452E+01  0.68797378902E+01 -0.44447474800E+01  0.90953476952E+01  0.00000000000E+00 0.  1.
</event>
<event>
 7    1  0.3884463E-009  0.4778727E+02  0.7816164E-02  0.1312668E+00
        -11   -1    0    0    0    0  0.00000000000E+00  0.00000000000E+00  0.45593999997E+02  0.45594000000E+02  0.51100000000E-03 0. -1.
         11   -1    0    0    0    0 -0.00000000000E+00 -0.00000000000E+00 -0.45593999997E+02  0.45594000000E+02  0.51100000000E-03 0.  1.
    9900012    2    1    2    0    0  0.11527427156E+02 -0.22035317457E+02  0.35569461207E+02  0.47787270020E+02  0.19999995327E+02 0.  0.
        -12    1    1    2    0    0 -0.11527427156E+02  0.22035317457E+02 -0.35569461207E+02  0.43400729980E+02  0.00000000000E+00 0.  1.
         11    1    3    3    0    0  0.69121714900E+01 -0.69701184906E+01  0.11395074646E+02  0.15040225827E+02  0.51100000000E-03 0. -1.
        -11    1    3    3    0    0  0.94517919204E+01 -0.50469913360E+01  0.94069877131E+01  0.14258327747E+02  0.51100000000E-03 0.  1.
         12    1    3    3    0    0 -0.48365362539E+01 -0.10018207631E+02  0.14767398847E+02  0.18488716445E+02  0.00000000000E+00 0. -1.
</event>
<event>
 7    1  0.3884463E-009  0.4778727E+02  0.7816164E-02  0.1312668E+00
        -11   -1    0    0    0    0  0.00000000000E+00  0.00000000000E+00  0.45593999997E+02  0.45594000000E+02  0.51100000000E-03 0.  1.
         11   -1    0    0    0    0 -0.00000000000E+00 -0.00000000000E+00 -0.45593999997E+02  0.45594000000E+02  0.51100000000E-03 0. -1.
    9900012    2    1    2    0    0  0.38779120113E+02 -0.21496797544E+01 -0.19369619009E+02  0.47787269357E+02  0.19999992307E+02 0.  0.
        -12    1    1    2    0    0 -0.38779120113E+02  0.21496797544E+01  0.19369619009E+02  0.43400730643E+02  0.00000000000E+00 0.  1.
         11    1    3    3    0    0  0.27230731929E+02  0.40125501999E-01 -0.47883111673E+01  0.27648549610E+02  0.51100000000E-03 0. -1.
        -11    1    3    3    0    0  0.19230492285E+01  0.23128757863E+01 -0.49761578123E+01  0.58146074306E+01  0.51100000000E-03 0.  1.
        -12    1    3    3    0    0  0.96253389558E+01 -0.45026810427E+01 -0.96051500290E+01  0.14324112317E+02  0.00000000000E+00 0.  1.
</event>
<event>
 7    1  0.3884463E-009  0.4778727E+02  0.7816164E-02  0.1312668E+00
        -11   -1    0    0    0    0  0.00000000000E+00  0.00000000000E+00  0.45593999997E+02  0.45594000000E+02  0.51100000000E-03 0.  1.
         11   -1    0    0    0    0 -0.00000000000E+00 -0.00000000000E+00 -0.45593999997E+02  0.45594000000E+02  0.51100000000E-03 0. -1.
    9900012    2    1    2    0    0  0.24857498037E+02 -0.98739289749E+01 -0.34179431257E+02  0.47787271859E+02  0.20000003715E+02 0.  0.
        -12    1    1    2    0    0 -0.24857498037E+02  0.98739289749E+01  0.34179431257E+02  0.43400728141E+02  0.00000000000E+00 0.  1.
         11    1    3    3    0    0  0.14525867867E+02 -0.51283726812E+01 -0.12333575117E+02  0.19733679815E+02  0.51100000000E-03 0. -1.
        -11    1    3    3    0    0  0.13202781034E+02 -0.45926273903E+01 -0.20656997403E+02  0.24942277269E+02  0.51100000000E-03 0.  1.
        -12    1    3    3    0    0 -0.28711508637E+01 -0.15292890334E+00 -0.11888587375E+01  0.31113147750E+01  0.00000000000E+00 0.  1.
</event>
<event>
 7    1  0.3884463E-009  0.4778728E+02  0.7816164E-02  0.1312668E+00
        -11   -1    0    0    0    0  0.00000000000E+00  0.00000000000E+00  0.45593999997E+02  0.45594000000E+02  0.51100000000E-03 0.  1.
         11   -1    0    0    0    0 -0.00000000000E+00 -0.00000000000E+00 -0.45593999997E+02  0.45594000000E+02  0.51100000000E-03 0. -1.
    9900012    2    1    2    0    0  0.40592759032E+02  0.35503218120E+01 -0.14941413030E+02  0.47787277723E+02  0.20000030451E+02 0.  0.
        -12    1    1    2    0    0 -0.40592759032E+02 -0.35503218120E+01  0.14941413030E+02  0.43400722277E+02  0.00000000000E+00 0.  1.
         11    1    3    3    0    0  0.25068655750E+02  0.95159993073E+01 -0.52827282230E+01  0.27329452276E+02  0.51100000000E-03 0. -1.
        -11    1    3    3    0    0  0.84269326889E+01 -0.14281851423E+00 -0.68406532052E+01  0.10854866568E+02  0.51100000000E-03 0.  1.
         12    1    3    3    0    0  0.70971705926E+01 -0.58228589811E+01 -0.28180316021E+01  0.96029588797E+01  0.00000000000E+00 0. -1.
</event>
<event>
 7    1  0.3884463E-009  0.4778726E+02  0.7816164E-02  0.1312668E+00
        -11   -1    0    0    0    0  0.00000000000E+00  0.00000000000E+00  0.45593999997E+02  0.45594000000E+02  0.51100000000E-03 0.  1.
         11   -1    0    0    0    0 -0.00000000000E+00 -0.00000000000E+00 -0.45593999997E+02  0.45594000000E+02  0.51100000000E-03 0. -1.
    9900012    2    1    2    0    0 -0.20872342674E+02  0.29043998711E+02 -0.24584861708E+02  0.47787262967E+02  0.19999963171E+02 0.  0.
        -12    1    1    2    0    0  0.20872342674E+02 -0.29043998711E+02  0.24584861708E+02  0.43400737033E+02  0.00000000000E+00 0.  1.
         11    1    3    3    0    0 -0.77085893355E+01  0.39494859645E+01 -0.98582869544E+01  0.13122751650E+02  0.51100000000E-03 0. -1.
        -11    1    3    3    0    0 -0.14307817369E+01 -0.15858878880E+01 -0.17443335320E+01  0.27576940555E+01  0.51100000000E-03 0.  1.
         12    1    3    3    0    0 -0.11732971602E+02  0.26680400634E+02 -0.12982241222E+02  0.31906817261E+02  0.00000000000E+00 0. -1.
</event>
<event>
 7    1  0.3884463E-009  0.4778727E+02  0.7816164E-02  0.1312668E+00
        -11   -1    0    0    0    0  0.00000000000E+00  0.00000000000E+00  0.45593999997E+02  0.45594000000E+02  0.51100000000E-03 0.  1.
         11   -1    0    0    0    0 -0.00000000000E+00 -0.00000000000E+00 -0.45593999997E+02  0.45594000000E+02  0.51100000000E-03 0. -1.
    9900012    2    1    2    0    0 -0.19080625021E+02  0.71290117819E+01 -0.38324016713E+02  0.47787270545E+02  0.19999997724E+02 0.  0.
        -12    1    1    2    0    0  0.19080625021E+02 -0.71290117819E+01  0.38324016713E+02  0.43400729455E+02  0.00000000000E+00 0.  1.
         11    1    3    3    0    0 -0.17846619745E+02  0.76494640430E+01 -0.21268776356E+02  0.28798905958E+02  0.51100000000E-03 0. -1.
        -11    1    3    3    0    0 -0.31683636815E+00  0.34397581916E+01 -0.38542660975E+01  0.51756824779E+01  0.51100000000E-03 0.  1.
        -12    1    3    3    0    0 -0.91716890765E+00 -0.39602104527E+01 -0.13200974260E+02  0.13812682109E+02  0.00000000000E+00 0.  1.
</event>
<event>
 7    1  0.3884463E-009  0.4778727E+02  0.7816164E-02  0.1312668E+00
        -11   -1    0    0    0    0  0.00000000000E+00  0.00000000000E+00  0.45593999997E+02  0.45594000000E+02  0.51100000000E-03 0.  1.
         11   -1    0    0    0    0 -0.00000000000E+00 -0.00000000000E+00 -0.45593999997E+02  0.45594000000E+02  0.51100000000E-03 0. -1.
    9900012    2    1    2    0    0  0.27225804430E+02  0.13893955197E+02 -0.30811306240E+02  0.47787274083E+02  0.20000013855E+02 0.  0.
        -12    1    1    2    0    0 -0.27225804430E+02 -0.13893955197E+02  0.30811306240E+02  0.43400725917E+02  0.00000000000E+00 0.  1.
         11    1    3    3    0    0  0.12562665814E+02  0.80056876375E+01 -0.73976873292E+01  0.16632419697E+02  0.51100000000E-03 0. -1.
        -11    1    3    3    0    0  0.15845130853E+02  0.49719632457E+01 -0.14287806287E+02  0.21907304695E+02  0.51100000000E-03 0.  1.
        -12    1    3    3    0    0 -0.11819922359E+01  0.91630431367E+00 -0.91258126239E+01  0.92475496910E+01  0.00000000000E+00 0.  1.
</event>
<event>
 7    1  0.3884463E-009  0.4778726E+02  0.7816164E-02  0.1312668E+00
        -11   -1    0    0    0    0  0.00000000000E+00  0.00000000000E+00  0.45593999997E+02  0.45594000000E+02  0.51100000000E-03 0.  1.
         11   -1    0    0    0    0 -0.00000000000E+00 -0.00000000000E+00 -0.45593999997E+02  0.45594000000E+02  0.51100000000E-03 0. -1.
    9900012    2    1    2    0    0 -0.87251968428E+01  0.14815641005E+02 -0.39849612700E+02  0.47787263708E+02  0.19999966549E+02 0.  0.
        -12    1    1    2    0    0  0.87251968428E+01 -0.14815641005E+02  0.39849612700E+02  0.43400736292E+02  0.00000000000E+00 0.  1.
         11    1    3    3    0    0 -0.86834238238E+01  0.77428578026E+01 -0.21664540391E+02  0.24590770766E+02  0.51100000000E-03 0. -1.
        -11    1    3    3    0    0 -0.45004363274E+01  0.78178035117E+01 -0.80148611638E+01  0.12066895981E+02  0.51100000000E-03 0.  1.
         12    1    3    3    0    0  0.44586633084E+01 -0.74502030888E+00 -0.10170211146E+02  0.11129596961E+02  0.00000000000E+00 0. -1.
</event>
<event>
 7    1  0.3884463E-009  0.4778727E+02  0.7816164E-02  0.1312668E+00
        -11   -1    0    0    0    0  0.00000000000E+00  0.00000000000E+00  0.45593999997E+02  0.45594000000E+02  0.51100000000E-03 0. -1.
         11   -1    0    0    0    0 -0.00000000000E+00 -0.00000000000E+00 -0.45593999997E+02  0.45594000000E+02  0.51100000000E-03 0.  1.
    9900012    2    1    2    0    0  0.78958955570E+00 -0.32784492950E+02  0.28428447507E+02  0.47787273539E+02  0.20000011374E+02 0.  0.
        -12    1    1    2    0    0 -0.78958955570E+00  0.32784492950E+02 -0.28428447507E+02  0.43400726461E+02  0.00000000000E+00 0.  1.
         11    1    3    3    0    0  0.31050484637E+01 -0.47035582005E+01  0.81452309270E+01  0.99050276538E+01  0.51100000000E-03 0. -1.
        -11    1    3    3    0    0 -0.70067048180E+01 -0.18292675201E+02  0.18381485713E+02  0.26862518417E+02  0.51100000000E-03 0.  1.
         12    1    3    3    0    0  0.46912459101E+01 -0.97882595489E+01  0.19017308669E+01  0.11019727468E+02  0.00000000000E+00 0. -1.
</event>
<event>
 7    1  0.3884463E-009  0.4778728E+02  0.7816164E-02  0.1312668E+00
        -11   -1    0    0    0    0  0.00000000000E+00  0.00000000000E+00  0.45593999997E+02  0.45594000000E+02  0.51100000000E-03 0. -1.
         11   -1    0    0    0    0 -0.00000000000E+00 -0.00000000000E+00 -0.45593999997E+02  0.45594000000E+02  0.51100000000E-03 0.  1.
    9900012    2    1    2    0    0  0.27693480470E+02 -0.20539643261E+02  0.26359381818E+02  0.47787276324E+02  0.20000024071E+02 0.  0.
        -12    1    1    2    0    0 -0.27693480470E+02  0.20539643261E+02 -0.26359381818E+02  0.43400723676E+02  0.00000000000E+00 0.  1.
         11    1    3    3    0    0  0.58040600071E+01 -0.11549534984E+01 -0.22530948621E+01  0.63322560646E+01  0.51100000000E-03 0. -1.
        -11    1    3    3    0    0  0.37879572947E+01 -0.70169763196E+01  0.61775602690E+01  0.10087062420E+02  0.51100000000E-03 0.  1.
         12    1    3    3    0    0  0.18101463168E+02 -0.12367713443E+02  0.22434916411E+02  0.31367957839E+02  0.00000000000E+00 0. -1.
</event>
<event>
 7    1  0.3884463E-009  0.4778727E+02  0.7816164E-02  0.1312668E+00
        -11   -1    0    0    0    0  0.00000000000E+00  0.00000000000E+00  0.45593999997E+02  0.45594000000E+02  0.51100000000E-03 0. -1.
         11   -1    0    0    0    0 -0.00000000000E+00 -0.00000000000E+00 -0.45593999997E+02  0.45594000000E+02  0.51100000000E-03 0.  1.
    9900012    2    1    2    0    0  0.61809242287E+01 -0.34560883966E+02  0.25514014055E+02  0.47787269153E+02  0.19999991377E+02 0.  0.
        -12    1    1    2    0    0 -0.61809242287E+01  0.34560883966E+02 -0.25514014055E+02  0.43400730847E+02  0.00000000000E+00 0.  1.
         11    1    3    3    0    0  0.35289163592E+01 -0.44993709667E+01  0.35401179665E+01  0.67253271477E+01  0.51100000000E-03 0. -1.
        -11    1    3    3    0    0  0.31500059203E+01 -0.25666100015E+02  0.90412777120E+01  0.27393720635E+02  0.51100000000E-03 0.  1.
         12    1    3    3    0    0 -0.49799805082E+00 -0.43954129840E+01  0.12932618377E+02  0.13668221371E+02  0.00000000000E+00 0. -1.
</event>
<event>
 7    1  0.3884463E-009  0.4778727E+02  0.7816164E-02  0.1312668E+00
        -11   -1    0    0    0    0  0.00000000000E+00  0.00000000000E+00  0.45593999997E+02  0.45594000000E+02  0.51100000000E-03 0.  1.
         11   -1    0    0    0    0 -0.00000000000E+00 -0.00000000000E+00 -0.45593999997E+02  0.45594000000E+02  0.51100000000E-03 0. -1.
    9900012    2    1    2    0    0  0.17614554128E+02  0.37694096500E+02 -0.12349319303E+02  0.47787272871E+02  0.20000008328E+02 0.  0.
        -12    1    1    2    0    0 -0.17614554128E+02 -0.37694096500E+02  0.12349319303E+02  0.43400727129E+02  0.00000000000E+00 0.  1.
         11    1    3    3    0    0  0.10276640112E-01  0.12881847113E+01  0.21089935981E+01  0.24713113357E+01  0.51100000000E-03 0. -1.
        -11    1    3    3    0    0  0.35784650356E+01  0.23173251631E+00 -0.34742838997E+01  0.49929711442E+01  0.51100000000E-03 0.  1.
         12    1    3    3    0    0  0.14025812452E+02  0.36174179273E+02 -0.10984029001E+02  0.40322990391E+02  0.00000000000E+00 0. -1.
</event>
<event>
 7    1  0.3884463E-009  0.4778727E+02  0.7816164E-02  0.1312668E+00
        -11   -1    0    0    0    0  0.00000000000E+00  0.00000000000E+00  0.45593999997E+02  0.45594000000E+02  0.51100000000E-03 0.  1.
         11   -1    0    0    0    0 -0.00000000000E+00 -0.00000000000E+00 -0.45593999997E+02  0.45594000000E+02  0.51100000000E-03 0. -1.
    9900012    2    1    2    0    0  0.32603103721E+02  0.65466594674E+01 -0.27889108153E+02  0.47787268715E+02  0.19999989381E+02 0.  0.
        -12    1    1    2    0    0 -0.32603103721E+02 -0.65466594674E+01  0.27889108153E+02  0.43400731285E+02  0.00000000000E+00 0.  1.
         11    1    3    3    0    0  0.26402141881E+02  0.65384936762E+01 -0.29569830574E+02  0.40177106365E+02  0.51100000000E-03 0. -1.
        -11    1    3    3    0    0  0.17197737287E+01  0.87236045171E+00 -0.11447457585E+01  0.22425604893E+01  0.51100000000E-03 0.  1.
        -12    1    3    3    0    0  0.44811881119E+01 -0.86419466045E+00  0.28254681791E+01  0.53676018608E+01  0.00000000000E+00 0.  1.
</event>
<event>
 7    1  0.3884463E-009  0.4778727E+02  0.7816164E-02  0.1312668E+00
        -11   -1    0    0    0    0  0.00000000000E+00  0.00000000000E+00  0.45593999997E+02  0.45594000000E+02  0.51100000000E-03 0. -1.
         11   -1    0    0    0    0 -0.00000000000E+00 -0.00000000000E+00 -0.45593999997E+02  0.45594000000E+02  0.51100000000E-03 0.  1.
    9900012    2    1    2    0    0  0.15125064592E+02 -0.13575177108E+02  0.38348013319E+02  0.47787272611E+02  0.20000007142E+02 0.  0.
        -12    1    1    2    0    0 -0.15125064592E+02  0.13575177108E+02 -0.38348013319E+02  0.43400727389E+02  0.00000000000E+00 0.  1.
         11    1    3    3    0    0  0.76746787244E+01 -0.79641308774E+00  0.12617879429E+02  0.14790059123E+02  0.51100000000E-03 0. -1.
        -11    1    3    3    0    0  0.61552940396E+01 -0.10887190354E+02  0.27427737685E+02  0.30144640540E+02  0.51100000000E-03 0.  1.
        -12    1    3    3    0    0  0.12950918285E+01 -0.18915736660E+01 -0.16976037948E+01  0.28525729477E+01  0.00000000000E+00 0.  1.
</event>
<event>
 7    1  0.3884463E-009  0.4778728E+02  0.7816164E-02  0.1312668E+00
        -11   -1    0    0    0    0  0.00000000000E+00  0.00000000000E+00  0.45593999997E+02  0.45594000000E+02  0.51100000000E-03 0.  1.
         11   -1    0    0    0    0 -0.00000000000E+00 -0.00000000000E+00 -0.45593999997E+02  0.45594000000E+02  0.51100000000E-03 0. -1.
    9900012    2    1    2    0    0  0.20771494392E+02 -0.10013840917E+02 -0.36768065654E+02  0.47787278334E+02  0.20000033235E+02 0.  0.
        -12    1    1    2    0    0 -0.20771494392E+02  0.10013840917E+02  0.36768065654E+02  0.43400721666E+02  0.00000000000E+00 0.  1.
         11    1    3    3    0    0 -0.24865729508E+01  0.18797806994E+01 -0.14289425176E+01  0.34290665636E+01  0.51100000000E-03 0. -1.
        -11    1    3    3    0    0 -0.34086838986E+00 -0.15031954610E+00 -0.10101234751E+01  0.10766322126E+01  0.51100000000E-03 0.  1.
         12    1    3    3    0    0  0.23598935733E+02 -0.11743302071E+02 -0.34328999661E+02  0.43281579558E+02  0.00000000000E+00 0. -1.
</event>
<event>
 7    1  0.3884463E-009  0.4778725E+02  0.7816164E-02  0.1312668E+00
        -11   -1    0    0    0    0  0.00000000000E+00  0.00000000000E+00  0.45593999997E+02  0.45594000000E+02  0.51100000000E-03 0.  1.
         11   -1    0    0    0    0 -0.00000000000E+00 -0.00000000000E+00 -0.45593999997E+02  0.45594000000E+02  0.51100000000E-03 0. -1.
    9900012    2    1    2    0    0  0.40961217153E+02 -0.87255462154E+01  0.11387231822E+02  0.47787245214E+02  0.19999882227E+02 0.  0.
        -12    1    1    2    0    0 -0.40961217153E+02  0.87255462154E+01 -0.11387231822E+02  0.43400754786E+02  0.00000000000E+00 0.  1.
         11    1    3    3    0    0  0.18683017378E+01 -0.39462648741E+01  0.13707834975E+01  0.45763091568E+01  0.51100000000E-03 0. -1.
        -11    1    3    3    0    0  0.39366887010E+01 -0.49852250330E+01 -0.86001710228E+00  0.64101182700E+01  0.51100000000E-03 0.  1.
         12    1    3    3    0    0  0.35156226715E+02  0.20594369171E+00  0.10876465426E+02  0.36800817787E+02  0.00000000000E+00 0. -1.
</event>
<event>
 7    1  0.3884463E-009  0.4778727E+02  0.7816164E-02  0.1312668E+00
        -11   -1    0    0    0    0  0.00000000000E+00  0.00000000000E+00  0.45593999997E+02  0.45594000000E+02  0.51100000000E-03 0. -1.
         11   -1    0    0    0    0 -0.00000000000E+00 -0.00000000000E+00 -0.45593999997E+02  0.45594000000E+02  0.51100000000E-03 0.  1.
    9900012    2    1    2    0    0  0.43122933882E+02  0.42823796873E+01  0.23868537654E+01  0.47787271052E+02  0.20000000034E+02 0.  0.
        -12    1    1    2    0    0 -0.43122933882E+02 -0.42823796873E+01 -0.23868537654E+01  0.43400728948E+02  0.00000000000E+00 0.  1.
         11    1    3    3    0    0  0.14220782339E+02 -0.38144309459E+01  0.25700650088E+01  0.14946095416E+02  0.51100000000E-03 0. -1.
        -11    1    3    3    0    0  0.11113439585E+02 -0.18124470488E+00 -0.56566305886E+01  0.12471521917E+02  0.51100000000E-03 0.  1.
         12    1    3    3    0    0  0.17788711957E+02  0.82780553381E+01  0.54734193453E+01  0.20369653719E+02  0.00000000000E+00 0. -1.
</event>
<event>
 7    1  0.3884463E-009  0.4778727E+02  0.7816164E-02  0.1312668E+00
        -11   -1    0    0    0    0  0.00000000000E+00  0.00000000000E+00  0.45593999997E+02  0.45594000000E+02  0.51100000000E-03 0. -1.
         11   -1    0    0    0    0 -0.00000000000E+00 -0.00000000000E+00 -0.45593999997E+02  0.45594000000E+02  0.51100000000E-03 0.  1.
    9900012    2    1    2    0    0 -0.36806187934E+02  0.19370789568E+02  0.12397589701E+02  0.47787272021E+02  0.20000004452E+02 0.  0.
        -12    1    1    2    0    0  0.36806187934E+02 -0.19370789568E+02 -0.12397589701E+02  0.43400727979E+02  0.00000000000E+00 0.  1.
         11    1    3    3    0    0 -0.64742786345E+01  0.64363985880E+01  0.84610409398E+01  0.12447197462E+02  0.51100000000E-03 0. -1.
        -11    1    3    3    0    0 -0.10057962409E+02  0.10977186121E+01  0.60170829676E+01  0.11771698334E+02  0.51100000000E-03 0.  1.
         12    1    3    3    0    0 -0.20273946891E+02  0.11836672367E+02 -0.20805342061E+01  0.23568376224E+02  0.00000000000E+00 0. -1.
</event>
<event>
 7    1  0.3884463E-009  0.4778727E+02  0.7816164E-02  0.1312668E+00
        -11   -1    0    0    0    0  0.00000000000E+00  0.00000000000E+00  0.45593999997E+02  0.45594000000E+02  0.51100000000E-03 0. -1.
         11   -1    0    0    0    0 -0.00000000000E+00 -0.00000000000E+00 -0.45593999997E+02  0.45594000000E+02  0.51100000000E-03 0.  1.
    9900012    2    1    2    0    0 -0.31426537829E+02  0.26285140340E+02 -0.14320875780E+02  0.47787269986E+02  0.19999995176E+02 0.  0.
        -12    1    1    2    0    0  0.31426537829E+02 -0.26285140340E+02  0.14320875780E+02  0.43400730014E+02  0.00000000000E+00 0.  1.
         11    1    3    3    0    0 -0.18001403071E+02  0.19738938197E+02 -0.15969254811E+02  0.31123838021E+02  0.51100000000E-03 0. -1.
        -11    1    3    3    0    0  0.76945846891E+00  0.10435709583E+01  0.52288828866E+00  0.13980411668E+01  0.51100000000E-03 0.  1.
         12    1    3    3    0    0 -0.14194593227E+02  0.55026311845E+01  0.11254907425E+01  0.15265390799E+02  0.00000000000E+00 0. -1.
</event>
<event>
 7    1  0.3884463E-009  0.4778727E+02  0.7816164E-02  0.1312668E+00
        -11   -1    0    0    0    0  0.00000000000E+00  0.00000000000E+00  0.45593999997E+02  0.45594000000E+02  0.51100000000E-03 0.  1.
         11   -1    0    0    0    0 -0.00000000000E+00 -0.00000000000E+00 -0.45593999997E+02  0.45594000000E+02  0.51100000000E-03 0. -1.
    9900012    2    1    2    0    0 -0.36917066556E+02  0.10983006665E+02 -0.20003173281E+02  0.47787272128E+02  0.20000004940E+02 0.  0.
        -12    1    1    2    0    0  0.36917066556E+02 -0.10983006665E+02  0.20003173281E+02  0.43400727872E+02  0.00000000000E+00 0.  1.
         11    1    3    3    0    0 -0.18640572892E+02  0.54425105293E+01 -0.84562613381E+01  0.21180184954E+02  0.51100000000E-03 0. -1.
        -11    1    3    3    0    0 -0.13554000362E+02  0.10224861917E+02 -0.62072294999E+01  0.18077290321E+02  0.51100000000E-03 0.  1.
        -12    1    3    3    0    0 -0.47224933015E+01 -0.46843657809E+01 -0.53396824430E+01  0.85297968524E+01  0.00000000000E+00 0.  1.
</event>
<event>
 7    1  0.3884463E-009  0.4778728E+02  0.7816164E-02  0.1312668E+00
        -11   -1    0    0    0    0  0.00000000000E+00  0.00000000000E+00  0.45593999997E+02  0.45594000000E+02  0.51100000000E-03 0.  1.
         11   -1    0    0    0    0 -0.00000000000E+00 -0.00000000000E+00 -0.45593999997E+02  0.45594000000E+02  0.51100000000E-03 0. -1.
    9900012    2    1    2    0    0  0.13430192110E+02  0.34231120338E+02 -0.23053905384E+02  0.47787283265E+02  0.20000055717E+02 0.  0.
        -12    1    1    2    0    0 -0.13430192110E+02 -0.34231120338E+02  0.23053905384E+02  0.43400716735E+02  0.00000000000E+00 0.  1.
         11    1    3    3    0    0  0.14285734378E+01 -0.66492198462E+00 -0.36356590458E+01  0.39624437247E+01  0.51100000000E-03 0. -1.
        -11    1    3    3    0    0  0.10121248946E+02  0.18840915939E+02 -0.17326833214E+02  0.27525241927E+02  0.51100000000E-03 0.  1.
        -12    1    3    3    0    0  0.18803697262E+01  0.16055126384E+02 -0.20914131243E+01  0.16299597613E+02  0.00000000000E+00 0.  1.
</event>
<event>
 7    1  0.3884463E-009  0.4778728E+02  0.7816164E-02  0.1312668E+00
        -11   -1    0    0    0    0  0.00000000000E+00  0.00000000000E+00  0.45593999997E+02  0.45594000000E+02  0.51100000000E-03 0.  1.
         11   -1    0    0    0    0 -0.00000000000E+00 -0.00000000000E+00 -0.45593999997E+02  0.45594000000E+02  0.51100000000E-03 0. -1.
    9900012    2    1    2    0    0  0.34727462442E+02  0.98988799790E+01 -0.24075667977E+02  0.47787282713E+02  0.20000053202E+02 0.  0.
        -12    1    1    2    0    0 -0.34727462442E+02 -0.98988799790E+01  0.24075667977E+02  0.43400717287E+02  0.00000000000E+00 0.  1.
         11    1    3    3    0    0  0.38342785679E+01 -0.10135248614E+01 -0.47633149754E+01  0.61982331835E+01  0.51100000000E-03 0. -1.
        -11    1    3    3    0    0  0.21695173078E+02  0.14724533258E+02 -0.17350455631E+02  0.31440908469E+02  0.51100000000E-03 0.  1.
        -12    1    3    3    0    0  0.91980107965E+01 -0.38121284175E+01 -0.19618973705E+01  0.10148141060E+02  0.00000000000E+00 0.  1.
</event>
<event>
 7    1  0.3884463E-009  0.4778726E+02  0.7816164E-02  0.1312668E+00
        -11   -1    0    0    0    0  0.00000000000E+00  0.00000000000E+00  0.45593999997E+02  0.45594000000E+02  0.51100000000E-03 0.  1.
         11   -1    0    0    0    0 -0.00000000000E+00 -0.00000000000E+00 -0.45593999997E+02  0.45594000000E+02  0.51100000000E-03 0. -1.
    9900012    2    1    2    0    0  0.62742683178E+01  0.58638646249E+01 -0.42542596667E+02  0.47787264034E+02  0.19999968035E+02 0.  0.
        -12    1    1    2    0    0 -0.62742683178E+01 -0.58638646249E+01  0.42542596667E+02  0.43400735966E+02  0.00000000000E+00 0.  1.
         11    1    3    3    0    0  0.11147005203E+02  0.63803942216E+01 -0.27196727814E+02  0.30077020456E+02  0.51100000000E-03 0. -1.
        -11    1    3    3    0    0 -0.22509596129E+01  0.31299483465E+01 -0.10063492432E+02  0.10776700609E+02  0.51100000000E-03 0.  1.
        -12    1    3    3    0    0 -0.26217772721E+01 -0.36464779432E+01 -0.52823764205E+01  0.69335429690E+01  0.00000000000E+00 0.  1.
</event>
<event>
 7    1  0.3884463E-009  0.4778727E+02  0.7816164E-02  0.1312668E+00
        -11   -1    0    0    0    0  0.00000000000E+00  0.00000000000E+00  0.45593999997E+02  0.45594000000E+02  0.51100000000E-03 0.  1.
         11   -1    0    0    0    0 -0.00000000000E+00 -0.00000000000E+00 -0.45593999997E+02  0.45594000000E+02  0.51100000000E-03 0. -1.
    9900012    2    1    2    0    0  0.16159239823E+02  0.37418753192E+02  0.14911042573E+02  0.47787270597E+02  0.19999997961E+02 0.  0.
        -12    1    1    2    0    0 -0.16159239823E+02 -0.37418753192E+02 -0.14911042573E+02  0.43400729403E+02  0.00000000000E+00 0.  1.
         11    1    3    3    0    0 -0.19783460757E+00  0.99336905379E+01  0.86833040464E+01  0.13195344469E+02  0.51100000000E-03 0. -1.
        -11    1    3    3    0    0  0.48882235922E+01  0.62780105913E+01  0.68133432314E+01  0.10475198954E+02  0.51100000000E-03 0.  1.
         12    1    3    3    0    0  0.11468850838E+02  0.21207052063E+02 -0.58560470445E+00  0.24116727174E+02  0.00000000000E+00 0. -1.
</event>
<event>
 7    1  0.3884463E-009  0.4778727E+02  0.7816164E-02  0.1312668E+00
        -11   -1    0    0    0    0  0.00000000000E+00  0.00000000000E+00  0.45593999997E+02  0.45594000000E+02  0.51100000000E-03 0.  1.
         11   -1    0    0    0    0 -0.00000000000E+00 -0.00000000000E+00 -0.45593999997E+02  0.45594000000E+02  0.51100000000E-03 0. -1.
    9900012    2    1    2    0    0 -0.23586266209E+02 -0.35183856020E+02 -0.94555778892E+01  0.47787266926E+02  0.19999981224E+02 0.  0.
        -12    1    1    2    0    0  0.23586266209E+02  0.35183856020E+02  0.94555778892E+01  0.43400733074E+02  0.00000000000E+00 0.  1.
         11    1    3    3    0    0 -0.31345276363E+01 -0.32246284276E+01 -0.46098774620E+01  0.64400669619E+01  0.51100000000E-03 0. -1.
        -11    1    3    3    0    0 -0.31847909474E+00 -0.16246360442E+01 -0.46530337245E+01  0.49387846999E+01  0.51100000000E-03 0.  1.
         12    1    3    3    0    0 -0.20133259478E+02 -0.30334591548E+02 -0.19266670269E+00  0.36408415264E+02  0.00000000000E+00 0. -1.
</event>
<event>
 7    1  0.3884463E-009  0.4778727E+02  0.7816164E-02  0.1312668E+00
        -11   -1    0    0    0    0  0.00000000000E+00  0.00000000000E+00  0.45593999997E+02  0.45594000000E+02  0.51100000000E-03 0. -1.
         11   -1    0    0    0    0 -0.00000000000E+00 -0.00000000000E+00 -0.45593999997E+02  0.45594000000E+02  0.51100000000E-03 0.  1.
    9900012    2    1    2    0    0  0.37317803904E+02 -0.17481596964E+02  0.13616106378E+02  0.47787273352E+02  0.20000010522E+02 0.  0.
        -12    1    1    2    0    0 -0.37317803904E+02  0.17481596964E+02 -0.13616106378E+02  0.43400726648E+02  0.00000000000E+00 0.  1.
         11    1    3    3    0    0  0.14735756669E+01  0.92167826630E+00 -0.17932257860E+00  0.17473044729E+01  0.51100000000E-03 0. -1.
        -11    1    3    3    0    0  0.23247911560E+01  0.23777716463E+01 -0.16157974177E+01  0.36971953528E+01  0.51100000000E-03 0.  1.
         12    1    3    3    0    0  0.33519437081E+02 -0.20781046877E+02  0.15411226375E+02  0.42342773526E+02  0.00000000000E+00 0. -1.
</event>
<event>
 7    1  0.3884463E-009  0.4778727E+02  0.7816164E-02  0.1312668E+00
        -11   -1    0    0    0    0  0.00000000000E+00  0.00000000000E+00  0.45593999997E+02  0.45594000000E+02  0.51100000000E-03 0.  1.
         11   -1    0    0    0    0 -0.00000000000E+00 -0.00000000000E+00 -0.45593999997E+02  0.45594000000E+02  0.51100000000E-03 0. -1.
    9900012    2    1    2    0    0 -0.10573583517E+02 -0.22642587213E+02 -0.35484299687E+02  0.47787274795E+02  0.20000017098E+02 0.  0.
        -12    1    1    2    0    0  0.10573583517E+02  0.22642587213E+02  0.35484299687E+02  0.43400725205E+02  0.00000000000E+00 0.  1.
         11    1    3    3    0    0  0.26034120142E+01 -0.98217814330E+01 -0.13860964330E+02  0.17186374750E+02  0.51100000000E-03 0. -1.
        -11    1    3    3    0    0 -0.64863769841E+00 -0.55659542452E+01 -0.14818915225E+01  0.57962557112E+01  0.51100000000E-03 0.  1.
        -12    1    3    3    0    0 -0.12528357832E+02 -0.72548515351E+01 -0.20141443834E+02  0.24804644333E+02  0.00000000000E+00 0.  1.
</event>
<event>
 7    1  0.3884463E-009  0.4778727E+02  0.7816164E-02  0.1312668E+00
        -11   -1    0    0    0    0  0.00000000000E+00  0.00000000000E+00  0.45593999997E+02  0.45594000000E+02  0.51100000000E-03 0.  1.
         11   -1    0    0    0    0 -0.00000000000E+00 -0.00000000000E+00 -0.45593999997E+02  0.45594000000E+02  0.51100000000E-03 0. -1.
    9900012    2    1    2    0    0 -0.32198144653E+02 -0.16346942093E+02 -0.24076547871E+02  0.47787271985E+02  0.20000004287E+02 0.  0.
        -12    1    1    2    0    0  0.32198144653E+02  0.16346942093E+02  0.24076547871E+02  0.43400728015E+02  0.00000000000E+00 0.  1.
         11    1    3    3    0    0 -0.21355968997E+02 -0.24698573530E+01 -0.75225976301E+01  0.22776458955E+02  0.51100000000E-03 0. -1.
        -11    1    3    3    0    0 -0.10805780785E+02 -0.10852648173E+02 -0.11622556036E+02  0.19225729630E+02  0.51100000000E-03 0.  1.
        -12    1    3    3    0    0 -0.36394870160E-01 -0.30244365678E+01 -0.49313942046E+01  0.57850833996E+01  0.00000000000E+00 0.  1.
</event>
<event>
 7    1  0.3884463E-009  0.4778727E+02  0.7816164E-02  0.1312668E+00
        -11   -1    0    0    0    0  0.00000000000E+00  0.00000000000E+00  0.45593999997E+02  0.45594000000E+02  0.51100000000E-03 0. -1.
         11   -1    0    0    0    0 -0.00000000000E+00 -0.00000000000E+00 -0.45593999997E+02  0.45594000000E+02  0.51100000000E-03 0.  1.
    9900012    2    1    2    0    0  0.38028823402E+01  0.23366864971E+02  0.36375147059E+02  0.47787267100E+02  0.19999982017E+02 0.  0.
        -12    1    1    2    0    0 -0.38028823402E+01 -0.23366864971E+02 -0.36375147059E+02  0.43400732900E+02  0.00000000000E+00 0.  1.
         11    1    3    3    0    0  0.34457969300E+01  0.21741555334E+02  0.29981784064E+02  0.37195108828E+02  0.51100000000E-03 0. -1.
        -11    1    3    3    0    0 -0.25622350843E+01  0.26191832633E+01  0.65490714539E+01  0.75043658468E+01  0.51100000000E-03 0.  1.
        -12    1    3    3    0    0  0.29193204945E+01 -0.99387362672E+00 -0.15570845875E+00  0.30877924250E+01  0.00000000000E+00 0.  1.
</event>
<event>
 7    1  0.3884463E-009  0.4778727E+02  0.7816164E-02  0.1312668E+00
        -11   -1    0    0    0    0  0.00000000000E+00  0.00000000000E+00  0.45593999997E+02  0.45594000000E+02  0.51100000000E-03 0.  1.
         11   -1    0    0    0    0 -0.00000000000E+00 -0.00000000000E+00 -0.45593999997E+02  0.45594000000E+02  0.51100000000E-03 0. -1.
    9900012    2    1    2    0    0  0.17561618216E+02  0.37056750372E+02 -0.14213035989E+02  0.47787267581E+02  0.19999984209E+02 0.  0.
        -12    1    1    2    0    0 -0.17561618216E+02 -0.37056750372E+02  0.14213035989E+02  0.43400732419E+02  0.00000000000E+00 0.  1.
         11    1    3    3    0    0  0.76297648323E+01  0.95806379197E+01 -0.13533025098E+01  0.12322068101E+02  0.51100000000E-03 0. -1.
        -11    1    3    3    0    0  0.64631357198E+01  0.28474911337E+02 -0.12729210142E+02  0.31853186498E+02  0.51100000000E-03 0.  1.
        -12    1    3    3    0    0  0.34687176634E+01 -0.99879888441E+00 -0.13052333677E+00  0.36120129819E+01  0.00000000000E+00 0.  1.
</event>
<event>
 7    1  0.3884463E-009  0.4778727E+02  0.7816164E-02  0.1312668E+00
        -11   -1    0    0    0    0  0.00000000000E+00  0.00000000000E+00  0.45593999997E+02  0.45594000000E+02  0.51100000000E-03 0.  1.
         11   -1    0    0    0    0 -0.00000000000E+00 -0.00000000000E+00 -0.45593999997E+02  0.45594000000E+02  0.51100000000E-03 0. -1.
    9900012    2    1    2    0    0 -0.91292306719E+01  0.32918584079E+02 -0.26770263379E+02  0.47787273833E+02  0.20000012713E+02 0.  0.
        -12    1    1    2    0    0  0.91292306719E+01 -0.32918584079E+02  0.26770263379E+02  0.43400726167E+02  0.00000000000E+00 0.  1.
         11    1    3    3    0    0 -0.60942278324E+00  0.70439051553E+01 -0.29269691923E+01  0.76521333548E+01  0.51100000000E-03 0. -1.
        -11    1    3    3    0    0 -0.25219225989E+01  0.18725797118E+02 -0.57053511338E+01  0.19737441656E+02  0.51100000000E-03 0.  1.
        -12    1    3    3    0    0 -0.59978852898E+01  0.71488818060E+01 -0.18137943053E+02  0.20397698822E+02  0.00000000000E+00 0.  1.
</event>
<event>
 7    1  0.3884463E-009  0.4778727E+02  0.7816164E-02  0.1312668E+00
        -11   -1    0    0    0    0  0.00000000000E+00  0.00000000000E+00  0.45593999997E+02  0.45594000000E+02  0.51100000000E-03 0. -1.
         11   -1    0    0    0    0 -0.00000000000E+00 -0.00000000000E+00 -0.45593999997E+02  0.45594000000E+02  0.51100000000E-03 0.  1.
    9900012    2    1    2    0    0  0.32826495151E+01  0.41130253276E+02  0.13459178497E+02  0.47787274105E+02  0.20000013954E+02 0.  0.
        -12    1    1    2    0    0 -0.32826495151E+01 -0.41130253276E+02 -0.13459178497E+02  0.43400725895E+02  0.00000000000E+00 0.  1.
         11    1    3    3    0    0 -0.27110492459E+01  0.17961834899E+02  0.49617193940E+01  0.18830718535E+02  0.51100000000E-03 0. -1.
        -11    1    3    3    0    0  0.65031377689E+01  0.24712503383E+02  0.92346880403E+01  0.27171273208E+02  0.51100000000E-03 0.  1.
        -12    1    3    3    0    0 -0.50943900794E+00 -0.15440850050E+01 -0.73722893774E+00  0.17852823620E+01  0.00000000000E+00 0.  1.
</event>
<event>
 7    1  0.3884463E-009  0.4778728E+02  0.7816164E-02  0.1312668E+00
        -11   -1    0    0    0    0  0.00000000000E+00  0.00000000000E+00  0.45593999997E+02  0.45594000000E+02  0.51100000000E-03 0.  1.
         11   -1    0    0    0    0 -0.00000000000E+00 -0.00000000000E+00 -0.45593999997E+02  0.45594000000E+02  0.51100000000E-03 0. -1.
    9900012    2    1    2    0    0 -0.42778172781E+02  0.72750498328E+01  0.85107943547E+00  0.47787277048E+02  0.20000027371E+02 0.  0.
        -12    1    1    2    0    0  0.42778172781E+02 -0.72750498328E+01 -0.85107943547E+00  0.43400722952E+02  0.00000000000E+00 0.  1.
         11    1    3    3    0    0 -0.24950371630E+02 -0.79596607327E-01 -0.45542499324E+01  0.25362739852E+02  0.51100000000E-03 0. -1.
        -11    1    3    3    0    0 -0.73255364456E+01 -0.19118746344E+01  0.51122565419E+00  0.75881552939E+01  0.51100000000E-03 0.  1.
        -12    1    3    3    0    0 -0.10502264705E+02  0.92665210745E+01  0.48941037136E+01  0.14836381901E+02  0.00000000000E+00 0.  1.
</event>
<event>
 7    1  0.3884463E-009  0.4778727E+02  0.7816164E-02  0.1312668E+00
        -11   -1    0    0    0    0  0.00000000000E+00  0.00000000000E+00  0.45593999997E+02  0.45594000000E+02  0.51100000000E-03 0.  1.
         11   -1    0    0    0    0 -0.00000000000E+00 -0.00000000000E+00 -0.45593999997E+02  0.45594000000E+02  0.51100000000E-03 0. -1.
    9900012    2    1    2    0    0 -0.10987942313E+01 -0.42910208309E+02 -0.64132638715E+01  0.47787270981E+02  0.19999999710E+02 0.  0.
        -12    1    1    2    0    0  0.10987942313E+01  0.42910208309E+02  0.64132638715E+01  0.43400729019E+02  0.00000000000E+00 0.  1.
         11    1    3    3    0    0  0.30726811353E+01 -0.16900386186E+02 -0.11499299858E+01  0.17215886902E+02  0.51100000000E-03 0. -1.
        -11    1    3    3    0    0  0.91101745694E+00 -0.76355323197E+01 -0.82461205259E+01  0.11275185613E+02  0.51100000000E-03 0.  1.
         12    1    3    3    0    0 -0.50824928235E+01 -0.18374289803E+02  0.29827866402E+01  0.19296198466E+02  0.00000000000E+00 0. -1.
</event>
<event>
 7    1  0.3884463E-009  0.4778727E+02  0.7816164E-02  0.1312668E+00
        -11   -1    0    0    0    0  0.00000000000E+00  0.00000000000E+00  0.45593999997E+02  0.45594000000E+02  0.51100000000E-03 0.  1.
         11   -1    0    0    0    0 -0.00000000000E+00 -0.00000000000E+00 -0.45593999997E+02  0.45594000000E+02  0.51100000000E-03 0. -1.
    9900012    2    1    2    0    0 -0.16052411087E+02 -0.28836843064E+02 -0.28184745258E+02  0.47787270918E+02  0.19999999424E+02 0.  0.
        -12    1    1    2    0    0  0.16052411087E+02  0.28836843064E+02  0.28184745258E+02  0.43400729082E+02  0.00000000000E+00 0.  1.
         11    1    3    3    0    0 -0.19620126982E+01 -0.13764329579E+02 -0.94572703245E+01  0.16815059465E+02  0.51100000000E-03 0. -1.
        -11    1    3    3    0    0  0.24381870077E+01 -0.26223968124E+00 -0.22833750229E+01  0.33507204138E+01  0.51100000000E-03 0.  1.
         12    1    3    3    0    0 -0.16528585396E+02 -0.14810273804E+02 -0.16444099910E+02  0.27621491039E+02  0.00000000000E+00 0. -1.
</event>
<event>
 7    1  0.3884463E-009  0.4778726E+02  0.7816164E-02  0.1312668E+00
        -11   -1    0    0    0    0  0.00000000000E+00  0.00000000000E+00  0.45593999997E+02  0.45594000000E+02  0.51100000000E-03 0.  1.
         11   -1    0    0    0    0 -0.00000000000E+00 -0.00000000000E+00 -0.45593999997E+02  0.45594000000E+02  0.51100000000E-03 0. -1.
    9900012    2    1    2    0    0  0.18301962250E+02  0.23756489699E+02 -0.31373428494E+02  0.47787255300E+02  0.19999928214E+02 0.  0.
        -12    1    1    2    0    0 -0.18301962250E+02 -0.23756489699E+02  0.31373428494E+02  0.43400744700E+02  0.00000000000E+00 0.  1.
         11    1    3    3    0    0  0.69219013183E+01  0.45904737738E+01 -0.57677779442E+01  0.10111994363E+02  0.51100000000E-03 0. -1.
        -11    1    3    3    0    0  0.14175423648E+02  0.11206048059E+02 -0.12085533881E+02  0.21738865613E+02  0.51100000000E-03 0.  1.
         12    1    3    3    0    0 -0.27953627164E+01  0.79599678671E+01 -0.13520116670E+02  0.15936395324E+02  0.00000000000E+00 0. -1.
</event>
<event>
 7    1  0.4240303E-009  0.4778727E+02  0.7816164E-02  0.1312668E+00
        -11   -1    0    0    0    0  0.00000000000E+00  0.00000000000E+00  0.45593999997E+02  0.45594000000E+02  0.51100000000E-03 0. -1.
         11   -1    0    0    0    0 -0.00000000000E+00 -0.00000000000E+00 -0.45593999997E+02  0.45594000000E+02  0.51100000000E-03 0.  1.
    9900012    2    1    2    0    0  0.62932627712E+01 -0.13114063966E+02  0.40890577259E+02  0.47787272603E+02  0.20000007105E+02 0.  0.
        -12    1    1    2    0    0 -0.62932627712E+01  0.13114063966E+02 -0.40890577259E+02  0.43400727397E+02  0.00000000000E+00 0.  1.
         11    1    3    3    0    0  0.17622012591E+01 -0.48920366015E+01  0.17630573692E+02  0.18381362963E+02  0.51100000000E-03 0. -1.
        -11    1    3    3    0    0 -0.55455010615E+01 -0.23985195572E+01  0.54886835831E+01  0.81627890960E+01  0.51100000000E-03 0.  1.
        -12    1    3    3    0    0  0.10076562574E+02 -0.58235078072E+01  0.17771319984E+02  0.21243120544E+02  0.00000000000E+00 0.  1.
</event>
<event>
 7    1  0.3884463E-009  0.4778727E+02  0.7816164E-02  0.1312668E+00
        -11   -1    0    0    0    0  0.00000000000E+00  0.00000000000E+00  0.45593999997E+02  0.45594000000E+02  0.51100000000E-03 0. -1.
         11   -1    0    0    0    0 -0.00000000000E+00 -0.00000000000E+00 -0.45593999997E+02  0.45594000000E+02  0.51100000000E-03 0.  1.
    9900012    2    1    2    0    0  0.25904312428E+02  0.85507749982E+01  0.33756099376E+02  0.47787269585E+02  0.19999993346E+02 0.  0.
        -12    1    1    2    0    0 -0.25904312428E+02 -0.85507749982E+01 -0.33756099376E+02  0.43400730415E+02  0.00000000000E+00 0.  1.
         11    1    3    3    0    0 -0.73621688635E+00 -0.10505843914E+01  0.14046427193E+01  0.19023049958E+01  0.51100000000E-03 0. -1.
        -11    1    3    3    0    0  0.88962148762E+01 -0.37467187344E+01  0.57558843274E+01  0.11238805321E+02  0.51100000000E-03 0.  1.
         12    1    3    3    0    0  0.17744314439E+02  0.13348078124E+02  0.26595572329E+02  0.34646159268E+02  0.00000000000E+00 0. -1.
</event>
<event>
 7    1  0.3884463E-009  0.4778727E+02  0.7816164E-02  0.1312668E+00
        -11   -1    0    0    0    0  0.00000000000E+00  0.00000000000E+00  0.45593999997E+02  0.45594000000E+02  0.51100000000E-03 0.  1.
         11   -1    0    0    0    0 -0.00000000000E+00 -0.00000000000E+00 -0.45593999997E+02  0.45594000000E+02  0.51100000000E-03 0. -1.
    9900012    2    1    2    0    0  0.68921443530E+01  0.42741321466E+02 -0.30498136595E+01  0.47787267543E+02  0.19999984034E+02 0.  0.
        -12    1    1    2    0    0 -0.68921443530E+01 -0.42741321466E+02  0.30498136595E+01  0.43400732457E+02  0.00000000000E+00 0.  1.
         11    1    3    3    0    0  0.23067647840E+01  0.93716367911E-01  0.14957006612E+01  0.27508302847E+01  0.51100000000E-03 0. -1.
        -11    1    3    3    0    0  0.19344837359E+00  0.19210973712E+01 -0.35740903058E+01  0.40622849676E+01  0.51100000000E-03 0.  1.
         12    1    3    3    0    0  0.43919311955E+01  0.40726507727E+02 -0.97142401488E+00  0.40974152290E+02  0.00000000000E+00 0. -1.
</event>
<event>
 7    1  0.3884463E-009  0.4778727E+02  0.7816164E-02  0.1312668E+00
        -11   -1    0    0    0    0  0.00000000000E+00  0.00000000000E+00  0.45593999997E+02  0.45594000000E+02  0.51100000000E-03 0.  1.
         11   -1    0    0    0    0 -0.00000000000E+00 -0.00000000000E+00 -0.45593999997E+02  0.45594000000E+02  0.51100000000E-03 0. -1.
    9900012    2    1    2    0    0  0.67534090263E+01  0.42399927461E+02 -0.63451385856E+01  0.47787272289E+02  0.20000005674E+02 0.  0.
        -12    1    1    2    0    0 -0.67534090263E+01 -0.42399927461E+02  0.63451385856E+01  0.43400727711E+02  0.00000000000E+00 0.  1.
         11    1    3    3    0    0 -0.89013182291E-01  0.64494502553E+01 -0.29584000820E+01  0.70961583443E+01  0.51100000000E-03 0.  1.
        -11    1    3    3    0    0  0.12265491628E+02  0.30435529929E+02 -0.28652698712E+01  0.32938936513E+02  0.51100000000E-03 0. -1.
        -12    1    3    3    0    0 -0.54230694193E+01  0.55149472771E+01 -0.52146863244E+00  0.77521774316E+01  0.00000000000E+00 0.  1.
</event>
<event>
 7    1  0.3884463E-009  0.4778727E+02  0.7816164E-02  0.1312668E+00
        -11   -1    0    0    0    0  0.00000000000E+00  0.00000000000E+00  0.45593999997E+02  0.45594000000E+02  0.51100000000E-03 0.  1.
         11   -1    0    0    0    0 -0.00000000000E+00 -0.00000000000E+00 -0.45593999997E+02  0.45594000000E+02  0.51100000000E-03 0. -1.
    9900012    2    1    2    0    0  0.32249025129E+02  0.87566424898E+01 -0.27693768856E+02  0.47787271401E+02  0.20000001627E+02 0.  0.
        -12    1    1    2    0    0 -0.32249025129E+02 -0.87566424898E+01  0.27693768856E+02  0.43400728599E+02  0.00000000000E+00 0.  1.
         11    1    3    3    0    0  0.10249402079E+02  0.53842941237E+01 -0.48642155750E+01  0.12557924176E+02  0.51100000000E-03 0. -1.
        -11    1    3    3    0    0  0.78878043717E+01  0.55206651403E+01 -0.17718690085E+01  0.97895210016E+01  0.51100000000E-03 0.  1.
         12    1    3    3    0    0  0.14111818678E+02 -0.21483167741E+01 -0.21057684273E+02  0.25439826223E+02  0.00000000000E+00 0. -1.
</event>
<event>
 7    1  0.3884463E-009  0.4778727E+02  0.7816164E-02  0.1312668E+00
        -11   -1    0    0    0    0  0.00000000000E+00  0.00000000000E+00  0.45593999997E+02  0.45594000000E+02  0.51100000000E-03 0. -1.
         11   -1    0    0    0    0 -0.00000000000E+00 -0.00000000000E+00 -0.45593999997E+02  0.45594000000E+02  0.51100000000E-03 0.  1.
    9900012    2    1    2    0    0 -0.32693135818E+02  0.13506257267E+02  0.25146839489E+02  0.47787266697E+02  0.19999980176E+02 0.  0.
        -12    1    1    2    0    0  0.32693135818E+02 -0.13506257267E+02 -0.25146839489E+02  0.43400733303E+02  0.00000000000E+00 0.  1.
         11    1    3    3    0    0 -0.25832093861E+01  0.26939845695E+01  0.66651554145E+01  0.76390326975E+01  0.51100000000E-03 0. -1.
        -11    1    3    3    0    0 -0.11592495307E+02 -0.22138230096E+01  0.11444419843E+02  0.16439638243E+02  0.51100000000E-03 0.  1.
         12    1    3    3    0    0 -0.18517431126E+02  0.13026095707E+02  0.70372642313E+01  0.23708595756E+02  0.00000000000E+00 0. -1.
</event>
<event>
 7    1  0.3884463E-009  0.4778727E+02  0.7816164E-02  0.1312668E+00
        -11   -1    0    0    0    0  0.00000000000E+00  0.00000000000E+00  0.45593999997E+02  0.45594000000E+02  0.51100000000E-03 0.  1.
         11   -1    0    0    0    0 -0.00000000000E+00 -0.00000000000E+00 -0.45593999997E+02  0.45594000000E+02  0.51100000000E-03 0. -1.
    9900012    2    1    2    0    0 -0.21629955448E+00 -0.26233745956E+02 -0.34574082290E+02  0.47787269838E+02  0.19999994498E+02 0.  0.
        -12    1    1    2    0    0  0.21629955448E+00  0.26233745956E+02  0.34574082290E+02  0.43400730162E+02  0.00000000000E+00 0.  1.
         11    1    3    3    0    0  0.51030982501E+01 -0.54756785761E+01 -0.44890382295E+01  0.87278939101E+01  0.51100000000E-03 0. -1.
        -11    1    3    3    0    0  0.70858162536E+00 -0.43876461095E+01 -0.19232068730E+00  0.44486530332E+01  0.51100000000E-03 0.  1.
        -12    1    3    3    0    0 -0.60279794299E+01 -0.16370421270E+02 -0.29892723374E+02  0.34610722894E+02  0.00000000000E+00 0.  1.
</event>
<event>
 7    1  0.3884463E-009  0.4778728E+02  0.7816164E-02  0.1312668E+00
        -11   -1    0    0    0    0  0.00000000000E+00  0.00000000000E+00  0.45593999997E+02  0.45594000000E+02  0.51100000000E-03 0.  1.
         11   -1    0    0    0    0 -0.00000000000E+00 -0.00000000000E+00 -0.45593999997E+02  0.45594000000E+02  0.51100000000E-03 0. -1.
    9900012    2    1    2    0    0 -0.11309609243E+02  0.67270946775E+01 -0.41357728578E+02  0.47787276767E+02  0.20000026092E+02 0.  0.
        -12    1    1    2    0    0  0.11309609243E+02 -0.67270946775E+01  0.41357728578E+02  0.43400723233E+02  0.00000000000E+00 0.  1.
         11    1    3    3    0    0  0.12847190519E+01  0.59229356779E+01 -0.12747262556E+02  0.14114686430E+02  0.51100000000E-03 0. -1.
        -11    1    3    3    0    0 -0.69208505547E+00  0.49962105390E+01 -0.97946787479E+01  0.11017115480E+02  0.51100000000E-03 0.  1.
        -12    1    3    3    0    0 -0.11902243239E+02 -0.41920515394E+01 -0.18815787274E+02  0.22655474856E+02  0.00000000000E+00 0.  1.
</event>
<event>
 7    1  0.3884463E-009  0.4778727E+02  0.7816164E-02  0.1312668E+00
        -11   -1    0    0    0    0  0.00000000000E+00  0.00000000000E+00  0.45593999997E+02  0.45594000000E+02  0.51100000000E-03 0.  1.
         11   -1    0    0    0    0 -0.00000000000E+00 -0.00000000000E+00 -0.45593999997E+02  0.45594000000E+02  0.51100000000E-03 0. -1.
    9900012    2    1    2    0    0  0.10378389139E+02 -0.40603894632E+02  0.11279890433E+02  0.47787272488E+02  0.20000006583E+02 0.  0.
        -12    1    1    2    0    0 -0.10378389139E+02  0.40603894632E+02 -0.11279890433E+02  0.43400727512E+02  0.00000000000E+00 0.  1.
         11    1    3    3    0    0  0.63287140727E+01 -0.13073937482E+02  0.11807323476E+02  0.18718796730E+02  0.51100000000E-03 0. -1.
        -11    1    3    3    0    0 -0.15049871347E+01 -0.54327254147E+01 -0.25638527690E+01  0.61929664128E+01  0.51100000000E-03 0.  1.
        -12    1    3    3    0    0  0.55546622011E+01 -0.22097231735E+02  0.20364197257E+01  0.22875509345E+02  0.00000000000E+00 0.  1.
</event>
<event>
 7    1  0.3884463E-009  0.4778727E+02  0.7816164E-02  0.1312668E+00
        -11   -1    0    0    0    0  0.00000000000E+00  0.00000000000E+00  0.45593999997E+02  0.45594000000E+02  0.51100000000E-03 0.  1.
         11   -1    0    0    0    0 -0.00000000000E+00 -0.00000000000E+00 -0.45593999997E+02  0.45594000000E+02  0.51100000000E-03 0. -1.
    9900012    2    1    2    0    0  0.12900158093E+02  0.36247823629E+02 -0.20082447677E+02  0.47787268424E+02  0.19999988052E+02 0.  0.
        -12    1    1    2    0    0 -0.12900158093E+02 -0.36247823629E+02  0.20082447677E+02  0.43400731576E+02  0.00000000000E+00 0.  1.
         11    1    3    3    0    0  0.11955123481E+01  0.12905413374E+02 -0.11139463604E+02  0.17089955932E+02  0.51100000000E-03 0. -1.
        -11    1    3    3    0    0 -0.77649539558E+00  0.13076647819E+02 -0.52998036974E+01  0.14131156455E+02  0.51100000000E-03 0.  1.
        -12    1    3    3    0    0  0.12481141141E+02  0.10265762436E+02 -0.36431803753E+01  0.16566156036E+02  0.00000000000E+00 0.  1.
</event>
<event>
 7    1  0.3884463E-009  0.4778727E+02  0.7816164E-02  0.1312668E+00
        -11   -1    0    0    0    0  0.00000000000E+00  0.00000000000E+00  0.45593999997E+02  0.45594000000E+02  0.51100000000E-03 0.  1.
         11   -1    0    0    0    0 -0.00000000000E+00 -0.00000000000E+00 -0.45593999997E+02  0.45594000000E+02  0.51100000000E-03 0. -1.
    9900012    2    1    2    0    0  0.28806627426E+02 -0.14248899024E+00 -0.32461997200E+02  0.47787270179E+02  0.19999996054E+02 0.  0.
        -12    1    1    2    0    0 -0.28806627426E+02  0.14248899024E+00  0.32461997200E+02  0.43400729821E+02  0.00000000000E+00 0.  1.
         11    1    3    3    0    0  0.15772521738E+02  0.94075499725E-01 -0.18974472999E+02  0.24674114332E+02  0.51100000000E-03 0. -1.
        -11    1    3    3    0    0  0.42003864456E+00 -0.20149327155E+01 -0.95652383208E+01  0.97841796133E+01  0.51100000000E-03 0.  1.
        -12    1    3    3    0    0  0.12614067043E+02  0.17783682256E+01 -0.39222858798E+01  0.13328976234E+02  0.00000000000E+00 0.  1.
</event>
<event>
 7    1  0.3884463E-009  0.4778727E+02  0.7816164E-02  0.1312668E+00
        -11   -1    0    0    0    0  0.00000000000E+00  0.00000000000E+00  0.45593999997E+02  0.45594000000E+02  0.51100000000E-03 0. -1.
         11   -1    0    0    0    0 -0.00000000000E+00 -0.00000000000E+00 -0.45593999997E+02  0.45594000000E+02  0.51100000000E-03 0.  1.
    9900012    2    1    2    0    0 -0.10404090494E+02 -0.40333683252E+02 -0.12189015246E+02  0.47787271937E+02  0.20000004071E+02 0.  0.
        -12    1    1    2    0    0  0.10404090494E+02  0.40333683252E+02  0.12189015246E+02  0.43400728063E+02  0.00000000000E+00 0.  1.
         11    1    3    3    0    0 -0.63250500962E+00 -0.84781325813E+01  0.48645335965E+01  0.97950233295E+01  0.51100000000E-03 0. -1.
        -11    1    3    3    0    0 -0.86153340888E+00 -0.46414226929E-01 -0.80021243878E+00  0.11767473405E+01  0.51100000000E-03 0.  1.
         12    1    3    3    0    0 -0.89100520754E+01 -0.31809136444E+02 -0.16253336404E+02  0.36815501267E+02  0.00000000000E+00 0. -1.
</event>
<event>
 7    1  0.3884463E-009  0.4778727E+02  0.7816164E-02  0.1312668E+00
        -11   -1    0    0    0    0  0.00000000000E+00  0.00000000000E+00  0.45593999997E+02  0.45594000000E+02  0.51100000000E-03 0.  1.
         11   -1    0    0    0    0 -0.00000000000E+00 -0.00000000000E+00 -0.45593999997E+02  0.45594000000E+02  0.51100000000E-03 0. -1.
    9900012    2    1    2    0    0  0.37474877648E+02 -0.15046439910E+02 -0.15901631274E+02  0.47787266298E+02  0.19999978359E+02 0.  0.
        -12    1    1    2    0    0 -0.37474877648E+02  0.15046439910E+02  0.15901631274E+02  0.43400733702E+02  0.00000000000E+00 0.  1.
         11    1    3    3    0    0  0.28495915739E+02 -0.11506713540E+02 -0.10985485517E+02  0.32635909097E+02  0.51100000000E-03 0. -1.
        -11    1    3    3    0    0  0.80289247975E+01 -0.55488296357E+00  0.13361954080E+01  0.81582441087E+01  0.51100000000E-03 0.  1.
         12    1    3    3    0    0  0.95003711176E+00 -0.29848434064E+01 -0.62523411650E+01  0.69931130921E+01  0.00000000000E+00 0. -1.
</event>
<event>
 7    1  0.3884463E-009  0.4778727E+02  0.7816164E-02  0.1312668E+00
        -11   -1    0    0    0    0  0.00000000000E+00  0.00000000000E+00  0.45593999997E+02  0.45594000000E+02  0.51100000000E-03 0.  1.
         11   -1    0    0    0    0 -0.00000000000E+00 -0.00000000000E+00 -0.45593999997E+02  0.45594000000E+02  0.51100000000E-03 0. -1.
    9900012    2    1    2    0    0  0.25485719647E+02 -0.15533404523E+02 -0.31508961808E+02  0.47787271478E+02  0.20000001978E+02 0.  0.
        -12    1    1    2    0    0 -0.25485719647E+02  0.15533404523E+02  0.31508961808E+02  0.43400728522E+02  0.00000000000E+00 0.  1.
         11    1    3    3    0    0  0.43461261535E+01 -0.39056241116E+01 -0.50632936895E+01  0.77317304331E+01  0.51100000000E-03 0. -1.
        -11    1    3    3    0    0 -0.43922606107E+00  0.49904637208E+00  0.21407912365E+01  0.22416409600E+01  0.51100000000E-03 0.  1.
        -12    1    3    3    0    0  0.21578819554E+02 -0.12126826783E+02 -0.28586459355E+02  0.37813900085E+02  0.00000000000E+00 0.  1.
</event>
<event>
 7    1  0.3884463E-009  0.4778727E+02  0.7816164E-02  0.1312668E+00
        -11   -1    0    0    0    0  0.00000000000E+00  0.00000000000E+00  0.45593999997E+02  0.45594000000E+02  0.51100000000E-03 0.  1.
         11   -1    0    0    0    0 -0.00000000000E+00 -0.00000000000E+00 -0.45593999997E+02  0.45594000000E+02  0.51100000000E-03 0. -1.
    9900012    2    1    2    0    0 -0.15567449011E+02 -0.26154862272E+02 -0.30938664619E+02  0.47787271232E+02  0.20000000856E+02 0.  0.
        -12    1    1    2    0    0  0.15567449011E+02  0.26154862272E+02  0.30938664619E+02  0.43400728768E+02  0.00000000000E+00 0.  1.
         11    1    3    3    0    0 -0.10710730318E+02 -0.44527714126E+01 -0.14335854570E+02  0.18440814616E+02  0.51100000000E-03 0. -1.
        -11    1    3    3    0    0  0.64238047589E+00 -0.26903052915E+01 -0.66317821420E+01  0.71854665734E+01  0.51100000000E-03 0.  1.
         12    1    3    3    0    0 -0.54990991697E+01 -0.19011785568E+02 -0.99710279062E+01  0.22160990042E+02  0.00000000000E+00 0. -1.
</event>
<event>
 7    1  0.3884463E-009  0.4778727E+02  0.7816164E-02  0.1312668E+00
        -11   -1    0    0    0    0  0.00000000000E+00  0.00000000000E+00  0.45593999997E+02  0.45594000000E+02  0.51100000000E-03 0. -1.
         11   -1    0    0    0    0 -0.00000000000E+00 -0.00000000000E+00 -0.45593999997E+02  0.45594000000E+02  0.51100000000E-03 0.  1.
    9900012    2    1    2    0    0 -0.30194292272E+02  0.16081686016E+02  0.26707816016E+02  0.47787270199E+02  0.19999996145E+02 0.  0.
        -12    1    1    2    0    0  0.30194292272E+02 -0.16081686016E+02 -0.26707816016E+02  0.43400729801E+02  0.00000000000E+00 0.  1.
         11    1    3    3    0    0 -0.76044077535E+01  0.13394030184E+02  0.76436817543E+01  0.17194561142E+02  0.51100000000E-03 0. -1.
        -11    1    3    3    0    0 -0.49675901450E+00 -0.90904186919E+00  0.26209557001E+01  0.28182504646E+01  0.51100000000E-03 0.  1.
         12    1    3    3    0    0 -0.22093125504E+02  0.35966977016E+01  0.16443178562E+02  0.27774458592E+02  0.00000000000E+00 0. -1.
</event>
<event>
 7    1  0.3884463E-009  0.4778727E+02  0.7816164E-02  0.1312668E+00
        -11   -1    0    0    0    0  0.00000000000E+00  0.00000000000E+00  0.45593999997E+02  0.45594000000E+02  0.51100000000E-03 0.  1.
         11   -1    0    0    0    0 -0.00000000000E+00 -0.00000000000E+00 -0.45593999997E+02  0.45594000000E+02  0.51100000000E-03 0. -1.
    9900012    2    1    2    0    0 -0.31517958838E+01 -0.30255052111E+01 -0.43180269078E+02  0.47787272624E+02  0.20000007203E+02 0.  0.
        -12    1    1    2    0    0  0.31517958838E+01  0.30255052111E+01  0.43180269078E+02  0.43400727376E+02  0.00000000000E+00 0.  1.
         11    1    3    3    0    0  0.91073877279E+00 -0.65962971503E+01 -0.15101021098E+02  0.16503981934E+02  0.51100000000E-03 0. -1.
        -11    1    3    3    0    0 -0.61150704047E+01 -0.12793950717E+01 -0.62854155416E+01  0.88621321699E+01  0.51100000000E-03 0.  1.
         12    1    3    3    0    0  0.20525357481E+01  0.48501870108E+01 -0.21793832439E+02  0.22421158520E+02  0.00000000000E+00 0. -1.
</event>
<event>
 7    1  0.3884463E-009  0.4778727E+02  0.7816164E-02  0.1312668E+00
        -11   -1    0    0    0    0  0.00000000000E+00  0.00000000000E+00  0.45593999997E+02  0.45594000000E+02  0.51100000000E-03 0.  1.
         11   -1    0    0    0    0 -0.00000000000E+00 -0.00000000000E+00 -0.45593999997E+02  0.45594000000E+02  0.51100000000E-03 0. -1.
    9900012    2    1    2    0    0 -0.27888071576E+01  0.40742845675E+01 -0.43118974289E+02  0.47787272082E+02  0.20000004729E+02 0.  0.
        -12    1    1    2    0    0  0.27888071576E+01 -0.40742845675E+01  0.43118974289E+02  0.43400727918E+02  0.00000000000E+00 0.  1.
         11    1    3    3    0    0 -0.21368954882E+01 -0.39000499562E+01 -0.12044907734E+02  0.12839646201E+02  0.51100000000E-03 0. -1.
        -11    1    3    3    0    0 -0.50370317875E+01  0.42569835938E+01 -0.50778089302E+01  0.83233251972E+01  0.51100000000E-03 0.  1.
         12    1    3    3    0    0  0.43851201180E+01  0.37173509300E+01 -0.25996257625E+02  0.26624300684E+02  0.00000000000E+00 0. -1.
</event>
<event>
 7    1  0.3884463E-009  0.4778728E+02  0.7816164E-02  0.1312668E+00
        -11   -1    0    0    0    0  0.00000000000E+00  0.00000000000E+00  0.45593999997E+02  0.45594000000E+02  0.51100000000E-03 0.  1.
         11   -1    0    0    0    0 -0.00000000000E+00 -0.00000000000E+00 -0.45593999997E+02  0.45594000000E+02  0.51100000000E-03 0. -1.
    9900012    2    1    2    0    0  0.78260904850E+01  0.17927727660E+02 -0.38742370706E+02  0.47787281121E+02  0.20000045941E+02 0.  0.
        -12    1    1    2    0    0 -0.78260904850E+01 -0.17927727660E+02  0.38742370706E+02  0.43400718879E+02  0.00000000000E+00 0.  1.
         11    1    3    3    0    0 -0.12825467389E+01  0.14567887232E+02 -0.14714352178E+02  0.20745612182E+02  0.51100000000E-03 0. -1.
        -11    1    3    3    0    0  0.15219420567E+01 -0.75006048477E+00 -0.21090502752E+00  0.17097893281E+01  0.51100000000E-03 0.  1.
         12    1    3    3    0    0  0.75866951671E+01  0.41099009123E+01 -0.23817113501E+02  0.25331879610E+02  0.00000000000E+00 0. -1.
</event>
<event>
 7    1  0.3884463E-009  0.4778727E+02  0.7816164E-02  0.1312668E+00
        -11   -1    0    0    0    0  0.00000000000E+00  0.00000000000E+00  0.45593999997E+02  0.45594000000E+02  0.51100000000E-03 0. -1.
         11   -1    0    0    0    0 -0.00000000000E+00 -0.00000000000E+00 -0.45593999997E+02  0.45594000000E+02  0.51100000000E-03 0.  1.
    9900012    2    1    2    0    0  0.42274325957E+02 -0.91820074907E+01 -0.34921944005E+01  0.47787270531E+02  0.19999997659E+02 0.  0.
        -12    1    1    2    0    0 -0.42274325957E+02  0.91820074907E+01  0.34921944005E+01  0.43400729469E+02  0.00000000000E+00 0.  1.
         11    1    3    3    0    0  0.34721691215E+01  0.27085669412E+01  0.16830392675E+01  0.47143307818E+01  0.51100000000E-03 0. -1.
        -11    1    3    3    0    0  0.68497592704E+00 -0.33425209989E+01 -0.18152200007E+01  0.38647978681E+01  0.51100000000E-03 0.  1.
        -12    1    3    3    0    0  0.38117180909E+02 -0.85480534330E+01 -0.33600136673E+01  0.39208141881E+02  0.00000000000E+00 0.  1.
</event>
<event>
 7    1  0.3884463E-009  0.4778727E+02  0.7816164E-02  0.1312668E+00
        -11   -1    0    0    0    0  0.00000000000E+00  0.00000000000E+00  0.45593999997E+02  0.45594000000E+02  0.51100000000E-03 0.  1.
         11   -1    0    0    0    0 -0.00000000000E+00 -0.00000000000E+00 -0.45593999997E+02  0.45594000000E+02  0.51100000000E-03 0. -1.
    9900012    2    1    2    0    0  0.22567455860E+02 -0.18210789257E+02 -0.32290866627E+02  0.47787274466E+02  0.20000015599E+02 0.  0.
        -12    1    1    2    0    0 -0.22567455860E+02  0.18210789257E+02  0.32290866627E+02  0.43400725534E+02  0.00000000000E+00 0.  1.
         11    1    3    3    0    0 -0.70511377359E+00 -0.27422450544E+01 -0.45521970068E+01  0.53609319360E+01  0.51100000000E-03 0. -1.
        -11    1    3    3    0    0  0.14611182429E+02 -0.15673068544E+02 -0.12257016125E+02  0.24685343305E+02  0.51100000000E-03 0.  1.
         12    1    3    3    0    0  0.86613872051E+01  0.20452434166E+00 -0.15481653496E+02  0.17740999225E+02  0.00000000000E+00 0. -1.
</event>
<event>
 7    1  0.3884463E-009  0.4778727E+02  0.7816164E-02  0.1312668E+00
        -11   -1    0    0    0    0  0.00000000000E+00  0.00000000000E+00  0.45593999997E+02  0.45594000000E+02  0.51100000000E-03 0.  1.
         11   -1    0    0    0    0 -0.00000000000E+00 -0.00000000000E+00 -0.45593999997E+02  0.45594000000E+02  0.51100000000E-03 0. -1.
    9900012    2    1    2    0    0  0.27109671635E+02 -0.10839521743E+02 -0.32112212121E+02  0.47787266192E+02  0.19999977876E+02 0.  0.
        -12    1    1    2    0    0 -0.27109671635E+02  0.10839521743E+02  0.32112212121E+02  0.43400733808E+02  0.00000000000E+00 0.  1.
         11    1    3    3    0    0  0.36226079373E+01 -0.55221846097E+01 -0.36815807658E+01  0.75612068036E+01  0.51100000000E-03 0. -1.
        -11    1    3    3    0    0  0.82053579342E+01 -0.85802175423E+01 -0.72703861491E+01  0.13921441984E+02  0.51100000000E-03 0.  1.
         12    1    3    3    0    0  0.15281705763E+02  0.32628804094E+01 -0.21160245206E+02  0.26304617404E+02  0.00000000000E+00 0. -1.
</event>
<event>
 7    1  0.3884463E-009  0.4778728E+02  0.7816164E-02  0.1312668E+00
        -11   -1    0    0    0    0  0.00000000000E+00  0.00000000000E+00  0.45593999997E+02  0.45594000000E+02  0.51100000000E-03 0. -1.
         11   -1    0    0    0    0 -0.00000000000E+00 -0.00000000000E+00 -0.45593999997E+02  0.45594000000E+02  0.51100000000E-03 0.  1.
    9900012    2    1    2    0    0  0.42152651986E+02  0.10195967264E+02 -0.16788875051E+01  0.47787280177E+02  0.20000041638E+02 0.  0.
        -12    1    1    2    0    0 -0.42152651986E+02 -0.10195967264E+02  0.16788875051E+01  0.43400719823E+02  0.00000000000E+00 0.  1.
         11    1    3    3    0    0  0.22170083000E+02  0.15225362738E+01  0.18188673456E+01  0.22296613546E+02  0.51100000000E-03 0. -1.
        -11    1    3    3    0    0  0.21220733410E+02  0.98762193051E+01 -0.26154802422E+01  0.23552069365E+02  0.51100000000E-03 0.  1.
        -12    1    3    3    0    0 -0.12381644240E+01 -0.12027883153E+01 -0.88227460843E+00  0.19385972653E+01  0.00000000000E+00 0.  1.
</event>
<event>
 7    1  0.3884463E-009  0.4778727E+02  0.7816164E-02  0.1312668E+00
        -11   -1    0    0    0    0  0.00000000000E+00  0.00000000000E+00  0.45593999997E+02  0.45594000000E+02  0.51100000000E-03 0. -1.
         11   -1    0    0    0    0 -0.00000000000E+00 -0.00000000000E+00 -0.45593999997E+02  0.45594000000E+02  0.51100000000E-03 0.  1.
    9900012    2    1    2    0    0 -0.92398155049E+01 -0.13840599658E+02  0.40083499438E+02  0.47787270552E+02  0.19999997753E+02 0.  0.
        -12    1    1    2    0    0  0.92398155049E+01  0.13840599658E+02 -0.40083499438E+02  0.43400729448E+02  0.00000000000E+00 0.  1.
         11    1    3    3    0    0 -0.69203415922E+01 -0.10572082689E+02  0.26173681543E+02  0.29064095821E+02  0.51100000000E-03 0. -1.
        -11    1    3    3    0    0 -0.26359526606E+01 -0.76404531771E+01  0.80717432914E+01  0.11422688440E+02  0.51100000000E-03 0.  1.
        -12    1    3    3    0    0  0.31647874801E+00  0.43719362073E+01  0.58380746036E+01  0.73004862904E+01  0.00000000000E+00 0.  1.
</event>
<event>
 7    1  0.3884463E-009  0.4778727E+02  0.7816164E-02  0.1312668E+00
        -11   -1    0    0    0    0  0.00000000000E+00  0.00000000000E+00  0.45593999997E+02  0.45594000000E+02  0.51100000000E-03 0.  1.
         11   -1    0    0    0    0 -0.00000000000E+00 -0.00000000000E+00 -0.45593999997E+02  0.45594000000E+02  0.51100000000E-03 0. -1.
    9900012    2    1    2    0    0  0.18881813890E+02  0.16630381570E+02 -0.35362843492E+02  0.47787272048E+02  0.20000004575E+02 0.  0.
        -12    1    1    2    0    0 -0.18881813890E+02 -0.16630381570E+02  0.35362843492E+02  0.43400727952E+02  0.00000000000E+00 0.  1.
         11    1    3    3    0    0  0.33823098725E+01  0.23471499685E+00 -0.37658197960E+00  0.34112938091E+01  0.51100000000E-03 0. -1.
        -11    1    3    3    0    0  0.35549131734E+01  0.23627725100E+00  0.49752654956E+00  0.35973278331E+01  0.51100000000E-03 0.  1.
         12    1    3    3    0    0  0.11944590845E+02  0.16159389322E+02 -0.35483788062E+02  0.40778650406E+02  0.00000000000E+00 0. -1.
</event>
<event>
 7    1  0.3884463E-009  0.4778727E+02  0.7816164E-02  0.1312668E+00
        -11   -1    0    0    0    0  0.00000000000E+00  0.00000000000E+00  0.45593999997E+02  0.45594000000E+02  0.51100000000E-03 0. -1.
         11   -1    0    0    0    0 -0.00000000000E+00 -0.00000000000E+00 -0.45593999997E+02  0.45594000000E+02  0.51100000000E-03 0.  1.
    9900012    2    1    2    0    0  0.18185886164E+02  0.25179497309E+02  0.30313201760E+02  0.47787265660E+02  0.19999975449E+02 0.  0.
        -12    1    1    2    0    0 -0.18185886164E+02 -0.25179497309E+02 -0.30313201760E+02  0.43400734340E+02  0.00000000000E+00 0.  1.
         11    1    3    3    0    0  0.69620747073E+01  0.12980736679E+01  0.93993531093E+01  0.11768743289E+02  0.51100000000E-03 0.  1.
        -11    1    3    3    0    0 -0.20299106786E+00  0.61696873803E+01  0.11246812570E+02  0.12829537832E+02  0.51100000000E-03 0. -1.
         12    1    3    3    0    0  0.11426802525E+02  0.17711736261E+02  0.96670360810E+01  0.23188984538E+02  0.00000000000E+00 0. -1.
</event>
<event>
 7    1  0.3884463E-009  0.4778728E+02  0.7816164E-02  0.1312668E+00
        -11   -1    0    0    0    0  0.00000000000E+00  0.00000000000E+00  0.45593999997E+02  0.45594000000E+02  0.51100000000E-03 0.  1.
         11   -1    0    0    0    0 -0.00000000000E+00 -0.00000000000E+00 -0.45593999997E+02  0.45594000000E+02  0.51100000000E-03 0. -1.
    9900012    2    1    2    0    0 -0.17920746957E+02  0.34730366936E+02 -0.18875147316E+02  0.47787277135E+02  0.20000027771E+02 0.  0.
        -12    1    1    2    0    0  0.17920746957E+02 -0.34730366936E+02  0.18875147316E+02  0.43400722865E+02  0.00000000000E+00 0.  1.
         11    1    3    3    0    0 -0.15287755421E+02  0.29358670229E+02 -0.14713917340E+02  0.36223560664E+02  0.51100000000E-03 0. -1.
        -11    1    3    3    0    0 -0.40170435320E+01  0.54040377697E+01 -0.61641424895E+01  0.91289055120E+01  0.51100000000E-03 0.  1.
        -12    1    3    3    0    0  0.13840519963E+01 -0.32341062646E-01  0.20029125136E+01  0.24348109598E+01  0.00000000000E+00 0.  1.
</event>
<event>
 7    1  0.3884463E-009  0.4778730E+02  0.7816164E-02  0.1312668E+00
        -11   -1    0    0    0    0  0.00000000000E+00  0.00000000000E+00  0.45593999997E+02  0.45594000000E+02  0.51100000000E-03 0. -1.
         11   -1    0    0    0    0 -0.00000000000E+00 -0.00000000000E+00 -0.45593999997E+02  0.45594000000E+02  0.51100000000E-03 0.  1.
    9900012    2    1    2    0    0  0.89076793681E+01 -0.81557269105E+01  0.41686430984E+02  0.47787295382E+02  0.20000110963E+02 0.  0.
        -12    1    1    2    0    0 -0.89076793681E+01  0.81557269105E+01 -0.41686430984E+02  0.43400704618E+02  0.00000000000E+00 0.  1.
         11    1    3    3    0    0  0.78789262778E+00  0.38226616371E+01  0.78879900610E+01  0.88007899786E+01  0.51100000000E-03 0. -1.
        -11    1    3    3    0    0  0.26989572350E+01 -0.13218723209E+01  0.21947384109E+02  0.22152186937E+02  0.51100000000E-03 0.  1.
        -12    1    3    3    0    0  0.54208295053E+01 -0.10656516227E+02  0.11851056814E+02  0.16834318466E+02  0.00000000000E+00 0.  1.
</event>
<event>
 7    1  0.3884463E-009  0.4778727E+02  0.7816164E-02  0.1312668E+00
        -11   -1    0    0    0    0  0.00000000000E+00  0.00000000000E+00  0.45593999997E+02  0.45594000000E+02  0.51100000000E-03 0.  1.
         11   -1    0    0    0    0 -0.00000000000E+00 -0.00000000000E+00 -0.45593999997E+02  0.45594000000E+02  0.51100000000E-03 0. -1.
    9900012    2    1    2    0    0 -0.32211334843E+02 -0.25895855184E+02 -0.13246066018E+02  0.47787266446E+02  0.19999979033E+02 0.  0.
        -12    1    1    2    0    0  0.32211334843E+02  0.25895855184E+02  0.13246066018E+02  0.43400733554E+02  0.00000000000E+00 0.  1.
         11    1    3    3    0    0 -0.11853846452E+02 -0.15887762139E+02 -0.62766388966E+01  0.20792567364E+02  0.51100000000E-03 0. -1.
        -11    1    3    3    0    0 -0.15585753296E+02 -0.13118940220E+02 -0.51178476281E+01  0.21005110400E+02  0.51100000000E-03 0.  1.
        -12    1    3    3    0    0 -0.47717350947E+01  0.31108471746E+01 -0.18515794938E+01  0.59895886820E+01  0.00000000000E+00 0.  1.
</event>
<event>
 7    1  0.3884463E-009  0.4778728E+02  0.7816164E-02  0.1312668E+00
        -11   -1    0    0    0    0  0.00000000000E+00  0.00000000000E+00  0.45593999997E+02  0.45594000000E+02  0.51100000000E-03 0.  1.
         11   -1    0    0    0    0 -0.00000000000E+00 -0.00000000000E+00 -0.45593999997E+02  0.45594000000E+02  0.51100000000E-03 0. -1.
    9900012    2    1    2    0    0 -0.58490382214E+01  0.37688313885E+02 -0.20712367139E+02  0.47787281065E+02  0.20000045687E+02 0.  0.
        -12    1    1    2    0    0  0.58490382214E+01 -0.37688313885E+02  0.20712367139E+02  0.43400718935E+02  0.00000000000E+00 0.  1.
         11    1    3    3    0    0 -0.40329794973E+01  0.15363379113E+02 -0.97095994082E+01  0.18616515848E+02  0.51100000000E-03 0. -1.
        -11    1    3    3    0    0  0.75166945384E+00  0.10824096086E+02 -0.13300577797E+02  0.17164831285E+02  0.51100000000E-03 0.  1.
         12    1    3    3    0    0 -0.25677281779E+01  0.11500838686E+02  0.22978100660E+01  0.12005933932E+02  0.00000000000E+00 0. -1.
</event>
<event>
 7    1  0.3884463E-009  0.4778727E+02  0.7816164E-02  0.1312668E+00
        -11   -1    0    0    0    0  0.00000000000E+00  0.00000000000E+00  0.45593999997E+02  0.45594000000E+02  0.51100000000E-03 0.  1.
         11   -1    0    0    0    0 -0.00000000000E+00 -0.00000000000E+00 -0.45593999997E+02  0.45594000000E+02  0.51100000000E-03 0. -1.
    9900012    2    1    2    0    0  0.55125056734E+01 -0.20630879091E+02 -0.37783622448E+02  0.47787274014E+02  0.20000013537E+02 0.  0.
        -12    1    1    2    0    0 -0.55125056734E+01  0.20630879091E+02  0.37783622448E+02  0.43400725986E+02  0.00000000000E+00 0.  1.
         11    1    3    3    0    0  0.36397610864E+01 -0.18737335146E+02 -0.35167757790E+02  0.40013832325E+02  0.51100000000E-03 0. -1.
        -11    1    3    3    0    0 -0.18405977388E+01 -0.13005219755E+01 -0.32550532086E+01  0.39591071085E+01  0.51100000000E-03 0.  1.
        -12    1    3    3    0    0  0.37133423258E+01 -0.59302196892E+00  0.63918854996E+00  0.38143345798E+01  0.00000000000E+00 0.  1.
</event>
<event>
 7    1  0.3884463E-009  0.4778727E+02  0.7816164E-02  0.1312668E+00
        -11   -1    0    0    0    0  0.00000000000E+00  0.00000000000E+00  0.45593999997E+02  0.45594000000E+02  0.51100000000E-03 0.  1.
         11   -1    0    0    0    0 -0.00000000000E+00 -0.00000000000E+00 -0.45593999997E+02  0.45594000000E+02  0.51100000000E-03 0. -1.
    9900012    2    1    2    0    0 -0.10829665554E+02  0.35731582319E+02 -0.22126801035E+02  0.47787274717E+02  0.20000016744E+02 0.  0.
        -12    1    1    2    0    0  0.10829665554E+02 -0.35731582319E+02  0.22126801035E+02  0.43400725283E+02  0.00000000000E+00 0.  1.
         11    1    3    3    0    0 -0.98913486968E+01  0.13675344487E+02 -0.58790472152E+00  0.16887849422E+02  0.51100000000E-03 0. -1.
        -11    1    3    3    0    0 -0.27990705652E+00  0.36674009635E+01 -0.26793057385E+01  0.45504787977E+01  0.51100000000E-03 0.  1.
         12    1    3    3    0    0 -0.65840980082E+00  0.18388836869E+02 -0.18859590575E+02  0.26348946497E+02  0.00000000000E+00 0. -1.
</event>
<event>
 7    1  0.3884463E-009  0.4778727E+02  0.7816164E-02  0.1312668E+00
        -11   -1    0    0    0    0  0.00000000000E+00  0.00000000000E+00  0.45593999997E+02  0.45594000000E+02  0.51100000000E-03 0. -1.
         11   -1    0    0    0    0 -0.00000000000E+00 -0.00000000000E+00 -0.45593999997E+02  0.45594000000E+02  0.51100000000E-03 0.  1.
    9900012    2    1    2    0    0  0.26342132727E+02  0.33369918443E+02  0.87272003726E+01  0.47787269132E+02  0.19999991282E+02 0.  0.
        -12    1    1    2    0    0 -0.26342132727E+02 -0.33369918443E+02 -0.87272003726E+01  0.43400730868E+02  0.00000000000E+00 0.  1.
         11    1    3    3    0    0 -0.69222252536E+00  0.28722103574E+01  0.78299062395E+00  0.30564422030E+01  0.51100000000E-03 0. -1.
        -11    1    3    3    0    0  0.14682094765E+02  0.49731488599E+01  0.98347376556E+00  0.15532653900E+02  0.51100000000E-03 0.  1.
         12    1    3    3    0    0  0.12352260488E+02  0.25524559226E+02  0.69607359831E+01  0.29198173029E+02  0.00000000000E+00 0. -1.
</event>
<event>
 7    1  0.3884463E-009  0.4778727E+02  0.7816164E-02  0.1312668E+00
        -11   -1    0    0    0    0  0.00000000000E+00  0.00000000000E+00  0.45593999997E+02  0.45594000000E+02  0.51100000000E-03 0.  1.
         11   -1    0    0    0    0 -0.00000000000E+00 -0.00000000000E+00 -0.45593999997E+02  0.45594000000E+02  0.51100000000E-03 0. -1.
    9900012    2    1    2    0    0  0.25824475020E+02 -0.32766466759E+02 -0.11961546504E+02  0.47787269031E+02  0.19999990819E+02 0.  0.
        -12    1    1    2    0    0 -0.25824475020E+02  0.32766466759E+02  0.11961546504E+02  0.43400730969E+02  0.00000000000E+00 0.  1.
         11    1    3    3    0    0  0.15023588775E+02 -0.10523185010E+02 -0.41827531017E+01  0.18813321509E+02  0.51100000000E-03 0. -1.
        -11    1    3    3    0    0  0.10153610641E+02 -0.63264857530E+01 -0.28369087016E+01  0.12295051129E+02  0.51100000000E-03 0.  1.
        -12    1    3    3    0    0  0.64727560439E+00 -0.15916795996E+02 -0.49418847003E+01  0.16678896392E+02  0.00000000000E+00 0.  1.
</event>
<event>
 7    1  0.3884463E-009  0.4778727E+02  0.7816164E-02  0.1312668E+00
        -11   -1    0    0    0    0  0.00000000000E+00  0.00000000000E+00  0.45593999997E+02  0.45594000000E+02  0.51100000000E-03 0.  1.
         11   -1    0    0    0    0 -0.00000000000E+00 -0.00000000000E+00 -0.45593999997E+02  0.45594000000E+02  0.51100000000E-03 0. -1.
    9900012    2    1    2    0    0 -0.72759781959E+01  0.35382299159E+02 -0.24057780861E+02  0.47787265301E+02  0.19999973813E+02 0.  0.
        -12    1    1    2    0    0  0.72759781959E+01 -0.35382299159E+02  0.24057780861E+02  0.43400734699E+02  0.00000000000E+00 0.  1.
         11    1    3    3    0    0 -0.63045370361E+01  0.11124928776E+02 -0.15805275915E+02  0.20330223179E+02  0.51100000000E-03 0. -1.
        -11    1    3    3    0    0  0.20103062936E+01  0.13557082786E+01 -0.28438424983E+01  0.37372070784E+01  0.51100000000E-03 0.  1.
         12    1    3    3    0    0 -0.29817474533E+01  0.22901662104E+02 -0.54086624485E+01  0.23719835044E+02  0.00000000000E+00 0. -1.
</event>
<event>
 7    1  0.3884463E-009  0.4778726E+02  0.7816164E-02  0.1312668E+00
        -11   -1    0    0    0    0  0.00000000000E+00  0.00000000000E+00  0.45593999997E+02  0.45594000000E+02  0.51100000000E-03 0. -1.
         11   -1    0    0    0    0 -0.00000000000E+00 -0.00000000000E+00 -0.45593999997E+02  0.45594000000E+02  0.51100000000E-03 0.  1.
    9900012    2    1    2    0    0 -0.14381451896E+02  0.18424240737E+02  0.36569730590E+02  0.47787262670E+02  0.19999961818E+02 0.  0.
        -12    1    1    2    0    0  0.14381451896E+02 -0.18424240737E+02 -0.36569730590E+02  0.43400737330E+02  0.00000000000E+00 0.  1.
         11    1    3    3    0    0 -0.16833144642E+02  0.12975429698E+02  0.32926199000E+02  0.39189936403E+02  0.51100000000E-03 0. -1.
        -11    1    3    3    0    0 -0.13701453165E+01  0.25989647569E+01  0.20018623044E+01  0.35551890164E+01  0.51100000000E-03 0.  1.
        -12    1    3    3    0    0  0.38218380632E+01  0.28498462825E+01  0.16416692852E+01  0.50421372509E+01  0.00000000000E+00 0.  1.
</event>
<event>
 7    1  0.3884463E-009  0.4778726E+02  0.7816164E-02  0.1312668E+00
        -11   -1    0    0    0    0  0.00000000000E+00  0.00000000000E+00  0.45593999997E+02  0.45594000000E+02  0.51100000000E-03 0.  1.
         11   -1    0    0    0    0 -0.00000000000E+00 -0.00000000000E+00 -0.45593999997E+02  0.45594000000E+02  0.51100000000E-03 0. -1.
    9900012    2    1    2    0    0 -0.30780353428E+02 -0.57457137126E+01 -0.30052962455E+02  0.47787263421E+02  0.19999965242E+02 0.  0.
        -12    1    1    2    0    0  0.30780353428E+02  0.57457137126E+01  0.30052962455E+02  0.43400736579E+02  0.00000000000E+00 0.  1.
         11    1    3    3    0    0 -0.11518575548E+02  0.33227945355E+01 -0.89157524998E+01  0.14940187050E+02  0.51100000000E-03 0. -1.
        -11    1    3    3    0    0 -0.83028020005E+01 -0.11541829637E+01 -0.79144104170E+00  0.84199191538E+01  0.51100000000E-03 0.  1.
         12    1    3    3    0    0 -0.10958975880E+02 -0.79143252844E+01 -0.20345768914E+02  0.24427157218E+02  0.00000000000E+00 0. -1.
</event>
<event>
 7    1  0.3884463E-009  0.4778727E+02  0.7816164E-02  0.1312668E+00
        -11   -1    0    0    0    0  0.00000000000E+00  0.00000000000E+00  0.45593999997E+02  0.45594000000E+02  0.51100000000E-03 0.  1.
         11   -1    0    0    0    0 -0.00000000000E+00 -0.00000000000E+00 -0.45593999997E+02  0.45594000000E+02  0.51100000000E-03 0. -1.
    9900012    2    1    2    0    0 -0.12640108188E+02 -0.65030518429E+01 -0.41006847757E+02  0.47787267504E+02  0.19999983858E+02 0.  0.
        -12    1    1    2    0    0  0.12640108188E+02  0.65030518429E+01  0.41006847757E+02  0.43400732496E+02  0.00000000000E+00 0.  1.
         11    1    3    3    0    0 -0.35255795372E+01 -0.49451515178E+00 -0.12735123563E+02  0.13223374333E+02  0.51100000000E-03 0. -1.
        -11    1    3    3    0    0  0.13133694152E+01 -0.86854505464E+01 -0.15888105591E+02  0.18154720873E+02  0.51100000000E-03 0.  1.
        -12    1    3    3    0    0 -0.10427898066E+02  0.26769138553E+01 -0.12383618602E+02  0.16409172299E+02  0.00000000000E+00 0.  1.
</event>
<event>
 7    1  0.3884463E-009  0.4778731E+02  0.7816164E-02  0.1312668E+00
        -11   -1    0    0    0    0  0.00000000000E+00  0.00000000000E+00  0.45593999997E+02  0.45594000000E+02  0.51100000000E-03 0.  1.
         11   -1    0    0    0    0 -0.00000000000E+00 -0.00000000000E+00 -0.45593999997E+02  0.45594000000E+02  0.51100000000E-03 0. -1.
    9900012    2    1    2    0    0 -0.15667312289E+02  0.40407751012E+02  0.23171539097E+01  0.47787306244E+02  0.20000160490E+02 0.  0.
        -12    1    1    2    0    0  0.15667312289E+02 -0.40407751012E+02 -0.23171539097E+01  0.43400693756E+02  0.00000000000E+00 0.  1.
         11    1    3    3    0    0 -0.10464565852E+02  0.88540562924E+01  0.96897343941E+00  0.13741919847E+02  0.51100000000E-03 0. -1.
        -11    1    3    3    0    0 -0.42740459053E+00 -0.69402342137E+00 -0.10830417417E+01  0.13554788338E+01  0.51100000000E-03 0.  1.
         12    1    3    3    0    0 -0.47753418463E+01  0.32247718141E+02  0.24312222120E+01  0.32689907563E+02  0.00000000000E+00 0. -1.
</event>
<event>
 7    1  0.3884463E-009  0.4778727E+02  0.7816164E-02  0.1312668E+00
        -11   -1    0    0    0    0  0.00000000000E+00  0.00000000000E+00  0.45593999997E+02  0.45594000000E+02  0.51100000000E-03 0.  1.
         11   -1    0    0    0    0 -0.00000000000E+00 -0.00000000000E+00 -0.45593999997E+02  0.45594000000E+02  0.51100000000E-03 0. -1.
    9900012    2    1    2    0    0  0.17690009776E+02  0.79880960674E+01 -0.38818514036E+02  0.47787272395E+02  0.20000006159E+02 0.  0.
        -12    1    1    2    0    0 -0.17690009776E+02 -0.79880960674E+01  0.38818514036E+02  0.43400727605E+02  0.00000000000E+00 0.  1.
         11    1    3    3    0    0  0.90006253137E+01  0.25615591827E+01 -0.16546029901E+02  0.19009049088E+02  0.51100000000E-03 0. -1.
        -11    1    3    3    0    0  0.80396681520E+01  0.77845443848E+01 -0.67600738957E+01  0.13074172808E+02  0.51100000000E-03 0.  1.
        -12    1    3    3    0    0  0.64971631049E+00 -0.23580075001E+01 -0.15512410240E+02  0.15704050500E+02  0.00000000000E+00 0.  1.
</event>
<event>
 7    1  0.3884463E-009  0.4778727E+02  0.7816164E-02  0.1312668E+00
        -11   -1    0    0    0    0  0.00000000000E+00  0.00000000000E+00  0.45593999997E+02  0.45594000000E+02  0.51100000000E-03 0. -1.
         11   -1    0    0    0    0 -0.00000000000E+00 -0.00000000000E+00 -0.45593999997E+02  0.45594000000E+02  0.51100000000E-03 0.  1.
    9900012    2    1    2    0    0  0.37622171515E+02  0.21602791557E+02  0.12308636713E+01  0.47787269385E+02  0.19999992434E+02 0.  0.
        -12    1    1    2    0    0 -0.37622171515E+02 -0.21602791557E+02 -0.12308636713E+01  0.43400730615E+02  0.00000000000E+00 0.  1.
         11    1    3    3    0    0  0.12567878470E+02  0.82499535486E+01  0.24342524564E+01  0.15229539982E+02  0.51100000000E-03 0. -1.
        -11    1    3    3    0    0  0.34197962570E+01  0.10025774903E+02 -0.12697009018E+01  0.10668800752E+02  0.51100000000E-03 0.  1.
        -12    1    3    3    0    0  0.21634496788E+02  0.33270631051E+01  0.66312116735E-01  0.21888928650E+02  0.00000000000E+00 0.  1.
</event>
<event>
 7    1  0.3884463E-009  0.4778727E+02  0.7816164E-02  0.1312668E+00
        -11   -1    0    0    0    0  0.00000000000E+00  0.00000000000E+00  0.45593999997E+02  0.45594000000E+02  0.51100000000E-03 0.  1.
         11   -1    0    0    0    0 -0.00000000000E+00 -0.00000000000E+00 -0.45593999997E+02  0.45594000000E+02  0.51100000000E-03 0. -1.
    9900012    2    1    2    0    0  0.30604773823E+02 -0.50332045093E+01 -0.30358494479E+02  0.47787268262E+02  0.19999987312E+02 0.  0.
        -12    1    1    2    0    0 -0.30604773823E+02  0.50332045093E+01  0.30358494479E+02  0.43400731738E+02  0.00000000000E+00 0.  1.
         11    1    3    3    0    0  0.19051381338E+02 -0.57492356954E+01 -0.23736795768E+02  0.30974898153E+02  0.51100000000E-03 0. -1.
        -11    1    3    3    0    0  0.72748443901E+01 -0.29527030280E+01 -0.77859799645E+01  0.11057273640E+02  0.51100000000E-03 0.  1.
        -12    1    3    3    0    0  0.42785480950E+01  0.36687342141E+01  0.11642812538E+01  0.57550964694E+01  0.00000000000E+00 0.  1.
</event>
<event>
 7    1  0.3884463E-009  0.4778731E+02  0.7816164E-02  0.1312668E+00
        -11   -1    0    0    0    0  0.00000000000E+00  0.00000000000E+00  0.45593999997E+02  0.45594000000E+02  0.51100000000E-03 0.  1.
         11   -1    0    0    0    0 -0.00000000000E+00 -0.00000000000E+00 -0.45593999997E+02  0.45594000000E+02  0.51100000000E-03 0. -1.
    9900012    2    1    2    0    0 -0.11517556311E+02  0.25805418630E+02 -0.32940044493E+02  0.47787305706E+02  0.20000158033E+02 0.  0.
        -12    1    1    2    0    0  0.11517556311E+02 -0.25805418630E+02  0.32940044493E+02  0.43400694294E+02  0.00000000000E+00 0.  1.
         11    1    3    3    0    0  0.19541909977E+01 -0.34055610472E+00  0.35795547770E-01  0.19839663551E+01  0.51100000000E-03 0. -1.
        -11    1    3    3    0    0 -0.60891492232E+01  0.52876238224E+01 -0.31307558059E+01  0.86509153347E+01  0.51100000000E-03 0.  1.
         12    1    3    3    0    0 -0.73825980850E+01  0.20858350912E+02 -0.29845084235E+02  0.37152424016E+02  0.00000000000E+00 0. -1.
</event>
<event>
 7    1  0.3884463E-009  0.4778727E+02  0.7816164E-02  0.1312668E+00
        -11   -1    0    0    0    0  0.00000000000E+00  0.00000000000E+00  0.45593999997E+02  0.45594000000E+02  0.51100000000E-03 0.  1.
         11   -1    0    0    0    0 -0.00000000000E+00 -0.00000000000E+00 -0.45593999997E+02  0.45594000000E+02  0.51100000000E-03 0. -1.
    9900012    2    1    2    0    0  0.15639062064E+02 -0.26851408610E+02 -0.30299256703E+02  0.47787270013E+02  0.19999995298E+02 0.  0.
        -12    1    1    2    0    0 -0.15639062064E+02  0.26851408610E+02  0.30299256703E+02  0.43400729987E+02  0.00000000000E+00 0.  1.
         11    1    3    3    0    0 -0.21378994864E+01 -0.63217571284E+01 -0.32624619648E+01  0.74282491704E+01  0.51100000000E-03 0. -1.
        -11    1    3    3    0    0 -0.17767022443E+01 -0.27815355107E+01 -0.15053930348E+01  0.36276464978E+01  0.51100000000E-03 0.  1.
         12    1    3    3    0    0  0.19553663795E+02 -0.17748115971E+02 -0.25531401704E+02  0.36731374345E+02  0.00000000000E+00 0. -1.
</event>
<event>
 7    1  0.3884463E-009  0.4778727E+02  0.7816164E-02  0.1312668E+00
        -11   -1    0    0    0    0  0.00000000000E+00  0.00000000000E+00  0.45593999997E+02  0.45594000000E+02  0.51100000000E-03 0.  1.
         11   -1    0    0    0    0 -0.00000000000E+00 -0.00000000000E+00 -0.45593999997E+02  0.45594000000E+02  0.51100000000E-03 0. -1.
    9900012    2    1    2    0    0 -0.52917377749E+01 -0.28965223803E+02 -0.31884738849E+02  0.47787271318E+02  0.20000001248E+02 0.  0.
        -12    1    1    2    0    0  0.52917377749E+01  0.28965223803E+02  0.31884738849E+02  0.43400728682E+02  0.00000000000E+00 0.  1.
         11    1    3    3    0    0 -0.20075190387E+01 -0.94682659357E+01 -0.24952101709E+02  0.26763511961E+02  0.51100000000E-03 0. -1.
        -11    1    3    3    0    0 -0.10092891350E+01 -0.55144990207E+01 -0.28030630843E+01  0.62678167589E+01  0.51100000000E-03 0.  1.
        -12    1    3    3    0    0 -0.22749296012E+01 -0.13982458847E+02 -0.41295740562E+01  0.14755942599E+02  0.00000000000E+00 0.  1.
</event>
<event>
 7    1  0.3884463E-009  0.4778727E+02  0.7816164E-02  0.1312668E+00
        -11   -1    0    0    0    0  0.00000000000E+00  0.00000000000E+00  0.45593999997E+02  0.45594000000E+02  0.51100000000E-03 0.  1.
         11   -1    0    0    0    0 -0.00000000000E+00 -0.00000000000E+00 -0.45593999997E+02  0.45594000000E+02  0.51100000000E-03 0. -1.
    9900012    2    1    2    0    0  0.38610676522E+02 -0.19736864978E+02 -0.18152131816E+01  0.47787272131E+02  0.20000004954E+02 0.  0.
        -12    1    1    2    0    0 -0.38610676522E+02  0.19736864978E+02  0.18152131816E+01  0.43400727869E+02  0.00000000000E+00 0.  1.
         11    1    3    3    0    0  0.16923809657E+02 -0.90816533190E+01  0.54979316665E+01  0.19977963189E+02  0.51100000000E-03 0. -1.
        -11    1    3    3    0    0 -0.14310682981E+01 -0.11018474284E+01 -0.68802453177E+00  0.19327188742E+01  0.51100000000E-03 0.  1.
         12    1    3    3    0    0  0.23117935163E+02 -0.95533642307E+01 -0.66251203163E+01  0.25876590068E+02  0.00000000000E+00 0. -1.
</event>
<event>
 7    1  0.3884463E-009  0.4778727E+02  0.7816164E-02  0.1312668E+00
        -11   -1    0    0    0    0  0.00000000000E+00  0.00000000000E+00  0.45593999997E+02  0.45594000000E+02  0.51100000000E-03 0.  1.
         11   -1    0    0    0    0 -0.00000000000E+00 -0.00000000000E+00 -0.45593999997E+02  0.45594000000E+02  0.51100000000E-03 0. -1.
    9900012    2    1    2    0    0 -0.11289853474E+02 -0.19409793976E+02 -0.37140576179E+02  0.47787270829E+02  0.19999999018E+02 0.  0.
        -12    1    1    2    0    0  0.11289853474E+02  0.19409793976E+02  0.37140576179E+02  0.43400729171E+02  0.00000000000E+00 0.  1.
         11    1    3    3    0    0  0.30871698100E+01  0.66894943503E+00 -0.19516218311E+01  0.37130767316E+01  0.51100000000E-03 0. -1.
        -11    1    3    3    0    0 -0.62272528352E+01 -0.22548218636E+01 -0.12054103013E+02  0.13753701291E+02  0.51100000000E-03 0.  1.
         12    1    3    3    0    0 -0.81497704490E+01 -0.17823921547E+02 -0.23134851335E+02  0.30320492806E+02  0.00000000000E+00 0. -1.
</event>
<event>
 7    1  0.3884463E-009  0.4778727E+02  0.7816164E-02  0.1312668E+00
        -11   -1    0    0    0    0  0.00000000000E+00  0.00000000000E+00  0.45593999997E+02  0.45594000000E+02  0.51100000000E-03 0. -1.
         11   -1    0    0    0    0 -0.00000000000E+00 -0.00000000000E+00 -0.45593999997E+02  0.45594000000E+02  0.51100000000E-03 0.  1.
    9900012    2    1    2    0    0  0.22335097765E+02  0.80569106944E+01  0.36329780320E+02  0.47787270280E+02  0.19999996515E+02 0.  0.
        -12    1    1    2    0    0 -0.22335097765E+02 -0.80569106944E+01 -0.36329780320E+02  0.43400729720E+02  0.00000000000E+00 0.  1.
         11    1    3    3    0    0  0.23701001939E+01  0.53493408821E+01  0.34450608058E+01  0.67897913826E+01  0.51100000000E-03 0. -1.
        -11    1    3    3    0    0 -0.75260786002E+00  0.22180478911E+01  0.27268466854E+00  0.23580738385E+01  0.51100000000E-03 0.  1.
         12    1    3    3    0    0  0.20717605431E+02  0.48952192114E+00  0.32612034846E+02  0.38639405059E+02  0.00000000000E+00 0. -1.
</event>
<event>
 7    1  0.3884463E-009  0.4778727E+02  0.7816164E-02  0.1312668E+00
        -11   -1    0    0    0    0  0.00000000000E+00  0.00000000000E+00  0.45593999997E+02  0.45594000000E+02  0.51100000000E-03 0.  1.
         11   -1    0    0    0    0 -0.00000000000E+00 -0.00000000000E+00 -0.45593999997E+02  0.45594000000E+02  0.51100000000E-03 0. -1.
    9900012    2    1    2    0    0  0.10929124220E+02 -0.39713764689E+02 -0.13674590054E+02  0.47787271030E+02  0.19999999933E+02 0.  0.
        -12    1    1    2    0    0 -0.10929124220E+02  0.39713764689E+02  0.13674590054E+02  0.43400728970E+02  0.00000000000E+00 0.  1.
         11    1    3    3    0    0  0.31164007822E+01 -0.12554151576E+01 -0.15553903223E+00  0.33633634512E+01  0.51100000000E-03 0.  1.
        -11    1    3    3    0    0  0.25925195731E+01 -0.18093762966E+02 -0.14569484154E+02  0.23374671865E+02  0.51100000000E-03 0. -1.
        -12    1    3    3    0    0  0.52202038647E+01 -0.20364586565E+02  0.10504331324E+01  0.21049235714E+02  0.00000000000E+00 0.  1.
</event>
<event>
 7    1  0.3884463E-009  0.4778728E+02  0.7816164E-02  0.1312668E+00
        -11   -1    0    0    0    0  0.00000000000E+00  0.00000000000E+00  0.45593999997E+02  0.45594000000E+02  0.51100000000E-03 0.  1.
         11   -1    0    0    0    0 -0.00000000000E+00 -0.00000000000E+00 -0.45593999997E+02  0.45594000000E+02  0.51100000000E-03 0. -1.
    9900012    2    1    2    0    0  0.34791425872E+02  0.79237174408E+01 -0.24706157954E+02  0.47787275891E+02  0.20000022098E+02 0.  0.
        -12    1    1    2    0    0 -0.34791425872E+02 -0.79237174408E+01  0.24706157954E+02  0.43400724109E+02  0.00000000000E+00 0.  1.
         11    1    3    3    0    0  0.24151914455E+02  0.78371560084E+01 -0.11817317120E+02  0.28006873626E+02  0.51100000000E-03 0. -1.
        -11    1    3    3    0    0  0.38016823090E+01  0.49656413530E+01 -0.34398627079E+01  0.71374391861E+01  0.51100000000E-03 0.  1.
        -12    1    3    3    0    0  0.68378291086E+01 -0.48790799205E+01 -0.94489781265E+01  0.12642963079E+02  0.00000000000E+00 0.  1.
</event>
<event>
 7    1  0.3884463E-009  0.4778727E+02  0.7816164E-02  0.1312668E+00
        -11   -1    0    0    0    0  0.00000000000E+00  0.00000000000E+00  0.45593999997E+02  0.45594000000E+02  0.51100000000E-03 0.  1.
         11   -1    0    0    0    0 -0.00000000000E+00 -0.00000000000E+00 -0.45593999997E+02  0.45594000000E+02  0.51100000000E-03 0. -1.
    9900012    2    1    2    0    0  0.95263275357E+01 -0.30737505910E+02 -0.29121782475E+02  0.47787269587E+02  0.19999993354E+02 0.  0.
        -12    1    1    2    0    0 -0.95263275357E+01  0.30737505910E+02  0.29121782475E+02  0.43400730413E+02  0.00000000000E+00 0.  1.
         11    1    3    3    0    0 -0.98705266183E+00  0.55317641502E+00 -0.20688903918E+01  0.23580892303E+01  0.51100000000E-03 0. -1.
        -11    1    3    3    0    0 -0.14297123287E+01  0.11980835413E+01 -0.10957311472E+01  0.21633558475E+01  0.51100000000E-03 0.  1.
         12    1    3    3    0    0  0.11943092526E+02 -0.32488765866E+02 -0.25957160936E+02  0.43265824509E+02  0.00000000000E+00 0. -1.
</event>
<event>
 7    1  0.3884463E-009  0.4778727E+02  0.7816164E-02  0.1312668E+00
        -11   -1    0    0    0    0  0.00000000000E+00  0.00000000000E+00  0.45593999997E+02  0.45594000000E+02  0.51100000000E-03 0.  1.
         11   -1    0    0    0    0 -0.00000000000E+00 -0.00000000000E+00 -0.45593999997E+02  0.45594000000E+02  0.51100000000E-03 0. -1.
    9900012    2    1    2    0    0  0.41109275512E+02 -0.95792861729E+01 -0.10093969672E+02  0.47787268665E+02  0.19999989151E+02 0.  0.
        -12    1    1    2    0    0 -0.41109275512E+02  0.95792861729E+01  0.10093969672E+02  0.43400731335E+02  0.00000000000E+00 0.  1.
         11    1    3    3    0    0  0.17535564345E+02  0.13671637960E+01 -0.35108001416E+01  0.17935742851E+02  0.51100000000E-03 0. -1.
        -11    1    3    3    0    0  0.18416851932E+02 -0.71860440606E+01  0.11767222108E+01  0.19804149559E+02  0.51100000000E-03 0.  1.
        -12    1    3    3    0    0  0.51568592345E+01 -0.37604059083E+01 -0.77598917412E+01  0.10047376254E+02  0.00000000000E+00 0.  1.
</event>
<event>
 7    1  0.3884463E-009  0.4778727E+02  0.7816164E-02  0.1312668E+00
        -11   -1    0    0    0    0  0.00000000000E+00  0.00000000000E+00  0.45593999997E+02  0.45594000000E+02  0.51100000000E-03 0. -1.
         11   -1    0    0    0    0 -0.00000000000E+00 -0.00000000000E+00 -0.45593999997E+02  0.45594000000E+02  0.51100000000E-03 0.  1.
    9900012    2    1    2    0    0  0.18642923849E+02 -0.25871283522E+02  0.29440474892E+02  0.47787268640E+02  0.19999989038E+02 0.  0.
        -12    1    1    2    0    0 -0.18642923849E+02  0.25871283522E+02 -0.29440474892E+02  0.43400731360E+02  0.00000000000E+00 0.  1.
         11    1    3    3    0    0  0.95780736652E+01 -0.79466648113E+01  0.13620909007E+02  0.18450423822E+02  0.51100000000E-03 0. -1.
        -11    1    3    3    0    0 -0.28117469026E+01 -0.14660183699E+01 -0.60398777498E+00  0.32279919453E+01  0.51100000000E-03 0.  1.
        -12    1    3    3    0    0  0.11876597086E+02 -0.16458600341E+02  0.16423553659E+02  0.26108852873E+02  0.00000000000E+00 0.  1.
</event>
<event>
 7    1  0.3884463E-009  0.4778727E+02  0.7816164E-02  0.1312668E+00
        -11   -1    0    0    0    0  0.00000000000E+00  0.00000000000E+00  0.45593999997E+02  0.45594000000E+02  0.51100000000E-03 0. -1.
         11   -1    0    0    0    0 -0.00000000000E+00 -0.00000000000E+00 -0.45593999997E+02  0.45594000000E+02  0.51100000000E-03 0.  1.
    9900012    2    1    2    0    0 -0.39682321398E+02 -0.28796327750E+01  0.17339095699E+02  0.47787272402E+02  0.20000006188E+02 0.  0.
        -12    1    1    2    0    0  0.39682321398E+02  0.28796327750E+01 -0.17339095699E+02  0.43400727598E+02  0.00000000000E+00 0.  1.
         11    1    3    3    0    0 -0.15596875703E+02 -0.33650721692E+01  0.10474239529E+02  0.19086538093E+02  0.51100000000E-03 0. -1.
        -11    1    3    3    0    0 -0.20804517475E+02 -0.49195795967E+01  0.65938355196E+01  0.22372055737E+02  0.51100000000E-03 0.  1.
        -12    1    3    3    0    0 -0.32809282188E+01  0.54050189908E+01  0.27102065033E+00  0.63286785715E+01  0.00000000000E+00 0.  1.
</event>
<event>
 7    1  0.3884463E-009  0.4778727E+02  0.7816164E-02  0.1312668E+00
        -11   -1    0    0    0    0  0.00000000000E+00  0.00000000000E+00  0.45593999997E+02  0.45594000000E+02  0.51100000000E-03 0.  1.
         11   -1    0    0    0    0 -0.00000000000E+00 -0.00000000000E+00 -0.45593999997E+02  0.45594000000E+02  0.51100000000E-03 0. -1.
    9900012    2    1    2    0    0 -0.20358647790E+02 -0.33472951160E+02 -0.18673792227E+02  0.47787268263E+02  0.19999987316E+02 0.  0.
        -12    1    1    2    0    0  0.20358647790E+02  0.33472951160E+02  0.18673792227E+02  0.43400731737E+02  0.00000000000E+00 0.  1.
         11    1    3    3    0    0 -0.27963220836E+01 -0.71572989093E+01 -0.81300428696E+01  0.11186775326E+02  0.51100000000E-03 0. -1.
        -11    1    3    3    0    0 -0.28599632188E+01 -0.16468065788E+02 -0.86034574562E+01  0.18798831370E+02  0.51100000000E-03 0.  1.
         12    1    3    3    0    0 -0.14702362488E+02 -0.98475864627E+01 -0.19402919008E+01  0.17801661566E+02  0.00000000000E+00 0. -1.
</event>
<event>
 7    1  0.3884463E-009  0.4778728E+02  0.7816164E-02  0.1312668E+00
        -11   -1    0    0    0    0  0.00000000000E+00  0.00000000000E+00  0.45593999997E+02  0.45594000000E+02  0.51100000000E-03 0.  1.
         11   -1    0    0    0    0 -0.00000000000E+00 -0.00000000000E+00 -0.45593999997E+02  0.45594000000E+02  0.51100000000E-03 0. -1.
    9900012    2    1    2    0    0  0.39893718225E+02  0.16847927657E+02 -0.28742577796E+01  0.47787276758E+02  0.20000026051E+02 0.  0.
        -12    1    1    2    0    0 -0.39893718225E+02 -0.16847927657E+02  0.28742577796E+01  0.43400723242E+02  0.00000000000E+00 0.  1.
         11    1    3    3    0    0  0.72646896808E+01  0.44021976523E+01 -0.67136259815E+01  0.10827180354E+02  0.51100000000E-03 0. -1.
        -11    1    3    3    0    0  0.80702215822E+00 -0.46753986937E+00 -0.19234529435E+01  0.21376505281E+01  0.51100000000E-03 0.  1.
         12    1    3    3    0    0  0.31822006386E+02  0.12913269874E+02  0.57628211455E+01  0.34822445876E+02  0.00000000000E+00 0. -1.
</event>
<event>
 7    1  0.3884463E-009  0.4778727E+02  0.7816164E-02  0.1312668E+00
        -11   -1    0    0    0    0  0.00000000000E+00  0.00000000000E+00  0.45593999997E+02  0.45594000000E+02  0.51100000000E-03 0.  1.
         11   -1    0    0    0    0 -0.00000000000E+00 -0.00000000000E+00 -0.45593999997E+02  0.45594000000E+02  0.51100000000E-03 0. -1.
    9900012    2    1    2    0    0 -0.33768638713E+02  0.13087837879E+02 -0.23916746811E+02  0.47787271447E+02  0.20000001837E+02 0.  0.
        -12    1    1    2    0    0  0.33768638713E+02 -0.13087837879E+02  0.23916746811E+02  0.43400728553E+02  0.00000000000E+00 0.  1.
         11    1    3    3    0    0 -0.11006980241E+02  0.26046709815E+01 -0.10411468941E+02  0.15373243337E+02  0.51100000000E-03 0. -1.
        -11    1    3    3    0    0  0.20335674850E+01  0.10041858493E+01 -0.32358077836E+01  0.39514855699E+01  0.51100000000E-03 0.  1.
        -12    1    3    3    0    0 -0.24795225957E+02  0.94789810481E+01 -0.10269470087E+02  0.28462542540E+02  0.00000000000E+00 0.  1.
</event>
<event>
 7    1  0.3884463E-009  0.4778727E+02  0.7816164E-02  0.1312668E+00
        -11   -1    0    0    0    0  0.00000000000E+00  0.00000000000E+00  0.45593999997E+02  0.45594000000E+02  0.51100000000E-03 0.  1.
         11   -1    0    0    0    0 -0.00000000000E+00 -0.00000000000E+00 -0.45593999997E+02  0.45594000000E+02  0.51100000000E-03 0. -1.
    9900012    2    1    2    0    0 -0.56425600931E+01  0.26578619262E+02 -0.33843192827E+02  0.47787272045E+02  0.20000004564E+02 0.  0.
        -12    1    1    2    0    0  0.56425600931E+01 -0.26578619262E+02  0.33843192827E+02  0.43400727955E+02  0.00000000000E+00 0.  1.
         11    1    3    3    0    0 -0.47137597450E+01  0.79062608043E+01 -0.16836868440E+02  0.19188763117E+02  0.51100000000E-03 0. -1.
        -11    1    3    3    0    0  0.91944348607E+00 -0.20191875697E+01 -0.16373625379E+01  0.27574356035E+01  0.51100000000E-03 0.  1.
        -12    1    3    3    0    0 -0.18482438341E+01  0.20691546027E+02 -0.15368961850E+02  0.25841073325E+02  0.00000000000E+00 0.  1.
</event>
<event>
 7    1  0.3884463E-009  0.4778727E+02  0.7816164E-02  0.1312668E+00
        -11   -1    0    0    0    0  0.00000000000E+00  0.00000000000E+00  0.45593999997E+02  0.45594000000E+02  0.51100000000E-03 0.  1.
         11   -1    0    0    0    0 -0.00000000000E+00 -0.00000000000E+00 -0.45593999997E+02  0.45594000000E+02  0.51100000000E-03 0. -1.
    9900012    2    1    2    0    0  0.24712873244E+02  0.27103924623E+02 -0.23200741576E+02  0.47787271393E+02  0.20000001589E+02 0.  0.
        -12    1    1    2    0    0 -0.24712873244E+02 -0.27103924623E+02  0.23200741576E+02  0.43400728607E+02  0.00000000000E+00 0.  1.
         11    1    3    3    0    0  0.20487953938E+01  0.10363074052E+02 -0.42040692462E+01  0.11369479534E+02  0.51100000000E-03 0. -1.
        -11    1    3    3    0    0  0.25367349671E+01 -0.10602285178E+01  0.99796338166E+00  0.29248999941E+01  0.51100000000E-03 0.  1.
         12    1    3    3    0    0  0.20127342883E+02  0.17801079089E+02 -0.19994635711E+02  0.33492891865E+02  0.00000000000E+00 0. -1.
</event>
<event>
 7    1  0.3884463E-009  0.4778727E+02  0.7816164E-02  0.1312668E+00
        -11   -1    0    0    0    0  0.00000000000E+00  0.00000000000E+00  0.45593999997E+02  0.45594000000E+02  0.51100000000E-03 0.  1.
         11   -1    0    0    0    0 -0.00000000000E+00 -0.00000000000E+00 -0.45593999997E+02  0.45594000000E+02  0.51100000000E-03 0. -1.
    9900012    2    1    2    0    0  0.58376100710E+01  0.25594598606E+02 -0.34560995445E+02  0.47787267572E+02  0.19999984166E+02 0.  0.
        -12    1    1    2    0    0 -0.58376100710E+01 -0.25594598606E+02  0.34560995445E+02  0.43400732428E+02  0.00000000000E+00 0.  1.
         11    1    3    3    0    0  0.52697775380E+01  0.26296368773E+02 -0.22077457431E+02  0.34737352991E+02  0.51100000000E-03 0. -1.
        -11    1    3    3    0    0  0.17876652329E+01  0.19986509271E+00 -0.34588339525E+01  0.38986184236E+01  0.51100000000E-03 0.  1.
         12    1    3    3    0    0 -0.12198327000E+01 -0.90163525931E+00 -0.90247040612E+01  0.91512961567E+01  0.00000000000E+00 0. -1.
</event>
<event>
 7    1  0.3884463E-009  0.4778727E+02  0.7816164E-02  0.1312668E+00
        -11   -1    0    0    0    0  0.00000000000E+00  0.00000000000E+00  0.45593999997E+02  0.45594000000E+02  0.51100000000E-03 0.  1.
         11   -1    0    0    0    0 -0.00000000000E+00 -0.00000000000E+00 -0.45593999997E+02  0.45594000000E+02  0.51100000000E-03 0. -1.
    9900012    2    1    2    0    0 -0.34714969098E+02 -0.16164973381E+02 -0.20425179133E+02  0.47787269747E+02  0.19999994082E+02 0.  0.
        -12    1    1    2    0    0  0.34714969098E+02  0.16164973381E+02  0.20425179133E+02  0.43400730253E+02  0.00000000000E+00 0.  1.
         11    1    3    3    0    0 -0.88829690091E+01 -0.50183770794E+01 -0.12010391412E+02  0.15758830828E+02  0.51100000000E-03 0. -1.
        -11    1    3    3    0    0 -0.73661532631E+01 -0.34547492072E+01 -0.88478108737E+01  0.12019952724E+02  0.51100000000E-03 0.  1.
         12    1    3    3    0    0 -0.18465846826E+02 -0.76918470940E+01  0.43302315267E+00  0.20008486194E+02  0.00000000000E+00 0. -1.
</event>
<event>
 7    1  0.3884463E-009  0.4778727E+02  0.7816164E-02  0.1312668E+00
        -11   -1    0    0    0    0  0.00000000000E+00  0.00000000000E+00  0.45593999997E+02  0.45594000000E+02  0.51100000000E-03 0. -1.
         11   -1    0    0    0    0 -0.00000000000E+00 -0.00000000000E+00 -0.45593999997E+02  0.45594000000E+02  0.51100000000E-03 0.  1.
    9900012    2    1    2    0    0  0.13367502819E+02  0.39086069145E+02 -0.13312119007E+02  0.47787269070E+02  0.19999990997E+02 0.  0.
        -12    1    1    2    0    0 -0.13367502819E+02 -0.39086069145E+02  0.13312119007E+02  0.43400730930E+02  0.00000000000E+00 0.  1.
         11    1    3    3    0    0  0.16242520573E+02  0.23402061476E+02 -0.13439573358E+02  0.31497588609E+02  0.51100000000E-03 0. -1.
        -11    1    3    3    0    0 -0.18541111341E+01  0.11002246187E+02 -0.14357251212E+01  0.11249375811E+02  0.51100000000E-03 0.  1.
         12    1    3    3    0    0 -0.10209066198E+01  0.46817614814E+01  0.15631794716E+01  0.50403046491E+01  0.00000000000E+00 0. -1.
</event>
<event>
 7    1  0.3884463E-009  0.4778727E+02  0.7816164E-02  0.1312668E+00
        -11   -1    0    0    0    0  0.00000000000E+00  0.00000000000E+00  0.45593999997E+02  0.45594000000E+02  0.51100000000E-03 0. -1.
         11   -1    0    0    0    0 -0.00000000000E+00 -0.00000000000E+00 -0.45593999997E+02  0.45594000000E+02  0.51100000000E-03 0.  1.
    9900012    2    1    2    0    0  0.41254076408E+02  0.67228912427E+01  0.11684482709E+02  0.47787271629E+02  0.20000002667E+02 0.  0.
        -12    1    1    2    0    0 -0.41254076408E+02 -0.67228912427E+01 -0.11684482709E+02  0.43400728371E+02  0.00000000000E+00 0.  1.
         11    1    3    3    0    0  0.73376129015E+01 -0.29480448887E+01  0.31211315696E+01  0.85013524979E+01  0.51100000000E-03 0. -1.
        -11    1    3    3    0    0  0.21270670653E+02  0.29862764514E+01  0.11959611947E+02  0.24584377057E+02  0.51100000000E-03 0.  1.
        -12    1    3    3    0    0  0.12645792853E+02  0.66846596799E+01 -0.33962608070E+01  0.14701542075E+02  0.00000000000E+00 0.  1.
</event>
<event>
 7    1  0.4042487E-009  0.4778728E+02  0.7816164E-02  0.1312668E+00
        -11   -1    0    0    0    0  0.00000000000E+00  0.00000000000E+00  0.45593999997E+02  0.45594000000E+02  0.51100000000E-03 0.  1.
         11   -1    0    0    0    0 -0.00000000000E+00 -0.00000000000E+00 -0.45593999997E+02  0.45594000000E+02  0.51100000000E-03 0. -1.
    9900012    2    1    2    0    0 -0.19552904873E+02 -0.38613729156E+02  0.32072868473E+01  0.47787275845E+02  0.20000021886E+02 0.  0.
        -12    1    1    2    0    0  0.19552904873E+02  0.38613729156E+02 -0.32072868473E+01  0.43400724155E+02  0.00000000000E+00 0.  1.
         11    1    3    3    0    0 -0.15494495685E+02 -0.26864030728E+02  0.62906271272E+01  0.31643759786E+02  0.51100000000E-03 0.  1.
        -11    1    3    3    0    0 -0.76498209637E+00 -0.12405272894E+02 -0.29936151915E+01  0.12784276490E+02  0.51100000000E-03 0. -1.
        -12    1    3    3    0    0 -0.32934270915E+01  0.65557446648E+00 -0.89725088341E-01  0.33592395686E+01  0.00000000000E+00 0.  1.
</event>
<event>
 7    1  0.3884463E-009  0.4778727E+02  0.7816164E-02  0.1312668E+00
        -11   -1    0    0    0    0  0.00000000000E+00  0.00000000000E+00  0.45593999997E+02  0.45594000000E+02  0.51100000000E-03 0.  1.
         11   -1    0    0    0    0 -0.00000000000E+00 -0.00000000000E+00 -0.45593999997E+02  0.45594000000E+02  0.51100000000E-03 0. -1.
    9900012    2    1    2    0    0 -0.43053808837E+02  0.42706855572E+01 -0.34284145935E+01  0.47787271468E+02  0.20000001931E+02 0.  0.
        -12    1    1    2    0    0  0.43053808837E+02 -0.42706855572E+01  0.34284145935E+01  0.43400728532E+02  0.00000000000E+00 0.  1.
         11    1    3    3    0    0 -0.26759298507E+02  0.22939648627E+01 -0.38669242670E+01  0.27134395791E+02  0.51100000000E-03 0. -1.
        -11    1    3    3    0    0 -0.78141540507E+01  0.39783676291E+01 -0.52753084810E+01  0.10233146747E+02  0.51100000000E-03 0.  1.
         12    1    3    3    0    0 -0.84803562790E+01 -0.20016469346E+01  0.57138181545E+01  0.10419728930E+02  0.00000000000E+00 0. -1.
</event>
<event>
 7    1  0.3884463E-009  0.4778727E+02  0.7816164E-02  0.1312668E+00
        -11   -1    0    0    0    0  0.00000000000E+00  0.00000000000E+00  0.45593999997E+02  0.45594000000E+02  0.51100000000E-03 0.  1.
         11   -1    0    0    0    0 -0.00000000000E+00 -0.00000000000E+00 -0.45593999997E+02  0.45594000000E+02  0.51100000000E-03 0. -1.
    9900012    2    1    2    0    0 -0.31737676889E+02 -0.16036743364E+02  0.24883053508E+02  0.47787267012E+02  0.19999981614E+02 0.  0.
        -12    1    1    2    0    0  0.31737676889E+02  0.16036743364E+02 -0.24883053508E+02  0.43400732988E+02  0.00000000000E+00 0.  1.
         11    1    3    3    0    0 -0.12058968037E+02 -0.28995182961E+00  0.41664076265E+01  0.12761729309E+02  0.51100000000E-03 0. -1.
        -11    1    3    3    0    0 -0.17384412529E+01  0.15406091254E+01  0.51462942719E+01  0.56462376377E+01  0.51100000000E-03 0.  1.
         12    1    3    3    0    0 -0.17940267599E+02 -0.17287400660E+02  0.15570351609E+02  0.29379300066E+02  0.00000000000E+00 0. -1.
</event>
<event>
 7    1  0.3884463E-009  0.4778728E+02  0.7816164E-02  0.1312668E+00
        -11   -1    0    0    0    0  0.00000000000E+00  0.00000000000E+00  0.45593999997E+02  0.45594000000E+02  0.51100000000E-03 0.  1.
         11   -1    0    0    0    0 -0.00000000000E+00 -0.00000000000E+00 -0.45593999997E+02  0.45594000000E+02  0.51100000000E-03 0. -1.
    9900012    2    1    2    0    0  0.27099107192E+02  0.42742815958E+01 -0.33630215069E+02  0.47787280428E+02  0.20000042783E+02 0.  0.
        -12    1    1    2    0    0 -0.27099107192E+02 -0.42742815958E+01  0.33630215069E+02  0.43400719572E+02  0.00000000000E+00 0.  1.
         11    1    3    3    0    0  0.10090931792E+02  0.58347898725E+01 -0.21150573139E+02  0.24149915563E+02  0.51100000000E-03 0. -1.
        -11    1    3    3    0    0  0.49550201740E+01 -0.38617584139E+01 -0.88272382269E+01  0.10834460667E+02  0.51100000000E-03 0.  1.
        -12    1    3    3    0    0  0.12053155226E+02  0.23012501372E+01 -0.36524037027E+01  0.12802904198E+02  0.00000000000E+00 0.  1.
</event>
<event>
 7    1  0.3884463E-009  0.4778727E+02  0.7816164E-02  0.1312668E+00
        -11   -1    0    0    0    0  0.00000000000E+00  0.00000000000E+00  0.45593999997E+02  0.45594000000E+02  0.51100000000E-03 0. -1.
         11   -1    0    0    0    0 -0.00000000000E+00 -0.00000000000E+00 -0.45593999997E+02  0.45594000000E+02  0.51100000000E-03 0.  1.
    9900012    2    1    2    0    0  0.69186009770E+01  0.76043053918E+01  0.42165517695E+02  0.47787269794E+02  0.19999994298E+02 0.  0.
        -12    1    1    2    0    0 -0.69186009770E+01 -0.76043053918E+01 -0.42165517695E+02  0.43400730206E+02  0.00000000000E+00 0.  1.
         11    1    3    3    0    0  0.50816442923E+01  0.10030653120E+02  0.16939363210E+02  0.20331727348E+02  0.51100000000E-03 0. -1.
        -11    1    3    3    0    0  0.10007240379E+01  0.23343350949E+01  0.20629527594E+02  0.20785282725E+02  0.51100000000E-03 0.  1.
        -12    1    3    3    0    0  0.83623264691E+00 -0.47606828228E+01  0.45966268903E+01  0.66702597211E+01  0.00000000000E+00 0.  1.
</event>
<event>
 7    1  0.3884463E-009  0.4778727E+02  0.7816164E-02  0.1312668E+00
        -11   -1    0    0    0    0  0.00000000000E+00  0.00000000000E+00  0.45593999997E+02  0.45594000000E+02  0.51100000000E-03 0.  1.
         11   -1    0    0    0    0 -0.00000000000E+00 -0.00000000000E+00 -0.45593999997E+02  0.45594000000E+02  0.51100000000E-03 0. -1.
    9900012    2    1    2    0    0  0.42520327515E+02 -0.34447515498E+01  0.79861810898E+01  0.47787266669E+02  0.19999980052E+02 0.  0.
        -12    1    1    2    0    0 -0.42520327515E+02  0.34447515498E+01 -0.79861810898E+01  0.43400733331E+02  0.00000000000E+00 0.  1.
         11    1    3    3    0    0  0.21094751737E+02 -0.37803332384E+01  0.25700078074E+01  0.21584355692E+02  0.51100000000E-03 0. -1.
        -11    1    3    3    0    0  0.31722575516E+01 -0.56040371343E+01  0.15046180134E+01  0.66130420991E+01  0.51100000000E-03 0.  1.
         12    1    3    3    0    0  0.18253318226E+02  0.59396188229E+01  0.39115552690E+01  0.19589868878E+02  0.00000000000E+00 0. -1.
</event>
<event>
 7    1  0.3884463E-009  0.4778728E+02  0.7816164E-02  0.1312668E+00
        -11   -1    0    0    0    0  0.00000000000E+00  0.00000000000E+00  0.45593999997E+02  0.45594000000E+02  0.51100000000E-03 0.  1.
         11   -1    0    0    0    0 -0.00000000000E+00 -0.00000000000E+00 -0.45593999997E+02  0.45594000000E+02  0.51100000000E-03 0. -1.
    9900012    2    1    2    0    0  0.34038874036E+02  0.20336155064E+02 -0.17647056225E+02  0.47787277174E+02  0.20000027947E+02 0.  0.
        -12    1    1    2    0    0 -0.34038874036E+02 -0.20336155064E+02  0.17647056225E+02  0.43400722826E+02  0.00000000000E+00 0.  1.
         11    1    3    3    0    0  0.18946054092E+01 -0.28644301325E+01 -0.19015748358E+01  0.39256180097E+01  0.51100000000E-03 0. -1.
        -11    1    3    3    0    0  0.25041798014E+01 -0.43974794522E-01 -0.33993918811E+01  0.42224063853E+01  0.51100000000E-03 0.  1.
        -12    1    3    3    0    0  0.29640088825E+02  0.23244559991E+02 -0.12346089508E+02  0.39639252779E+02  0.00000000000E+00 0.  1.
</event>
<event>
 7    1  0.3884463E-009  0.4778727E+02  0.7816164E-02  0.1312668E+00
        -11   -1    0    0    0    0  0.00000000000E+00  0.00000000000E+00  0.45593999997E+02  0.45594000000E+02  0.51100000000E-03 0.  1.
         11   -1    0    0    0    0 -0.00000000000E+00 -0.00000000000E+00 -0.45593999997E+02  0.45594000000E+02  0.51100000000E-03 0. -1.
    9900012    2    1    2    0    0  0.38863996035E+02  0.26936595559E+01 -0.19130003873E+02  0.47787273764E+02  0.20000012401E+02 0.  0.
        -12    1    1    2    0    0 -0.38863996035E+02 -0.26936595559E+01  0.19130003873E+02  0.43400726236E+02  0.00000000000E+00 0.  1.
         11    1    3    3    0    0  0.12920348852E+02 -0.10966569230E+01 -0.28625210180E+01  0.13279009666E+02  0.51100000000E-03 0. -1.
        -11    1    3    3    0    0  0.15402459163E+02  0.50425203603E+01 -0.14373867993E+01  0.16270489880E+02  0.51100000000E-03 0.  1.
         12    1    3    3    0    0  0.10541188020E+02 -0.12522038814E+01 -0.14830096056E+02  0.18237774219E+02  0.00000000000E+00 0. -1.
</event>
<event>
 7    1  0.3884463E-009  0.4778727E+02  0.7816164E-02  0.1312668E+00
        -11   -1    0    0    0    0  0.00000000000E+00  0.00000000000E+00  0.45593999997E+02  0.45594000000E+02  0.51100000000E-03 0.  1.
         11   -1    0    0    0    0 -0.00000000000E+00 -0.00000000000E+00 -0.45593999997E+02  0.45594000000E+02  0.51100000000E-03 0. -1.
    9900012    2    1    2    0    0 -0.30625407159E+02  0.12619594867E+02 -0.28043779360E+02  0.47787270755E+02  0.19999998679E+02 0.  0.
        -12    1    1    2    0    0  0.30625407159E+02 -0.12619594867E+02  0.28043779360E+02  0.43400729245E+02  0.00000000000E+00 0.  1.
         11    1    3    3    0    0  0.15571386383E+00  0.71723103236E+01 -0.47538566559E+01  0.86061277908E+01  0.51100000000E-03 0. -1.
        -11    1    3    3    0    0 -0.37074334198E+01  0.13600864326E+01 -0.16425764246E+01  0.42770264482E+01  0.51100000000E-03 0.  1.
         12    1    3    3    0    0 -0.27073687603E+02  0.40871981106E+01 -0.21647346279E+02  0.34904116516E+02  0.00000000000E+00 0. -1.
</event>
<event>
 7    1  0.3884463E-009  0.4778727E+02  0.7816164E-02  0.1312668E+00
        -11   -1    0    0    0    0  0.00000000000E+00  0.00000000000E+00  0.45593999997E+02  0.45594000000E+02  0.51100000000E-03 0.  1.
         11   -1    0    0    0    0 -0.00000000000E+00 -0.00000000000E+00 -0.45593999997E+02  0.45594000000E+02  0.51100000000E-03 0. -1.
    9900012    2    1    2    0    0  0.10602828560E+02  0.10442847983E+02 -0.40769478466E+02  0.47787269339E+02  0.19999992226E+02 0.  0.
        -12    1    1    2    0    0 -0.10602828560E+02 -0.10442847983E+02  0.40769478466E+02  0.43400730661E+02  0.00000000000E+00 0.  1.
         11    1    3    3    0    0  0.31743782894E+01  0.61442671737E+01 -0.20998427460E+02  0.22107977128E+02  0.51100000000E-03 0. -1.
        -11    1    3    3    0    0  0.75519504251E+01  0.27461626701E+01 -0.21734955958E+02  0.23172865067E+02  0.51100000000E-03 0.  1.
        -12    1    3    3    0    0 -0.12350015473E+00  0.15524181396E+01  0.19639049525E+01  0.25064271445E+01  0.00000000000E+00 0.  1.
</event>
<event>
 7    1  0.3884463E-009  0.4778727E+02  0.7816164E-02  0.1312668E+00
        -11   -1    0    0    0    0  0.00000000000E+00  0.00000000000E+00  0.45593999997E+02  0.45594000000E+02  0.51100000000E-03 0.  1.
         11   -1    0    0    0    0 -0.00000000000E+00 -0.00000000000E+00 -0.45593999997E+02  0.45594000000E+02  0.51100000000E-03 0. -1.
    9900012    2    1    2    0    0 -0.20095619887E+02  0.24207563819E+02 -0.29896204092E+02  0.47787273003E+02  0.20000008932E+02 0.  0.
        -12    1    1    2    0    0  0.20095619887E+02 -0.24207563819E+02  0.29896204092E+02  0.43400726997E+02  0.00000000000E+00 0.  1.
         11    1    3    3    0    0 -0.13562100366E+02  0.20055662505E+02 -0.28049145329E+02  0.37052863841E+02  0.51100000000E-03 0. -1.
        -11    1    3    3    0    0 -0.36312109312E+01  0.60502504648E+01 -0.17258297787E+01  0.72642764402E+01  0.51100000000E-03 0.  1.
        -12    1    3    3    0    0 -0.29023085897E+01 -0.18983491503E+01 -0.12122898471E+00  0.34701327227E+01  0.00000000000E+00 0.  1.
</event>
<event>
 7    1  0.3884463E-009  0.4778727E+02  0.7816164E-02  0.1312668E+00
        -11   -1    0    0    0    0  0.00000000000E+00  0.00000000000E+00  0.45593999997E+02  0.45594000000E+02  0.51100000000E-03 0.  1.
         11   -1    0    0    0    0 -0.00000000000E+00 -0.00000000000E+00 -0.45593999997E+02  0.45594000000E+02  0.51100000000E-03 0. -1.
    9900012    2    1    2    0    0 -0.33157758318E+02  0.25874249308E+02 -0.10710253653E+02  0.47787271351E+02  0.20000001400E+02 0.  0.
        -12    1    1    2    0    0  0.33157758318E+02 -0.25874249308E+02  0.10710253653E+02  0.43400728649E+02  0.00000000000E+00 0.  1.
         11    1    3    3    0    0 -0.15602273492E+01  0.13143244602E+00 -0.44683339130E+01  0.47347219653E+01  0.51100000000E-03 0. -1.
        -11    1    3    3    0    0  0.64310625871E+00  0.31428247870E+01 -0.15200291050E+00  0.32115476717E+01  0.51100000000E-03 0.  1.
         12    1    3    3    0    0 -0.32240637228E+02  0.22599992075E+02 -0.60899168290E+01  0.39841001714E+02  0.00000000000E+00 0. -1.
</event>
<event>
 7    1  0.3884463E-009  0.4778727E+02  0.7816164E-02  0.1312668E+00
        -11   -1    0    0    0    0  0.00000000000E+00  0.00000000000E+00  0.45593999997E+02  0.45594000000E+02  0.51100000000E-03 0. -1.
         11   -1    0    0    0    0 -0.00000000000E+00 -0.00000000000E+00 -0.45593999997E+02  0.45594000000E+02  0.51100000000E-03 0.  1.
    9900012    2    1    2    0    0 -0.28321958136E+02  0.25623176117E+02 -0.20614141098E+02  0.47787270972E+02  0.19999999669E+02 0.  0.
        -12    1    1    2    0    0  0.28321958136E+02 -0.25623176117E+02  0.20614141098E+02  0.43400729028E+02  0.00000000000E+00 0.  1.
         11    1    3    3    0    0 -0.20298312526E+02  0.13439616284E+02 -0.13675564914E+02  0.27922497260E+02  0.51100000000E-03 0. -1.
        -11    1    3    3    0    0 -0.68058281410E+01  0.13380643315E+02 -0.26439239582E+01  0.15243072078E+02  0.51100000000E-03 0.  1.
        -12    1    3    3    0    0 -0.12178174693E+01 -0.11970834827E+01 -0.42946522256E+01  0.46217016338E+01  0.00000000000E+00 0.  1.
</event>
<event>
 7    1  0.3884463E-009  0.4778727E+02  0.7816164E-02  0.1312668E+00
        -11   -1    0    0    0    0  0.00000000000E+00  0.00000000000E+00  0.45593999997E+02  0.45594000000E+02  0.51100000000E-03 0.  1.
         11   -1    0    0    0    0 -0.00000000000E+00 -0.00000000000E+00 -0.45593999997E+02  0.45594000000E+02  0.51100000000E-03 0. -1.
    9900012    2    1    2    0    0 -0.16405531260E+02 -0.37554727685E+02 -0.14287205095E+02  0.47787271241E+02  0.20000000895E+02 0.  0.
        -12    1    1    2    0    0  0.16405531260E+02  0.37554727685E+02  0.14287205095E+02  0.43400728759E+02  0.00000000000E+00 0.  1.
         11    1    3    3    0    0 -0.15340829571E+02 -0.22297937344E+02 -0.77647584048E+01  0.28157246582E+02  0.51100000000E-03 0. -1.
        -11    1    3    3    0    0 -0.33266108248E+01 -0.10380738617E+02 -0.85822262172E+01  0.13873740697E+02  0.51100000000E-03 0.  1.
        -12    1    3    3    0    0  0.22619091362E+01 -0.48760517233E+01  0.20597795266E+01  0.57562839616E+01  0.00000000000E+00 0.  1.
</event>
<event>
 7    1  0.3884463E-009  0.4778728E+02  0.7816164E-02  0.1312668E+00
        -11   -1    0    0    0    0  0.00000000000E+00  0.00000000000E+00  0.45593999997E+02  0.45594000000E+02  0.51100000000E-03 0.  1.
         11   -1    0    0    0    0 -0.00000000000E+00 -0.00000000000E+00 -0.45593999997E+02  0.45594000000E+02  0.51100000000E-03 0. -1.
    9900012    2    1    2    0    0 -0.31111265990E+02  0.51283459115E+01 -0.29823009948E+02  0.47787277360E+02  0.20000028797E+02 0.  0.
        -12    1    1    2    0    0  0.31111265990E+02 -0.51283459115E+01  0.29823009948E+02  0.43400722640E+02  0.00000000000E+00 0.  1.
         11    1    3    3    0    0 -0.43874316973E+01  0.60941651150E+00 -0.57467702095E+01  0.72557779379E+01  0.51100000000E-03 0. -1.
        -11    1    3    3    0    0 -0.11543878265E+02  0.11124612457E+02 -0.12537760397E+02  0.20352237316E+02  0.51100000000E-03 0.  1.
        -12    1    3    3    0    0 -0.15179956027E+02 -0.66056830573E+01 -0.11538479342E+02  0.20179262107E+02  0.00000000000E+00 0.  1.
</event>
<event>
 7    1  0.3884463E-009  0.4778734E+02  0.7816164E-02  0.1312667E+00
        -11   -1    0    0    0    0  0.00000000000E+00  0.00000000000E+00  0.45593999997E+02  0.45594000000E+02  0.51100000000E-03 0.  1.
         11   -1    0    0    0    0 -0.00000000000E+00 -0.00000000000E+00 -0.45593999997E+02  0.45594000000E+02  0.51100000000E-03 0. -1.
    9900012    2    1    2    0    0  0.32997979308E+02 -0.26755748099E+02  0.88814931003E+01  0.47787336244E+02  0.20000297269E+02 0.  0.
        -12    1    1    2    0    0 -0.32997979308E+02  0.26755748099E+02 -0.88814931003E+01  0.43400663756E+02  0.00000000000E+00 0.  1.
         11    1    3    3    0    0  0.24146119877E+02 -0.20408408957E+02 -0.39985879772E+00  0.31618003551E+02  0.51100000000E-03 0. -1.
        -11    1    3    3    0    0  0.42217192026E+01 -0.28928908607E+01 -0.13799871923E+00  0.51196459317E+01  0.51100000000E-03 0.  1.
        -12    1    3    3    0    0  0.46301402288E+01 -0.34544482817E+01  0.94193506173E+01  0.11049686761E+02  0.00000000000E+00 0.  1.
</event>
<event>
 7    1  0.3884463E-009  0.4778727E+02  0.7816164E-02  0.1312668E+00
        -11   -1    0    0    0    0  0.00000000000E+00  0.00000000000E+00  0.45593999997E+02  0.45594000000E+02  0.51100000000E-03 0.  1.
         11   -1    0    0    0    0 -0.00000000000E+00 -0.00000000000E+00 -0.45593999997E+02  0.45594000000E+02  0.51100000000E-03 0. -1.
    9900012    2    1    2    0    0 -0.15456647076E+01  0.33193916533E+02 -0.27917704931E+02  0.47787269329E+02  0.19999992178E+02 0.  0.
        -12    1    1    2    0    0  0.15456647076E+01 -0.33193916533E+02  0.27917704931E+02  0.43400730671E+02  0.00000000000E+00 0.  1.
         11    1    3    3    0    0  0.38823461191E+01  0.87823491812E+01 -0.29995600219E+01  0.10059802638E+02  0.51100000000E-03 0. -1.
        -11    1    3    3    0    0  0.34718970801E+01  0.13537538876E+02 -0.96876027744E+01  0.17004960333E+02  0.51100000000E-03 0.  1.
        -12    1    3    3    0    0 -0.88999079068E+01  0.10874028475E+02 -0.15230542134E+02  0.20722506358E+02  0.00000000000E+00 0.  1.
</event>
<event>
 7    1  0.3884463E-009  0.4778727E+02  0.7816164E-02  0.1312668E+00
        -11   -1    0    0    0    0  0.00000000000E+00  0.00000000000E+00  0.45593999997E+02  0.45594000000E+02  0.51100000000E-03 0.  1.
         11   -1    0    0    0    0 -0.00000000000E+00 -0.00000000000E+00 -0.45593999997E+02  0.45594000000E+02  0.51100000000E-03 0. -1.
    9900012    2    1    2    0    0  0.22093201451E+02 -0.37326348564E+02 -0.15026331548E+01  0.47787265515E+02  0.19999974787E+02 0.  0.
        -12    1    1    2    0    0 -0.22093201451E+02  0.37326348564E+02  0.15026331548E+01  0.43400734485E+02  0.00000000000E+00 0.  1.
         11    1    3    3    0    0  0.25650502241E+01  0.45114811384E+00 -0.94160604664E+00  0.27694113961E+01  0.51100000000E-03 0. -1.
        -11    1    3    3    0    0  0.12466647369E+02 -0.26276245793E+02  0.64781194259E+01  0.29796382686E+02  0.51100000000E-03 0.  1.
         12    1    3    3    0    0  0.70615038579E+01 -0.11501250885E+02 -0.70391465341E+01  0.15221471433E+02  0.00000000000E+00 0. -1.
</event>
<event>
 7    1  0.3884463E-009  0.4778727E+02  0.7816164E-02  0.1312668E+00
        -11   -1    0    0    0    0  0.00000000000E+00  0.00000000000E+00  0.45593999997E+02  0.45594000000E+02  0.51100000000E-03 0.  1.
         11   -1    0    0    0    0 -0.00000000000E+00 -0.00000000000E+00 -0.45593999997E+02  0.45594000000E+02  0.51100000000E-03 0. -1.
    9900012    2    1    2    0    0 -0.86887263437E+01  0.10223193507E+01 -0.42509810400E+02  0.47787273248E+02  0.20000010046E+02 0.  0.
        -12    1    1    2    0    0  0.86887263437E+01 -0.10223193507E+01  0.42509810400E+02  0.43400726752E+02  0.00000000000E+00 0.  1.
         11    1    3    3    0    0 -0.66469660259E+01 -0.21727006015E+01 -0.89034774430E+01  0.11321426416E+02  0.51100000000E-03 0.  1.
        -11    1    3    3    0    0 -0.68653458003E+01 -0.34927410367E+00 -0.25365940506E+02  0.26280903778E+02  0.51100000000E-03 0. -1.
         12    1    3    3    0    0  0.48235854824E+01  0.35442940559E+01 -0.82403924512E+01  0.10184943054E+02  0.00000000000E+00 0. -1.
</event>
<event>
 7    1  0.3884463E-009  0.4778728E+02  0.7816164E-02  0.1312668E+00
        -11   -1    0    0    0    0  0.00000000000E+00  0.00000000000E+00  0.45593999997E+02  0.45594000000E+02  0.51100000000E-03 0.  1.
         11   -1    0    0    0    0 -0.00000000000E+00 -0.00000000000E+00 -0.45593999997E+02  0.45594000000E+02  0.51100000000E-03 0. -1.
    9900012    2    1    2    0    0  0.17751988861E+02  0.26191715511E+02 -0.29706629323E+02  0.47787275402E+02  0.20000019868E+02 0.  0.
        -12    1    1    2    0    0 -0.17751988861E+02 -0.26191715511E+02  0.29706629323E+02  0.43400724598E+02  0.00000000000E+00 0.  1.
         11    1    3    3    0    0  0.37658117493E+01  0.46632440596E+01  0.52490654614E+00  0.60168688231E+01  0.51100000000E-03 0.  1.
        -11    1    3    3    0    0  0.52844911217E+01  0.17184327298E+02 -0.13752338426E+02  0.22635232792E+02  0.51100000000E-03 0. -1.
         12    1    3    3    0    0  0.87016859897E+01  0.43441441531E+01 -0.16479197443E+02  0.19135173787E+02  0.00000000000E+00 0. -1.
</event>
<event>
 7    1  0.3884463E-009  0.4778727E+02  0.7816164E-02  0.1312668E+00
        -11   -1    0    0    0    0  0.00000000000E+00  0.00000000000E+00  0.45593999997E+02  0.45594000000E+02  0.51100000000E-03 0. -1.
         11   -1    0    0    0    0 -0.00000000000E+00 -0.00000000000E+00 -0.45593999997E+02  0.45594000000E+02  0.51100000000E-03 0.  1.
    9900012    2    1    2    0    0 -0.40190141956E+01  0.28838489880E+02  0.32184035636E+02  0.47787272777E+02  0.20000007900E+02 0.  0.
        -12    1    1    2    0    0  0.40190141956E+01 -0.28838489880E+02 -0.32184035636E+02  0.43400727223E+02  0.00000000000E+00 0.  1.
         11    1    3    3    0    0 -0.10725734494E+02  0.19186482656E+02  0.23608358098E+02  0.32257046819E+02  0.51100000000E-03 0. -1.
        -11    1    3    3    0    0  0.17753345014E+00  0.47808077587E+01  0.27850438518E+01  0.55357122820E+01  0.51100000000E-03 0.  1.
        -12    1    3    3    0    0  0.65291868482E+01  0.48711994649E+01  0.57906336863E+01  0.99945136757E+01  0.00000000000E+00 0.  1.
</event>
<event>
 7    1  0.3884463E-009  0.4778726E+02  0.7816164E-02  0.1312668E+00
        -11   -1    0    0    0    0  0.00000000000E+00  0.00000000000E+00  0.45593999997E+02  0.45594000000E+02  0.51100000000E-03 0.  1.
         11   -1    0    0    0    0 -0.00000000000E+00 -0.00000000000E+00 -0.45593999997E+02  0.45594000000E+02  0.51100000000E-03 0. -1.
    9900012    2    1    2    0    0 -0.38001114224E+02 -0.15382489534E+02 -0.14244939905E+02  0.47787262916E+02  0.19999962941E+02 0.  0.
        -12    1    1    2    0    0  0.38001114224E+02  0.15382489534E+02  0.14244939905E+02  0.43400737084E+02  0.00000000000E+00 0.  1.
         11    1    3    3    0    0 -0.12368455606E+02 -0.13490868200E+01  0.63827316363E+00  0.12458174915E+02  0.51100000000E-03 0. -1.
        -11    1    3    3    0    0 -0.14303215712E+01  0.74825174496E+00  0.18069600617E+01  0.24229744936E+01  0.51100000000E-03 0.  1.
         12    1    3    3    0    0 -0.24202337047E+02 -0.14781654459E+02 -0.16690173130E+02  0.32906113507E+02  0.00000000000E+00 0. -1.
</event>
<event>
 7    1  0.3884463E-009  0.4778727E+02  0.7816164E-02  0.1312668E+00
        -11   -1    0    0    0    0  0.00000000000E+00  0.00000000000E+00  0.45593999997E+02  0.45594000000E+02  0.51100000000E-03 0.  1.
         11   -1    0    0    0    0 -0.00000000000E+00 -0.00000000000E+00 -0.45593999997E+02  0.45594000000E+02  0.51100000000E-03 0. -1.
    9900012    2    1    2    0    0 -0.26341331086E+02  0.50838771518E+01 -0.34116150231E+02  0.47787271471E+02  0.20000001943E+02 0.  0.
        -12    1    1    2    0    0  0.26341331086E+02 -0.50838771518E+01  0.34116150231E+02  0.43400728529E+02  0.00000000000E+00 0.  1.
         11    1    3    3    0    0 -0.30881572021E+01 -0.43348420570E+01 -0.15584621540E+02  0.16468393952E+02  0.51100000000E-03 0. -1.
        -11    1    3    3    0    0 -0.10237154967E+02  0.50312420266E+01 -0.98390389878E+01  0.15063845014E+02  0.51100000000E-03 0.  1.
        -12    1    3    3    0    0 -0.13016018917E+02  0.43874771822E+01 -0.86924897039E+01  0.16255032504E+02  0.00000000000E+00 0.  1.
</event>
<event>
 7    1  0.3884463E-009  0.4778730E+02  0.7816164E-02  0.1312668E+00
        -11   -1    0    0    0    0  0.00000000000E+00  0.00000000000E+00  0.45593999997E+02  0.45594000000E+02  0.51100000000E-03 0. -1.
         11   -1    0    0    0    0 -0.00000000000E+00 -0.00000000000E+00 -0.45593999997E+02  0.45594000000E+02  0.51100000000E-03 0.  1.
    9900012    2    1    2    0    0  0.19546332225E+02 -0.32268449323E+02  0.21454807809E+02  0.47787300659E+02  0.20000135025E+02 0.  0.
        -12    1    1    2    0    0 -0.19546332225E+02  0.32268449323E+02 -0.21454807809E+02  0.43400699341E+02  0.00000000000E+00 0.  1.
         11    1    3    3    0    0  0.12231853377E+01 -0.71618113065E+01  0.89420346093E+00  0.73203363072E+01  0.51100000000E-03 0.  1.
        -11    1    3    3    0    0  0.12967823518E+02 -0.13085876715E+02  0.32262794321E+01  0.18703301725E+02  0.51100000000E-03 0. -1.
         12    1    3    3    0    0  0.53553233699E+01 -0.12020761301E+02  0.17334324916E+02  0.21763662627E+02  0.00000000000E+00 0. -1.
</event>
<event>
 7    1  0.3884463E-009  0.4778727E+02  0.7816164E-02  0.1312668E+00
        -11   -1    0    0    0    0  0.00000000000E+00  0.00000000000E+00  0.45593999997E+02  0.45594000000E+02  0.51100000000E-03 0.  1.
         11   -1    0    0    0    0 -0.00000000000E+00 -0.00000000000E+00 -0.45593999997E+02  0.45594000000E+02  0.51100000000E-03 0. -1.
    9900012    2    1    2    0    0  0.26037678381E+02 -0.22443958413E+02 -0.26493992971E+02  0.47787266962E+02  0.19999981385E+02 0.  0.
        -12    1    1    2    0    0 -0.26037678381E+02  0.22443958413E+02  0.26493992971E+02  0.43400733038E+02  0.00000000000E+00 0.  1.
         11    1    3    3    0    0  0.10431132590E+02 -0.69226775398E+01 -0.14256891819E+02  0.18973427630E+02  0.51100000000E-03 0. -1.
        -11    1    3    3    0    0  0.91879021069E+01  0.30759236196E-01 -0.53674381499E+01  0.10640859167E+02  0.51100000000E-03 0.  1.
        -12    1    3    3    0    0  0.64186436844E+01 -0.15552040110E+02 -0.68696630018E+01  0.18172980165E+02  0.00000000000E+00 0.  1.
</event>
<event>
 7    1  0.3884463E-009  0.4778725E+02  0.7816164E-02  0.1312668E+00
        -11   -1    0    0    0    0  0.00000000000E+00  0.00000000000E+00  0.45593999997E+02  0.45594000000E+02  0.51100000000E-03 0.  1.
         11   -1    0    0    0    0 -0.00000000000E+00 -0.00000000000E+00 -0.45593999997E+02  0.45594000000E+02  0.51100000000E-03 0. -1.
    9900012    2    1    2    0    0 -0.13486517132E+02  0.41248475429E+02 -0.54973510975E+00  0.47787250257E+02  0.19999905221E+02 0.  0.
        -12    1    1    2    0    0  0.13486517132E+02 -0.41248475429E+02  0.54973510975E+00  0.43400749743E+02  0.00000000000E+00 0.  1.
         11    1    3    3    0    0 -0.66985859308E+01  0.23729153166E+02 -0.66054942741E+01  0.25525992993E+02  0.51100000000E-03 0. -1.
        -11    1    3    3    0    0 -0.42395327871E+01  0.17452786581E+02  0.28814255061E+01  0.18189997551E+02  0.51100000000E-03 0.  1.
         12    1    3    3    0    0 -0.25483984144E+01  0.66535682795E-01  0.31743336583E+01  0.40712597128E+01  0.00000000000E+00 0. -1.
</event>
<event>
 7    1  0.3884463E-009  0.4778727E+02  0.7816164E-02  0.1312668E+00
        -11   -1    0    0    0    0  0.00000000000E+00  0.00000000000E+00  0.45593999997E+02  0.45594000000E+02  0.51100000000E-03 0.  1.
         11   -1    0    0    0    0 -0.00000000000E+00 -0.00000000000E+00 -0.45593999997E+02  0.45594000000E+02  0.51100000000E-03 0. -1.
    9900012    2    1    2    0    0  0.58572420103E+01 -0.20361231422E+02 -0.37877915108E+02  0.47787268647E+02  0.19999989071E+02 0.  0.
        -12    1    1    2    0    0 -0.58572420103E+01  0.20361231422E+02  0.37877915108E+02  0.43400731353E+02  0.00000000000E+00 0.  1.
         11    1    3    3    0    0  0.93156320640E+01 -0.38106994371E+01 -0.94622255245E+01  0.13814345554E+02  0.51100000000E-03 0.  1.
        -11    1    3    3    0    0 -0.26009868662E+01 -0.63779677899E+00 -0.44037548738E+01  0.51541221036E+01  0.51100000000E-03 0. -1.
        -12    1    3    3    0    0 -0.85740318746E+00 -0.15912735206E+02 -0.24011934710E+02  0.28818800990E+02  0.00000000000E+00 0.  1.
</event>
<event>
 7    1  0.3884463E-009  0.4778727E+02  0.7816164E-02  0.1312668E+00
        -11   -1    0    0    0    0  0.00000000000E+00  0.00000000000E+00  0.45593999997E+02  0.45594000000E+02  0.51100000000E-03 0. -1.
         11   -1    0    0    0    0 -0.00000000000E+00 -0.00000000000E+00 -0.45593999997E+02  0.45594000000E+02  0.51100000000E-03 0.  1.
    9900012    2    1    2    0    0  0.36675923548E+02 -0.15492043352E+02  0.17277043326E+02  0.47787274183E+02  0.20000014312E+02 0.  0.
        -12    1    1    2    0    0 -0.36675923548E+02  0.15492043352E+02 -0.17277043326E+02  0.43400725817E+02  0.00000000000E+00 0.  1.
         11    1    3    3    0    0  0.16292434451E+02 -0.66536649295E+01  0.80461409251E+01  0.19350841361E+02  0.51100000000E-03 0. -1.
        -11    1    3    3    0    0  0.19708552268E+02 -0.96824156741E+01  0.30589192903E+01  0.22170547879E+02  0.51100000000E-03 0.  1.
         12    1    3    3    0    0  0.67493682909E+00  0.84403725169E+00  0.61719831102E+01  0.62658849429E+01  0.00000000000E+00 0. -1.
</event>
<event>
 7    1  0.3884463E-009  0.4778726E+02  0.7816164E-02  0.1312668E+00
        -11   -1    0    0    0    0  0.00000000000E+00  0.00000000000E+00  0.45593999997E+02  0.45594000000E+02  0.51100000000E-03 0. -1.
         11   -1    0    0    0    0 -0.00000000000E+00 -0.00000000000E+00 -0.45593999997E+02  0.45594000000E+02  0.51100000000E-03 0.  1.
    9900012    2    1    2    0    0 -0.30613719746E+02 -0.16397878835E+02  0.26029475785E+02  0.47787264101E+02  0.19999968341E+02 0.  0.
        -12    1    1    2    0    0  0.30613719746E+02  0.16397878835E+02 -0.26029475785E+02  0.43400735899E+02  0.00000000000E+00 0.  1.
         11    1    3    3    0    0 -0.18007588081E+02 -0.71673297362E+01  0.20828547594E+02  0.28451225619E+02  0.51100000000E-03 0. -1.
        -11    1    3    3    0    0 -0.42360309215E+01 -0.38992921259E+01  0.71938858944E+01  0.92141430190E+01  0.51100000000E-03 0.  1.
        -12    1    3    3    0    0 -0.83701007432E+01 -0.53312569725E+01 -0.19929577040E+01  0.10121895463E+02  0.00000000000E+00 0.  1.
</event>
<event>
 7    1  0.3884463E-009  0.4778727E+02  0.7816164E-02  0.1312668E+00
        -11   -1    0    0    0    0  0.00000000000E+00  0.00000000000E+00  0.45593999997E+02  0.45594000000E+02  0.51100000000E-03 0. -1.
         11   -1    0    0    0    0 -0.00000000000E+00 -0.00000000000E+00 -0.45593999997E+02  0.45594000000E+02  0.51100000000E-03 0.  1.
    9900012    2    1    2    0    0 -0.27080028424E+00 -0.13500674069E+02  0.41246595471E+02  0.47787272229E+02  0.20000005402E+02 0.  0.
        -12    1    1    2    0    0  0.27080028424E+00  0.13500674069E+02 -0.41246595471E+02  0.43400727771E+02  0.00000000000E+00 0.  1.
         11    1    3    3    0    0 -0.43621232730E+00  0.41897231349E+01  0.22038739564E+01  0.47540637163E+01  0.51100000000E-03 0. -1.
        -11    1    3    3    0    0 -0.35484627383E+00 -0.34480091256E+00  0.29252944021E+00  0.57478455256E+00  0.51100000000E-03 0.  1.
         12    1    3    3    0    0  0.52025831689E+00 -0.17345596291E+02  0.38750192074E+02  0.42458423960E+02  0.00000000000E+00 0. -1.
</event>
<event>
 7    1  0.3884463E-009  0.4778727E+02  0.7816164E-02  0.1312668E+00
        -11   -1    0    0    0    0  0.00000000000E+00  0.00000000000E+00  0.45593999997E+02  0.45594000000E+02  0.51100000000E-03 0.  1.
         11   -1    0    0    0    0 -0.00000000000E+00 -0.00000000000E+00 -0.45593999997E+02  0.45594000000E+02  0.51100000000E-03 0. -1.
    9900012    2    1    2    0    0  0.14908408346E+02 -0.35752949797E+01 -0.40602708707E+02  0.47787270422E+02  0.19999997161E+02 0.  0.
        -12    1    1    2    0    0 -0.14908408346E+02  0.35752949797E+01  0.40602708707E+02  0.43400729578E+02  0.00000000000E+00 0.  1.
         11    1    3    3    0    0 -0.68929865834E+00 -0.90951234269E-01 -0.10972525510E+01  0.12989873707E+01  0.51100000000E-03 0. -1.
        -11    1    3    3    0    0  0.49955236582E+01 -0.10067203250E+02 -0.12949884256E+02  0.17146525607E+02  0.51100000000E-03 0.  1.
         12    1    3    3    0    0  0.10602183346E+02  0.65828595050E+01 -0.26555571900E+02  0.29341757444E+02  0.00000000000E+00 0. -1.
</event>
<event>
 7    1  0.5049596E-009  0.4778727E+02  0.7816164E-02  0.1312668E+00
        -11   -1    0    0    0    0  0.00000000000E+00  0.00000000000E+00  0.45593999997E+02  0.45594000000E+02  0.51100000000E-03 0.  1.
         11   -1    0    0    0    0 -0.00000000000E+00 -0.00000000000E+00 -0.45593999997E+02  0.45594000000E+02  0.51100000000E-03 0. -1.
    9900012    2    1    2    0    0 -0.37421921485E+02 -0.81732379103E+01 -0.20406398980E+02  0.47787272530E+02  0.20000006772E+02 0.  0.
        -12    1    1    2    0    0  0.37421921485E+02  0.81732379103E+01  0.20406398980E+02  0.43400727470E+02  0.00000000000E+00 0.  1.
         11    1    3    3    0    0 -0.16854170324E+02  0.94136083094E+00 -0.45455886721E+01  0.17481750317E+02  0.51100000000E-03 0. -1.
        -11    1    3    3    0    0  0.12484096259E+01  0.10608082138E+01 -0.37001017129E+00  0.16795083949E+01  0.51100000000E-03 0.  1.
         12    1    3    3    0    0 -0.21816160788E+02 -0.10175406955E+02 -0.15490800137E+02  0.28626013818E+02  0.00000000000E+00 0. -1.
</event>
<event>
 7    1  0.3884463E-009  0.4778727E+02  0.7816164E-02  0.1312668E+00
        -11   -1    0    0    0    0  0.00000000000E+00  0.00000000000E+00  0.45593999997E+02  0.45594000000E+02  0.51100000000E-03 0.  1.
         11   -1    0    0    0    0 -0.00000000000E+00 -0.00000000000E+00 -0.45593999997E+02  0.45594000000E+02  0.51100000000E-03 0. -1.
    9900012    2    1    2    0    0 -0.30040393186E+02 -0.30428815931E+02 -0.74353926083E+01  0.47787272760E+02  0.20000007821E+02 0.  0.
        -12    1    1    2    0    0  0.30040393186E+02  0.30428815931E+02  0.74353926083E+01  0.43400727240E+02  0.00000000000E+00 0.  1.
         11    1    3    3    0    0 -0.48726438029E+01  0.21144158546E+01  0.34494724283E+00  0.53228188864E+01  0.51100000000E-03 0. -1.
        -11    1    3    3    0    0 -0.78626059252E+01 -0.10588890346E+02  0.82694849973E+00  0.13214727193E+02  0.51100000000E-03 0.  1.
         12    1    3    3    0    0 -0.17305143458E+02 -0.21954341440E+02 -0.86072883509E+01  0.29249726681E+02  0.00000000000E+00 0. -1.
</event>
<event>
 7    1  0.3884463E-009  0.4778728E+02  0.7816164E-02  0.1312668E+00
        -11   -1    0    0    0    0  0.00000000000E+00  0.00000000000E+00  0.45593999997E+02  0.45594000000E+02  0.51100000000E-03 0.  1.
         11   -1    0    0    0    0 -0.00000000000E+00 -0.00000000000E+00 -0.45593999997E+02  0.45594000000E+02  0.51100000000E-03 0. -1.
    9900012    2    1    2    0    0  0.20279410547E+02 -0.37819618634E+02 -0.64841950112E+01  0.47787276150E+02  0.20000023279E+02 0.  0.
        -12    1    1    2    0    0 -0.20279410547E+02  0.37819618634E+02  0.64841950112E+01  0.43400723850E+02  0.00000000000E+00 0.  1.
         11    1    3    3    0    0  0.11830006535E+01 -0.12628014219E+02 -0.90443979100E+01  0.15577784421E+02  0.51100000000E-03 0. -1.
        -11    1    3    3    0    0  0.28911016567E+01 -0.45206515880E+01  0.25555593618E+01  0.59435379600E+01  0.51100000000E-03 0.  1.
         12    1    3    3    0    0  0.16205308237E+02 -0.20670952827E+02  0.46435369554E-02  0.26265953769E+02  0.00000000000E+00 0. -1.
</event>
<event>
 7    1  0.3884463E-009  0.4778727E+02  0.7816164E-02  0.1312668E+00
        -11   -1    0    0    0    0  0.00000000000E+00  0.00000000000E+00  0.45593999997E+02  0.45594000000E+02  0.51100000000E-03 0.  1.
         11   -1    0    0    0    0 -0.00000000000E+00 -0.00000000000E+00 -0.45593999997E+02  0.45594000000E+02  0.51100000000E-03 0. -1.
    9900012    2    1    2    0    0  0.16430959043E+00  0.24530101042E+01 -0.43331039750E+02  0.47787271181E+02  0.20000000621E+02 0.  0.
        -12    1    1    2    0    0 -0.16430959043E+00 -0.24530101042E+01  0.43331039750E+02  0.43400728819E+02  0.00000000000E+00 0.  1.
         11    1    3    3    0    0 -0.56931790615E+01 -0.19358917009E+01 -0.10010428390E+02  0.11677698460E+02  0.51100000000E-03 0.  1.
        -11    1    3    3    0    0 -0.29247528283E+01 -0.12530960953E+01 -0.11312575493E+02  0.11751544302E+02  0.51100000000E-03 0. -1.
         12    1    3    3    0    0  0.87822414802E+01  0.56419979004E+01 -0.22008035867E+02  0.24358028419E+02  0.00000000000E+00 0. -1.
</event>
<event>
 7    1  0.3884463E-009  0.4778727E+02  0.7816164E-02  0.1312668E+00
        -11   -1    0    0    0    0  0.00000000000E+00  0.00000000000E+00  0.45593999997E+02  0.45594000000E+02  0.51100000000E-03 0.  1.
         11   -1    0    0    0    0 -0.00000000000E+00 -0.00000000000E+00 -0.45593999997E+02  0.45594000000E+02  0.51100000000E-03 0. -1.
    9900012    2    1    2    0    0  0.24164056052E+02  0.51247723050E+01 -0.35685548912E+02  0.47787270775E+02  0.19999998773E+02 0.  0.
        -12    1    1    2    0    0 -0.24164056052E+02 -0.51247723050E+01  0.35685548912E+02  0.43400729225E+02  0.00000000000E+00 0.  1.
         11    1    3    3    0    0  0.50171339018E+01 -0.35340034348E+00 -0.38290557680E+01  0.63212493011E+01  0.51100000000E-03 0. -1.
        -11    1    3    3    0    0  0.36134783865E+01 -0.48756989260E+01 -0.22638636710E+01  0.64772482621E+01  0.51100000000E-03 0.  1.
         12    1    3    3    0    0  0.15533443764E+02  0.10353871575E+02 -0.29592629473E+02  0.34988773212E+02  0.00000000000E+00 0. -1.
</event>
<event>
 7    1  0.3884463E-009  0.4778732E+02  0.7816164E-02  0.1312668E+00
        -11   -1    0    0    0    0  0.00000000000E+00  0.00000000000E+00  0.45593999997E+02  0.45594000000E+02  0.51100000000E-03 0.  1.
         11   -1    0    0    0    0 -0.00000000000E+00 -0.00000000000E+00 -0.45593999997E+02  0.45594000000E+02  0.51100000000E-03 0. -1.
    9900012    2    1    2    0    0 -0.15743703040E+02 -0.37356190723E+02  0.15500643759E+02  0.47787318811E+02  0.20000217783E+02 0.  0.
        -12    1    1    2    0    0  0.15743703040E+02  0.37356190723E+02 -0.15500643759E+02  0.43400681189E+02  0.00000000000E+00 0.  1.
         11    1    3    3    0    0 -0.25562552993E+01 -0.75588500749E+00  0.60747137177E+01  0.66338488310E+01  0.51100000000E-03 0. -1.
        -11    1    3    3    0    0  0.12124086052E+01 -0.33538117173E+01 -0.46556032498E+00  0.35964891684E+01  0.51100000000E-03 0.  1.
        -12    1    3    3    0    0 -0.14399856346E+02 -0.33246493999E+02  0.98914903663E+01  0.37556980811E+02  0.00000000000E+00 0.  1.
</event>
<event>
 7    1  0.3884463E-009  0.4778727E+02  0.7816164E-02  0.1312668E+00
        -11   -1    0    0    0    0  0.00000000000E+00  0.00000000000E+00  0.45593999997E+02  0.45594000000E+02  0.51100000000E-03 0.  1.
         11   -1    0    0    0    0 -0.00000000000E+00 -0.00000000000E+00 -0.45593999997E+02  0.45594000000E+02  0.51100000000E-03 0. -1.
    9900012    2    1    2    0    0 -0.66421517510E+01  0.38964715477E+02 -0.17923617233E+02  0.47787270895E+02  0.19999999319E+02 0.  0.
        -12    1    1    2    0    0  0.66421517510E+01 -0.38964715477E+02  0.17923617233E+02  0.43400729105E+02  0.00000000000E+00 0.  1.
         11    1    3    3    0    0 -0.10169859786E+02  0.15188719589E+02 -0.11201908392E+02  0.21438423513E+02  0.51100000000E-03 0. -1.
        -11    1    3    3    0    0  0.10330699461E+01 -0.35374269029E+00  0.22616346737E+00  0.11151311939E+01  0.51100000000E-03 0.  1.
         12    1    3    3    0    0  0.24946380890E+01  0.24129738578E+02 -0.69478723089E+01  0.25233716188E+02  0.00000000000E+00 0. -1.
</event>
<event>
 7    1  0.3884463E-009  0.4778727E+02  0.7816164E-02  0.1312668E+00
        -11   -1    0    0    0    0  0.00000000000E+00  0.00000000000E+00  0.45593999997E+02  0.45594000000E+02  0.51100000000E-03 0.  1.
         11   -1    0    0    0    0 -0.00000000000E+00 -0.00000000000E+00 -0.45593999997E+02  0.45594000000E+02  0.51100000000E-03 0. -1.
    9900012    2    1    2    0    0 -0.33359511680E+02 -0.22699635508E+02 -0.15984145024E+02  0.47787270008E+02  0.19999995274E+02 0.  0.
        -12    1    1    2    0    0  0.33359511680E+02  0.22699635508E+02  0.15984145024E+02  0.43400729992E+02  0.00000000000E+00 0.  1.
         11    1    3    3    0    0 -0.18993168988E+02 -0.87091288800E+01 -0.27215696313E+01  0.21071220552E+02  0.51100000000E-03 0. -1.
        -11    1    3    3    0    0 -0.47674700732E+01 -0.26296866279E+01  0.16150992992E+01  0.56791344999E+01  0.51100000000E-03 0.  1.
         12    1    3    3    0    0 -0.95988726189E+01 -0.11360820000E+02 -0.14877674692E+02  0.21036914956E+02  0.00000000000E+00 0. -1.
</event>
<event>
 7    1  0.3884463E-009  0.4778725E+02  0.7816164E-02  0.1312668E+00
        -11   -1    0    0    0    0  0.00000000000E+00  0.00000000000E+00  0.45593999997E+02  0.45594000000E+02  0.51100000000E-03 0.  1.
         11   -1    0    0    0    0 -0.00000000000E+00 -0.00000000000E+00 -0.45593999997E+02  0.45594000000E+02  0.51100000000E-03 0. -1.
    9900012    2    1    2    0    0  0.33018872561E+01 -0.99702220670E+01 -0.42110774659E+02  0.47787249662E+02  0.19999902508E+02 0.  0.
        -12    1    1    2    0    0 -0.33018872561E+01  0.99702220670E+01  0.42110774659E+02  0.43400750338E+02  0.00000000000E+00 0.  1.
         11    1    3    3    0    0  0.42896036320E+01 -0.59446889134E+01 -0.22656137929E+02  0.23812614550E+02  0.51100000000E-03 0.  1.
        -11    1    3    3    0    0  0.57399714307E+01 -0.12258804382E+01 -0.12903915796E+02  0.14176074845E+02  0.51100000000E-03 0. -1.
        -12    1    3    3    0    0 -0.67276878066E+01 -0.27996527154E+01 -0.65507209344E+01  0.97985602672E+01  0.00000000000E+00 0.  1.
</event>
<event>
 7    1  0.3884463E-009  0.4778726E+02  0.7816164E-02  0.1312668E+00
        -11   -1    0    0    0    0  0.00000000000E+00  0.00000000000E+00  0.45593999997E+02  0.45594000000E+02  0.51100000000E-03 0.  1.
         11   -1    0    0    0    0 -0.00000000000E+00 -0.00000000000E+00 -0.45593999997E+02  0.45594000000E+02  0.51100000000E-03 0. -1.
    9900012    2    1    2    0    0 -0.30419783636E+02  0.28341426186E+01 -0.30825774843E+02  0.47787262731E+02  0.19999962097E+02 0.  0.
        -12    1    1    2    0    0  0.30419783636E+02 -0.28341426186E+01  0.30825774843E+02  0.43400737269E+02  0.00000000000E+00 0.  1.
         11    1    3    3    0    0 -0.51008401767E+01  0.30950237516E+01 -0.53945967658E+01  0.80435947845E+01  0.51100000000E-03 0. -1.
        -11    1    3    3    0    0 -0.82756328941E+01 -0.43881384489E+01 -0.65541044684E+00  0.93899638956E+01  0.51100000000E-03 0.  1.
        -12    1    3    3    0    0 -0.17043310565E+02  0.41272573159E+01 -0.24775767630E+02  0.30353704051E+02  0.00000000000E+00 0.  1.
</event>
<event>
 7    1  0.3884463E-009  0.4778727E+02  0.7816164E-02  0.1312668E+00
        -11   -1    0    0    0    0  0.00000000000E+00  0.00000000000E+00  0.45593999997E+02  0.45594000000E+02  0.51100000000E-03 0.  1.
         11   -1    0    0    0    0 -0.00000000000E+00 -0.00000000000E+00 -0.45593999997E+02  0.45594000000E+02  0.51100000000E-03 0. -1.
    9900012    2    1    2    0    0  0.10985560535E+01 -0.42713851316E+02  0.76120319339E+01  0.47787274777E+02  0.20000017020E+02 0.  0.
        -12    1    1    2    0    0 -0.10985560535E+01  0.42713851316E+02 -0.76120319339E+01  0.43400725223E+02  0.00000000000E+00 0.  1.
         11    1    3    3    0    0  0.94833432483E+00 -0.54687982156E+01  0.41976804416E+01  0.69589951333E+01  0.51100000000E-03 0. -1.
        -11    1    3    3    0    0 -0.46973807558E+01 -0.26202396975E+02  0.81987236548E+01  0.27854085212E+02  0.51100000000E-03 0.  1.
         12    1    3    3    0    0  0.48476024845E+01 -0.11042656126E+02 -0.47843721624E+01  0.12974194432E+02  0.00000000000E+00 0. -1.
</event>
<event>
 7    1  0.3884463E-009  0.4778728E+02  0.7816164E-02  0.1312668E+00
        -11   -1    0    0    0    0  0.00000000000E+00  0.00000000000E+00  0.45593999997E+02  0.45594000000E+02  0.51100000000E-03 0. -1.
         11   -1    0    0    0    0 -0.00000000000E+00 -0.00000000000E+00 -0.45593999997E+02  0.45594000000E+02  0.51100000000E-03 0.  1.
    9900012    2    1    2    0    0 -0.23597303779E+02 -0.13716326473E+02  0.33743924521E+02  0.47787276508E+02  0.20000024910E+02 0.  0.
        -12    1    1    2    0    0  0.23597303779E+02  0.13716326473E+02 -0.33743924521E+02  0.43400723492E+02  0.00000000000E+00 0.  1.
         11    1    3    3    0    0 -0.15517724648E+01 -0.14573056963E+01  0.94594188597E+01  0.96959962407E+01  0.51100000000E-03 0. -1.
        -11    1    3    3    0    0 -0.79670777991E+01  0.18156288315E+01  0.12571590536E+02  0.14993856261E+02  0.51100000000E-03 0.  1.
        -12    1    3    3    0    0 -0.14078453515E+02 -0.14074649609E+02  0.11712915125E+02  0.23097424006E+02  0.00000000000E+00 0.  1.
</event>
