<event>
 7    1  0.2972263E-013  0.7246160E+02  0.7816164E-02  0.1226708E+00
        -11   -1    0    0    0    0  0.00000000000E+00  0.00000000000E+00  0.45593999997E+02  0.45594000000E+02  0.51100000000E-03 0.  1.
         11   -1    0    0    0    0 -0.00000000000E+00 -0.00000000000E+00 -0.45593999997E+02  0.45594000000E+02  0.51100000000E-03 0. -1.
    9900012    2    1    2    0    0 -0.11899465389E+02  0.11466883524E+02  0.88086035499E+01  0.72461596426E+02  0.70000034042E+02 0.  0.
         12    1    1    2    0    0  0.11899465389E+02 -0.11466883524E+02 -0.88086035499E+01  0.18726403574E+02  0.00000000000E+00 0. -1.
         11    1    3    3    0    0 -0.64751602253E+00 -0.16587460127E+01  0.24723065997E+00  0.17977315135E+01  0.51100000000E-03 0. -1.
        -11    1    3    3    0    0 -0.26541256988E+02  0.29947200405E+02  0.20528725929E+02  0.44974456341E+02  0.51100000000E-03 0.  1.
         12    1    3    3    0    0  0.15289307621E+02 -0.16821570868E+02 -0.11967353039E+02  0.25689408572E+02  0.00000000000E+00 0. -1.
</event>
<event>
 7    1  0.2972263E-013  0.7246159E+02  0.7816164E-02  0.1226708E+00
        -11   -1    0    0    0    0  0.00000000000E+00  0.00000000000E+00  0.45593999997E+02  0.45594000000E+02  0.51100000000E-03 0.  1.
         11   -1    0    0    0    0 -0.00000000000E+00 -0.00000000000E+00 -0.45593999997E+02  0.45594000000E+02  0.51100000000E-03 0. -1.
    9900012    2    1    2    0    0  0.33823546109E+01 -0.16187391779E+02 -0.87867111995E+01  0.72461594338E+02  0.70000031321E+02 0.  0.
         12    1    1    2    0    0 -0.33823546109E+01  0.16187391779E+02  0.87867111995E+01  0.18726405662E+02  0.00000000000E+00 0. -1.
         11    1    3    3    0    0 -0.66382379993E+01 -0.75269471291E+01 -0.24710896797E+02  0.26671137164E+02  0.51100000000E-03 0. -1.
        -11    1    3    3    0    0  0.39994582025E+01 -0.64634868840E+01 -0.13599296889E+02  0.15579255591E+02  0.51100000000E-03 0.  1.
        -12    1    3    3    0    0  0.60211344077E+01 -0.21969577657E+01  0.29523482487E+02  0.30211201584E+02  0.00000000000E+00 0.  1.
</event>
<event>
 7    1  0.2972263E-013  0.7246152E+02  0.7816164E-02  0.1226708E+00
        -11   -1    0    0    0    0  0.00000000000E+00  0.00000000000E+00  0.45593999997E+02  0.45594000000E+02  0.51100000000E-03 0.  1.
         11   -1    0    0    0    0 -0.00000000000E+00 -0.00000000000E+00 -0.45593999997E+02  0.45594000000E+02  0.51100000000E-03 0. -1.
    9900012    2    1    2    0    0  0.42979702271E+01  0.32485463545E+01  0.17934751293E+02  0.72461523945E+02  0.69999939622E+02 0.  0.
         12    1    1    2    0    0 -0.42979702271E+01 -0.32485463545E+01 -0.17934751293E+02  0.18726476055E+02  0.00000000000E+00 0. -1.
         11    1    3    3    0    0 -0.90335089793E+01  0.91425488717E+01 -0.30116784932E+01  0.13200783763E+02  0.51100000000E-03 0. -1.
        -11    1    3    3    0    0 -0.16243905594E+02 -0.10748385766E+02  0.21855919530E+02  0.29275817397E+02  0.51100000000E-03 0.  1.
         12    1    3    3    0    0  0.29575384801E+02  0.48543832492E+01 -0.90948974342E+00  0.29984922785E+02  0.00000000000E+00 0. -1.
</event>
<event>
 7    1  0.2972263E-013  0.7246172E+02  0.7816164E-02  0.1226708E+00
        -11   -1    0    0    0    0  0.00000000000E+00  0.00000000000E+00  0.45593999997E+02  0.45594000000E+02  0.51100000000E-03 0. -1.
         11   -1    0    0    0    0 -0.00000000000E+00 -0.00000000000E+00 -0.45593999997E+02  0.45594000000E+02  0.51100000000E-03 0.  1.
    9900012    2    1    2    0    0 -0.61160157954E+01  0.17446025075E+02 -0.29839905493E+01  0.72461717941E+02  0.70000192337E+02 0.  0.
         12    1    1    2    0    0  0.61160157954E+01 -0.17446025075E+02  0.29839905493E+01  0.18726282059E+02  0.00000000000E+00 0. -1.
         11    1    3    3    0    0 -0.19407039832E+02 -0.40813394790E+01  0.76976123699E+01  0.21273076022E+02  0.51100000000E-03 0. -1.
        -11    1    3    3    0    0  0.80738413320E+01  0.28722439424E+02 -0.21802367111E+02  0.36952789505E+02  0.51100000000E-03 0.  1.
         12    1    3    3    0    0  0.52171827047E+01 -0.71950748691E+01  0.11120764192E+02  0.14235852414E+02  0.00000000000E+00 0. -1.
</event>
<event>
 7    1  0.2972263E-013  0.7246179E+02  0.7816164E-02  0.1226707E+00
        -11   -1    0    0    0    0  0.00000000000E+00  0.00000000000E+00  0.45593999997E+02  0.45594000000E+02  0.51100000000E-03 0.  1.
         11   -1    0    0    0    0 -0.00000000000E+00 -0.00000000000E+00 -0.45593999997E+02  0.45594000000E+02  0.51100000000E-03 0. -1.
    9900012    2    1    2    0    0  0.17193755872E+01 -0.10511888207E+02  0.15401785434E+02  0.72461787339E+02  0.70000282740E+02 0.  0.
         12    1    1    2    0    0 -0.17193755872E+01  0.10511888207E+02 -0.15401785434E+02  0.18726212661E+02  0.00000000000E+00 0. -1.
         11    1    3    3    0    0  0.20677206979E+02 -0.56587270461E+01 -0.17132007449E+02  0.27442189413E+02  0.51100000000E-03 0. -1.
        -11    1    3    3    0    0 -0.10959795953E+01 -0.11763380481E+02  0.10293755917E+02  0.15669706531E+02  0.51100000000E-03 0.  1.
        -12    1    3    3    0    0 -0.17861851797E+02  0.69102193205E+01  0.22240036966E+02  0.29349891396E+02  0.00000000000E+00 0.  1.
</event>
<event>
 7    1  0.2972263E-013  0.7246155E+02  0.7816164E-02  0.1226708E+00
        -11   -1    0    0    0    0  0.00000000000E+00  0.00000000000E+00  0.45593999997E+02  0.45594000000E+02  0.51100000000E-03 0.  1.
         11   -1    0    0    0    0 -0.00000000000E+00 -0.00000000000E+00 -0.45593999997E+02  0.45594000000E+02  0.51100000000E-03 0. -1.
    9900012    2    1    2    0    0  0.13172613405E+02 -0.75120761650E+01  0.10987759290E+02  0.72461551153E+02  0.69999975064E+02 0.  0.
         12    1    1    2    0    0 -0.13172613405E+02  0.75120761650E+01 -0.10987759290E+02  0.18726448847E+02  0.00000000000E+00 0. -1.
         11    1    3    3    0    0 -0.39181199930E+01 -0.32222352864E+02 -0.48749660028E+01  0.32823725904E+02  0.51100000000E-03 0. -1.
        -11    1    3    3    0    0  0.18268488148E+02  0.11756302297E+02  0.41150164526E+01  0.22110668546E+02  0.51100000000E-03 0.  1.
        -12    1    3    3    0    0 -0.11777547504E+01  0.12953974403E+02  0.11747708840E+02  0.17527156703E+02  0.00000000000E+00 0.  1.
</event>
<event>
 7    1  0.2972263E-013  0.7246160E+02  0.7816164E-02  0.1226708E+00
        -11   -1    0    0    0    0  0.00000000000E+00  0.00000000000E+00  0.45593999997E+02  0.45594000000E+02  0.51100000000E-03 0. -1.
         11   -1    0    0    0    0 -0.00000000000E+00 -0.00000000000E+00 -0.45593999997E+02  0.45594000000E+02  0.51100000000E-03 0.  1.
    9900012    2    1    2    0    0  0.53973147889E+00  0.78281296068E+01 -0.17003156071E+02  0.72461595124E+02  0.70000032346E+02 0.  0.
         12    1    1    2    0    0 -0.53973147889E+00 -0.78281296068E+01  0.17003156071E+02  0.18726404876E+02  0.00000000000E+00 0. -1.
         11    1    3    3    0    0 -0.14306257481E+02 -0.85213927527E-01 -0.49267463997E+01  0.15131063904E+02  0.51100000000E-03 0. -1.
        -11    1    3    3    0    0  0.18973771252E+02 -0.20016833514E+02 -0.85636443802E+01  0.28879294049E+02  0.51100000000E-03 0.  1.
         12    1    3    3    0    0 -0.41277822919E+01  0.27930177048E+02 -0.35127652907E+01  0.28451237171E+02  0.00000000000E+00 0. -1.
</event>
<event>
 7    1  0.2972263E-013  0.7246156E+02  0.7816164E-02  0.1226708E+00
        -11   -1    0    0    0    0  0.00000000000E+00  0.00000000000E+00  0.45593999997E+02  0.45594000000E+02  0.51100000000E-03 0.  1.
         11   -1    0    0    0    0 -0.00000000000E+00 -0.00000000000E+00 -0.45593999997E+02  0.45594000000E+02  0.51100000000E-03 0. -1.
    9900012    2    1    2    0    0  0.66796231650E+01  0.65200295094E+01  0.16234268246E+02  0.72461558376E+02  0.69999984474E+02 0.  0.
         12    1    1    2    0    0 -0.66796231650E+01 -0.65200295094E+01 -0.16234268246E+02  0.18726441624E+02  0.00000000000E+00 0. -1.
         11    1    3    3    0    0 -0.10394176089E+02 -0.11426273337E+02 -0.91097751497E+01  0.17932836431E+02  0.51100000000E-03 0. -1.
        -11    1    3    3    0    0  0.12039501677E+02 -0.10486604814E+02 -0.21346472387E+00  0.15967593701E+02  0.51100000000E-03 0.  1.
        -12    1    3    3    0    0  0.50342975764E+01  0.28432907660E+02  0.25557508119E+02  0.38561128243E+02  0.00000000000E+00 0.  1.
</event>
<event>
 7    1  0.2972263E-013  0.7246160E+02  0.7816164E-02  0.1226708E+00
        -11   -1    0    0    0    0  0.00000000000E+00  0.00000000000E+00  0.45593999997E+02  0.45594000000E+02  0.51100000000E-03 0.  1.
         11   -1    0    0    0    0 -0.00000000000E+00 -0.00000000000E+00 -0.45593999997E+02  0.45594000000E+02  0.51100000000E-03 0. -1.
    9900012    2    1    2    0    0  0.18289548669E+02  0.37770373824E+01  0.13800790238E+01  0.72461595646E+02  0.70000033026E+02 0.  0.
         12    1    1    2    0    0 -0.18289548669E+02 -0.37770373824E+01 -0.13800790238E+01  0.18726404354E+02  0.00000000000E+00 0. -1.
         11    1    3    3    0    0 -0.41663358633E+01  0.54377819790E+01  0.96170870498E+00  0.69175654150E+01  0.51100000000E-03 0. -1.
        -11    1    3    3    0    0  0.19927756177E+02 -0.28676134018E+02  0.10707671318E+02  0.36525201626E+02  0.51100000000E-03 0.  1.
         12    1    3    3    0    0  0.25281283555E+01  0.27015389422E+02 -0.10289300999E+02  0.29018828606E+02  0.00000000000E+00 0. -1.
</event>
<event>
 7    1  0.2972263E-013  0.7246159E+02  0.7816164E-02  0.1226708E+00
        -11   -1    0    0    0    0  0.00000000000E+00  0.00000000000E+00  0.45593999997E+02  0.45594000000E+02  0.51100000000E-03 0. -1.
         11   -1    0    0    0    0 -0.00000000000E+00 -0.00000000000E+00 -0.45593999997E+02  0.45594000000E+02  0.51100000000E-03 0.  1.
    9900012    2    1    2    0    0 -0.95738037844E+01  0.13663674221E+02  0.85043927891E+01  0.72461590605E+02  0.70000026458E+02 0.  0.
         12    1    1    2    0    0  0.95738037844E+01 -0.13663674221E+02 -0.85043927891E+01  0.18726409395E+02  0.00000000000E+00 0. -1.
         11    1    3    3    0    0  0.45190438368E+01  0.23187470474E+02  0.11129071166E+02  0.26113919075E+02  0.51100000000E-03 0. -1.
        -11    1    3    3    0    0 -0.95612467264E+01  0.16723756109E+02 -0.40055945852E+01  0.19676032263E+02  0.51100000000E-03 0.  1.
         12    1    3    3    0    0 -0.45316008948E+01 -0.26247552362E+02  0.13809162085E+01  0.26671639267E+02  0.00000000000E+00 0. -1.
</event>
<event>
 7    1  0.2972263E-013  0.7246154E+02  0.7816164E-02  0.1226708E+00
        -11   -1    0    0    0    0  0.00000000000E+00  0.00000000000E+00  0.45593999997E+02  0.45594000000E+02  0.51100000000E-03 0.  1.
         11   -1    0    0    0    0 -0.00000000000E+00 -0.00000000000E+00 -0.45593999997E+02  0.45594000000E+02  0.51100000000E-03 0. -1.
    9900012    2    1    2    0    0  0.16197815899E+02  0.60144415945E+01  0.72206398307E+01  0.72461537783E+02  0.69999957649E+02 0.  0.
         12    1    1    2    0    0 -0.16197815899E+02 -0.60144415945E+01 -0.72206398307E+01  0.18726462217E+02  0.00000000000E+00 0. -1.
         11    1    3    3    0    0  0.38874207145E+01  0.13514955044E+02 -0.14324894416E+02  0.20074079056E+02  0.51100000000E-03 0. -1.
        -11    1    3    3    0    0  0.19024716662E+02  0.12401397174E+02  0.21660265543E+02  0.31383141965E+02  0.51100000000E-03 0.  1.
        -12    1    3    3    0    0 -0.67143214777E+01 -0.19901910624E+02 -0.11473129630E+00  0.21004316763E+02  0.00000000000E+00 0.  1.
</event>
<event>
 7    1  0.2972263E-013  0.7246151E+02  0.7816164E-02  0.1226708E+00
        -11   -1    0    0    0    0  0.00000000000E+00  0.00000000000E+00  0.45593999997E+02  0.45594000000E+02  0.51100000000E-03 0. -1.
         11   -1    0    0    0    0 -0.00000000000E+00 -0.00000000000E+00 -0.45593999997E+02  0.45594000000E+02  0.51100000000E-03 0.  1.
    9900012    2    1    2    0    0  0.14792249305E+02 -0.97624186566E+01 -0.60469795531E+01  0.72461510226E+02  0.69999921750E+02 0.  0.
         12    1    1    2    0    0 -0.14792249305E+02  0.97624186566E+01  0.60469795531E+01  0.18726489774E+02  0.00000000000E+00 0. -1.
         11    1    3    3    0    0 -0.21942763221E+02  0.13646114739E+01  0.12160234323E+02  0.25124058615E+02  0.51100000000E-03 0. -1.
        -11    1    3    3    0    0 -0.11353787108E+01 -0.50137014944E+01 -0.36628851098E+01  0.63121323719E+01  0.51100000000E-03 0.  1.
        -12    1    3    3    0    0  0.37870391237E+02 -0.61133286361E+01 -0.14544328766E+02  0.41025319239E+02  0.00000000000E+00 0.  1.
</event>
<event>
 7    1  0.2972263E-013  0.7246160E+02  0.7816164E-02  0.1226708E+00
        -11   -1    0    0    0    0  0.00000000000E+00  0.00000000000E+00  0.45593999997E+02  0.45594000000E+02  0.51100000000E-03 0.  1.
         11   -1    0    0    0    0 -0.00000000000E+00 -0.00000000000E+00 -0.45593999997E+02  0.45594000000E+02  0.51100000000E-03 0. -1.
    9900012    2    1    2    0    0 -0.10252565873E+02  0.15514045930E+02 -0.22084302236E+01  0.72461604400E+02  0.70000044429E+02 0.  0.
         12    1    1    2    0    0  0.10252565873E+02 -0.15514045930E+02  0.22084302236E+01  0.18726395600E+02  0.00000000000E+00 0. -1.
         11    1    3    3    0    0 -0.22074708159E+02  0.20983731353E+02  0.94506967501E+01  0.31889267648E+02  0.51100000000E-03 0. -1.
        -11    1    3    3    0    0  0.78354300568E+00  0.32766886082E+00  0.12953722775E+02  0.12981534598E+02  0.51100000000E-03 0.  1.
         12    1    3    3    0    0  0.11038599280E+02 -0.57973542837E+01 -0.24612849749E+02  0.27590802154E+02  0.00000000000E+00 0. -1.
</event>
<event>
 7    1  0.2972263E-013  0.7246156E+02  0.7816164E-02  0.1226708E+00
        -11   -1    0    0    0    0  0.00000000000E+00  0.00000000000E+00  0.45593999997E+02  0.45594000000E+02  0.51100000000E-03 0. -1.
         11   -1    0    0    0    0 -0.00000000000E+00 -0.00000000000E+00 -0.45593999997E+02  0.45594000000E+02  0.51100000000E-03 0.  1.
    9900012    2    1    2    0    0 -0.28704388415E+00  0.87032071668E+01 -0.16578644396E+02  0.72461557220E+02  0.69999982968E+02 0.  0.
         12    1    1    2    0    0  0.28704388415E+00 -0.87032071668E+01  0.16578644396E+02  0.18726442780E+02  0.00000000000E+00 0. -1.
         11    1    3    3    0    0  0.13484044735E+01 -0.11264990458E+02  0.58738637843E+01  0.12775777106E+02  0.51100000000E-03 0. -1.
        -11    1    3    3    0    0  0.12048954123E+02 -0.14093920107E+02 -0.63289292767E+01  0.19592631918E+02  0.51100000000E-03 0.  1.
         12    1    3    3    0    0 -0.13684402481E+02  0.34062117731E+02 -0.16123578904E+02  0.40093148196E+02  0.00000000000E+00 0. -1.
</event>
<event>
 7    1  0.2972263E-013  0.7246154E+02  0.7816164E-02  0.1226708E+00
        -11   -1    0    0    0    0  0.00000000000E+00  0.00000000000E+00  0.45593999997E+02  0.45594000000E+02  0.51100000000E-03 0.  1.
         11   -1    0    0    0    0 -0.00000000000E+00 -0.00000000000E+00 -0.45593999997E+02  0.45594000000E+02  0.51100000000E-03 0. -1.
    9900012    2    1    2    0    0 -0.66706764200E+01 -0.68387980380E+01  0.16106315047E+02  0.72461535654E+02  0.69999954875E+02 0.  0.
         12    1    1    2    0    0  0.66706764200E+01  0.68387980380E+01 -0.16106315047E+02  0.18726464346E+02  0.00000000000E+00 0. -1.
         11    1    3    3    0    0 -0.67947087235E+00 -0.10496084644E+02 -0.11429404895E+02  0.15532571263E+02  0.51100000000E-03 0. -1.
        -11    1    3    3    0    0 -0.23454976758E+02 -0.83793485262E+00 -0.63761165737E+00  0.23478599158E+02  0.51100000000E-03 0.  1.
        -12    1    3    3    0    0  0.17463771210E+02  0.44952214586E+01  0.28173331599E+02  0.33450365233E+02  0.00000000000E+00 0.  1.
</event>
<event>
 7    1  0.2972263E-013  0.7246157E+02  0.7816164E-02  0.1226708E+00
        -11   -1    0    0    0    0  0.00000000000E+00  0.00000000000E+00  0.45593999997E+02  0.45594000000E+02  0.51100000000E-03 0. -1.
         11   -1    0    0    0    0 -0.00000000000E+00 -0.00000000000E+00 -0.45593999997E+02  0.45594000000E+02  0.51100000000E-03 0.  1.
    9900012    2    1    2    0    0  0.28154530744E+01 -0.80611907641E+01 -0.16666418526E+02  0.72461572710E+02  0.70000003147E+02 0.  0.
         12    1    1    2    0    0 -0.28154530744E+01  0.80611907641E+01  0.16666418526E+02  0.18726427290E+02  0.00000000000E+00 0. -1.
         11    1    3    3    0    0  0.34849456357E+01 -0.27494448673E+02  0.74343282738E+01  0.28694229229E+02  0.51100000000E-03 0. -1.
        -11    1    3    3    0    0 -0.91388080065E+01 -0.51176630497E+01 -0.55678856737E+01  0.11862109341E+02  0.51100000000E-03 0.  1.
        -12    1    3    3    0    0  0.84693154452E+01  0.24550920959E+02 -0.18532861126E+02  0.31905234140E+02  0.00000000000E+00 0.  1.
</event>
<event>
 7    1  0.2972263E-013  0.7246155E+02  0.7816164E-02  0.1226708E+00
        -11   -1    0    0    0    0  0.00000000000E+00  0.00000000000E+00  0.45593999997E+02  0.45594000000E+02  0.51100000000E-03 0.  1.
         11   -1    0    0    0    0 -0.00000000000E+00 -0.00000000000E+00 -0.45593999997E+02  0.45594000000E+02  0.51100000000E-03 0. -1.
    9900012    2    1    2    0    0 -0.17840875668E+02  0.56206661054E+01 -0.88945191605E+00  0.72461551944E+02  0.69999976095E+02 0.  0.
         12    1    1    2    0    0  0.17840875668E+02 -0.56206661054E+01  0.88945191605E+00  0.18726448056E+02  0.00000000000E+00 0. -1.
         11    1    3    3    0    0  0.48637671799E+01 -0.33243793131E+00 -0.77574546059E+01  0.91621421285E+01  0.51100000000E-03 0. -1.
        -11    1    3    3    0    0 -0.30400848099E+02 -0.19644700216E+02  0.38517868899E+01  0.36400028492E+02  0.51100000000E-03 0.  1.
         12    1    3    3    0    0  0.76962052507E+01  0.25597804253E+02  0.30162158000E+01  0.26899381323E+02  0.00000000000E+00 0. -1.
</event>
<event>
 7    1  0.2972263E-013  0.7246161E+02  0.7816164E-02  0.1226708E+00
        -11   -1    0    0    0    0  0.00000000000E+00  0.00000000000E+00  0.45593999997E+02  0.45594000000E+02  0.51100000000E-03 0.  1.
         11   -1    0    0    0    0 -0.00000000000E+00 -0.00000000000E+00 -0.45593999997E+02  0.45594000000E+02  0.51100000000E-03 0. -1.
    9900012    2    1    2    0    0 -0.11737604348E+02  0.73601574804E+01  0.12598983020E+02  0.72461610944E+02  0.70000052953E+02 0.  0.
         12    1    1    2    0    0  0.11737604348E+02 -0.73601574804E+01 -0.12598983020E+02  0.18726389056E+02  0.00000000000E+00 0. -1.
         11    1    3    3    0    0  0.66888510025E+01 -0.28738134423E+01 -0.10875497497E+01  0.73608624599E+01  0.51100000000E-03 0. -1.
        -11    1    3    3    0    0  0.18853845884E+02  0.13251981007E+02  0.15303269142E+02  0.27663560001E+02  0.51100000000E-03 0.  1.
        -12    1    3    3    0    0 -0.37280301235E+02 -0.30180100839E+01 -0.16167363727E+01  0.37437188483E+02  0.00000000000E+00 0.  1.
</event>
<event>
 7    1  0.2972263E-013  0.7246157E+02  0.7816164E-02  0.1226708E+00
        -11   -1    0    0    0    0  0.00000000000E+00  0.00000000000E+00  0.45593999997E+02  0.45594000000E+02  0.51100000000E-03 0.  1.
         11   -1    0    0    0    0 -0.00000000000E+00 -0.00000000000E+00 -0.45593999997E+02  0.45594000000E+02  0.51100000000E-03 0. -1.
    9900012    2    1    2    0    0 -0.14784215896E+02 -0.13094234306E+01  0.11418920181E+02  0.72461565009E+02  0.69999993115E+02 0.  0.
         12    1    1    2    0    0  0.14784215896E+02  0.13094234306E+01 -0.11418920181E+02  0.18726434991E+02  0.00000000000E+00 0. -1.
         11    1    3    3    0    0 -0.64509781333E+01 -0.52454904311E+01 -0.19683964388E+01  0.85442889429E+01  0.51100000000E-03 0. -1.
        -11    1    3    3    0    0 -0.78613512209E+01 -0.28083651093E+02  0.12903768838E+02  0.31890430418E+02  0.51100000000E-03 0.  1.
         12    1    3    3    0    0 -0.47188654156E+00  0.32019718094E+02  0.48354778227E+00  0.32026845648E+02  0.00000000000E+00 0. -1.
</event>
<event>
 7    1  0.2972263E-013  0.7246140E+02  0.7816164E-02  0.1226708E+00
        -11   -1    0    0    0    0  0.00000000000E+00  0.00000000000E+00  0.45593999997E+02  0.45594000000E+02  0.51100000000E-03 0.  1.
         11   -1    0    0    0    0 -0.00000000000E+00 -0.00000000000E+00 -0.45593999997E+02  0.45594000000E+02  0.51100000000E-03 0. -1.
    9900012    2    1    2    0    0  0.11109636083E+02 -0.13941242940E+02  0.57361338241E+01  0.72461401274E+02  0.69999779819E+02 0.  0.
         12    1    1    2    0    0 -0.11109636083E+02  0.13941242940E+02 -0.57361338241E+01  0.18726598726E+02  0.00000000000E+00 0. -1.
         11    1    3    3    0    0 -0.95570355081E+00 -0.24444446773E+02  0.11267659288E+01  0.24489057741E+02  0.51100000000E-03 0. -1.
        -11    1    3    3    0    0  0.15766338378E+02 -0.10630459414E+02  0.14918234982E+02  0.24168943470E+02  0.51100000000E-03 0.  1.
         12    1    3    3    0    0 -0.37009987442E+01  0.21133663247E+02 -0.10308867087E+02  0.23803400063E+02  0.00000000000E+00 0. -1.
</event>
<event>
 7    1  0.2972263E-013  0.7246157E+02  0.7816164E-02  0.1226708E+00
        -11   -1    0    0    0    0  0.00000000000E+00  0.00000000000E+00  0.45593999997E+02  0.45594000000E+02  0.51100000000E-03 0. -1.
         11   -1    0    0    0    0 -0.00000000000E+00 -0.00000000000E+00 -0.45593999997E+02  0.45594000000E+02  0.51100000000E-03 0.  1.
    9900012    2    1    2    0    0  0.64281829864E+01 -0.96864180769E+01 -0.14680973870E+02  0.72461568802E+02  0.69999998055E+02 0.  0.
         12    1    1    2    0    0 -0.64281829864E+01  0.96864180769E+01  0.14680973870E+02  0.18726431198E+02  0.00000000000E+00 0. -1.
         11    1    3    3    0    0 -0.12502606108E+02  0.60281493719E+01 -0.30995419953E+01  0.14221846054E+02  0.51100000000E-03 0. -1.
        -11    1    3    3    0    0 -0.81014555801E+01 -0.17080702555E+01 -0.23978030853E+02  0.25367243650E+02  0.51100000000E-03 0.  1.
         12    1    3    3    0    0  0.27032244675E+02 -0.14006497193E+02  0.12396598979E+02  0.32872479098E+02  0.00000000000E+00 0. -1.
</event>
<event>
 7    1  0.2972263E-013  0.7246157E+02  0.7816164E-02  0.1226708E+00
        -11   -1    0    0    0    0  0.00000000000E+00  0.00000000000E+00  0.45593999997E+02  0.45594000000E+02  0.51100000000E-03 0. -1.
         11   -1    0    0    0    0 -0.00000000000E+00 -0.00000000000E+00 -0.45593999997E+02  0.45594000000E+02  0.51100000000E-03 0.  1.
    9900012    2    1    2    0    0  0.49134249759E+01 -0.83234228844E+01 -0.16039269610E+02  0.72461567261E+02  0.69999996049E+02 0.  0.
         12    1    1    2    0    0 -0.49134249759E+01  0.83234228844E+01  0.16039269610E+02  0.18726432739E+02  0.00000000000E+00 0. -1.
         11    1    3    3    0    0 -0.14272499447E+02  0.91929417414E+01 -0.31194976380E+01  0.17261103212E+02  0.51100000000E-03 0. -1.
        -11    1    3    3    0    0  0.30560151466E+01  0.95119088202E+01 -0.20517818617E+02  0.22820966654E+02  0.51100000000E-03 0.  1.
         12    1    3    3    0    0  0.16129909276E+02 -0.27028273446E+02  0.75980466450E+01  0.32379497395E+02  0.00000000000E+00 0. -1.
</event>
<event>
 7    1  0.2972263E-013  0.7246164E+02  0.7816164E-02  0.1226708E+00
        -11   -1    0    0    0    0  0.00000000000E+00  0.00000000000E+00  0.45593999997E+02  0.45594000000E+02  0.51100000000E-03 0. -1.
         11   -1    0    0    0    0 -0.00000000000E+00 -0.00000000000E+00 -0.45593999997E+02  0.45594000000E+02  0.51100000000E-03 0.  1.
    9900012    2    1    2    0    0 -0.81633302848E+01 -0.67843921391E+01 -0.15427525144E+02  0.72461642369E+02  0.70000093891E+02 0.  0.
         12    1    1    2    0    0  0.81633302848E+01  0.67843921391E+01  0.15427525144E+02  0.18726357631E+02  0.00000000000E+00 0. -1.
         11    1    3    3    0    0 -0.30198256719E+02  0.21249627577E+01  0.68091418183E+01  0.31029253748E+02  0.51100000000E-03 0. -1.
        -11    1    3    3    0    0  0.31888255451E+01  0.78489013631E+01 -0.11316578468E+01  0.85471931479E+01  0.51100000000E-03 0.  1.
        -12    1    3    3    0    0  0.18846100889E+02 -0.16758256260E+02 -0.21105009116E+02  0.32885195474E+02  0.00000000000E+00 0.  1.
</event>
<event>
 7    1  0.2972263E-013  0.7246158E+02  0.7816164E-02  0.1226708E+00
        -11   -1    0    0    0    0  0.00000000000E+00  0.00000000000E+00  0.45593999997E+02  0.45594000000E+02  0.51100000000E-03 0.  1.
         11   -1    0    0    0    0 -0.00000000000E+00 -0.00000000000E+00 -0.45593999997E+02  0.45594000000E+02  0.51100000000E-03 0. -1.
    9900012    2    1    2    0    0  0.11884407289E+02  0.94438640495E+01  0.10965997434E+02  0.72461580040E+02  0.70000012695E+02 0.  0.
         12    1    1    2    0    0 -0.11884407289E+02 -0.94438640495E+01 -0.10965997434E+02  0.18726419960E+02  0.00000000000E+00 0. -1.
         11    1    3    3    0    0  0.30587351619E+01 -0.14195507226E+02  0.23732677626E+02  0.27822801329E+02  0.51100000000E-03 0. -1.
        -11    1    3    3    0    0  0.20527552021E+02  0.94556148025E+01 -0.63518203395E+00  0.22609566553E+02  0.51100000000E-03 0.  1.
        -12    1    3    3    0    0 -0.11701879893E+02  0.14183756473E+02 -0.12131498158E+02  0.22029212158E+02  0.00000000000E+00 0.  1.
</event>
<event>
 7    1  0.2972263E-013  0.7246162E+02  0.7816164E-02  0.1226708E+00
        -11   -1    0    0    0    0  0.00000000000E+00  0.00000000000E+00  0.45593999997E+02  0.45594000000E+02  0.51100000000E-03 0.  1.
         11   -1    0    0    0    0 -0.00000000000E+00 -0.00000000000E+00 -0.45593999997E+02  0.45594000000E+02  0.51100000000E-03 0. -1.
    9900012    2    1    2    0    0 -0.11454528771E+02 -0.39386348878E+01  0.14281392425E+02  0.72461621713E+02  0.70000066982E+02 0.  0.
         12    1    1    2    0    0  0.11454528771E+02  0.39386348878E+01 -0.14281392425E+02  0.18726378287E+02  0.00000000000E+00 0. -1.
         11    1    3    3    0    0 -0.23970813676E+01 -0.16645424503E+01 -0.57189370331E+01  0.64205094581E+01  0.51100000000E-03 0. -1.
        -11    1    3    3    0    0 -0.31303471900E+02  0.15056290715E+02  0.11402092169E+02  0.36559635518E+02  0.51100000000E-03 0.  1.
         12    1    3    3    0    0  0.22246024497E+02 -0.17330383153E+02  0.85982372888E+01  0.29481476737E+02  0.00000000000E+00 0. -1.
</event>
<event>
 7    1  0.2972263E-013  0.7246153E+02  0.7816164E-02  0.1226708E+00
        -11   -1    0    0    0    0  0.00000000000E+00  0.00000000000E+00  0.45593999997E+02  0.45594000000E+02  0.51100000000E-03 0. -1.
         11   -1    0    0    0    0 -0.00000000000E+00 -0.00000000000E+00 -0.45593999997E+02  0.45594000000E+02  0.51100000000E-03 0.  1.
    9900012    2    1    2    0    0  0.15789254899E+02  0.66228405753E+01 -0.75840630524E+01  0.72461532102E+02  0.69999950247E+02 0.  0.
         12    1    1    2    0    0 -0.15789254899E+02 -0.66228405753E+01  0.75840630524E+01  0.18726467898E+02  0.00000000000E+00 0. -1.
         11    1    3    3    0    0  0.20813637236E+02 -0.29248268612E+01  0.14381596713E+02  0.25467477917E+02  0.51100000000E-03 0. -1.
        -11    1    3    3    0    0  0.63239191940E+01  0.43107101864E+01  0.10045901108E+02  0.12629105495E+02  0.51100000000E-03 0.  1.
        -12    1    3    3    0    0 -0.11348301531E+02  0.52369572502E+01 -0.32011560873E+02  0.34364948689E+02  0.00000000000E+00 0.  1.
</event>
<event>
 7    1  0.2972263E-013  0.7246174E+02  0.7816164E-02  0.1226708E+00
        -11   -1    0    0    0    0  0.00000000000E+00  0.00000000000E+00  0.45593999997E+02  0.45594000000E+02  0.51100000000E-03 0.  1.
         11   -1    0    0    0    0 -0.00000000000E+00 -0.00000000000E+00 -0.45593999997E+02  0.45594000000E+02  0.51100000000E-03 0. -1.
    9900012    2    1    2    0    0  0.70384279225E+00  0.18362859831E+02  0.36031593689E+01  0.72461741076E+02  0.70000222474E+02 0.  0.
         12    1    1    2    0    0 -0.70384279225E+00 -0.18362859831E+02 -0.36031593689E+01  0.18726258924E+02  0.00000000000E+00 0. -1.
         11    1    3    3    0    0 -0.16740115413E+02  0.34162224242E+02 -0.76051151951E+01  0.38795963792E+02  0.51100000000E-03 0. -1.
        -11    1    3    3    0    0 -0.40799697161E+01 -0.73131500330E+01  0.12093439067E+01  0.84611364033E+01  0.51100000000E-03 0.  1.
        -12    1    3    3    0    0  0.21523927921E+02 -0.84862143778E+01  0.99989306572E+01  0.25204640880E+02  0.00000000000E+00 0.  1.
</event>
<event>
 7    1  0.2972263E-013  0.7246160E+02  0.7816164E-02  0.1226708E+00
        -11   -1    0    0    0    0  0.00000000000E+00  0.00000000000E+00  0.45593999997E+02  0.45594000000E+02  0.51100000000E-03 0.  1.
         11   -1    0    0    0    0 -0.00000000000E+00 -0.00000000000E+00 -0.45593999997E+02  0.45594000000E+02  0.51100000000E-03 0. -1.
    9900012    2    1    2    0    0  0.55799935122E+01 -0.14798613892E+02  0.10027110417E+02  0.72461595005E+02  0.70000032190E+02 0.  0.
         12    1    1    2    0    0 -0.55799935122E+01  0.14798613892E+02 -0.10027110417E+02  0.18726404995E+02  0.00000000000E+00 0. -1.
         11    1    3    3    0    0  0.14661631632E+02  0.15660752277E+02 -0.50373479027E+01  0.22036276413E+02  0.51100000000E-03 0. -1.
        -11    1    3    3    0    0 -0.13471288538E+02 -0.40656095360E+01 -0.70262298193E+01  0.15728086391E+02  0.51100000000E-03 0.  1.
        -12    1    3    3    0    0  0.43896504180E+01 -0.26393756632E+02  0.22090688139E+02  0.34697232201E+02  0.00000000000E+00 0.  1.
</event>
<event>
 7    1  0.2972263E-013  0.7246156E+02  0.7816164E-02  0.1226708E+00
        -11   -1    0    0    0    0  0.00000000000E+00  0.00000000000E+00  0.45593999997E+02  0.45594000000E+02  0.51100000000E-03 0. -1.
         11   -1    0    0    0    0 -0.00000000000E+00 -0.00000000000E+00 -0.45593999997E+02  0.45594000000E+02  0.51100000000E-03 0.  1.
    9900012    2    1    2    0    0 -0.34401751509E+00  0.17328983997E+02 -0.70899620925E+01  0.72461558883E+02  0.69999985135E+02 0.  0.
         12    1    1    2    0    0  0.34401751509E+00 -0.17328983997E+02  0.70899620925E+01  0.18726441117E+02  0.00000000000E+00 0. -1.
         11    1    3    3    0    0 -0.13906691217E+02  0.13929121530E+02 -0.62731264024E+01  0.20658378502E+02  0.51100000000E-03 0. -1.
        -11    1    3    3    0    0 -0.33927854661E+01  0.15605796815E+02  0.17733060486E+02  0.23864478245E+02  0.51100000000E-03 0.  1.
        -12    1    3    3    0    0  0.16955459168E+02 -0.12205934348E+02 -0.18549896176E+02  0.27938702136E+02  0.00000000000E+00 0.  1.
</event>
<event>
 7    1  0.2972263E-013  0.7246156E+02  0.7816164E-02  0.1226708E+00
        -11   -1    0    0    0    0  0.00000000000E+00  0.00000000000E+00  0.45593999997E+02  0.45594000000E+02  0.51100000000E-03 0.  1.
         11   -1    0    0    0    0 -0.00000000000E+00 -0.00000000000E+00 -0.45593999997E+02  0.45594000000E+02  0.51100000000E-03 0. -1.
    9900012    2    1    2    0    0  0.13441639980E+02  0.10407240489E+02 -0.78543762867E+01  0.72461559687E+02  0.69999986182E+02 0.  0.
         12    1    1    2    0    0 -0.13441639980E+02 -0.10407240489E+02  0.78543762867E+01  0.18726440313E+02  0.00000000000E+00 0. -1.
         11    1    3    3    0    0 -0.89687669064E+01 -0.84185101757E+01 -0.23976567670E+02  0.26947836479E+02  0.51100000000E-03 0. -1.
        -11    1    3    3    0    0 -0.32157202508E+01 -0.55716424468E+01 -0.43707541436E+00  0.64478749573E+01  0.51100000000E-03 0.  1.
        -12    1    3    3    0    0  0.25626127137E+02  0.24397393111E+02  0.16559266797E+02  0.39065848251E+02  0.00000000000E+00 0.  1.
</event>
<event>
 7    1  0.2972263E-013  0.7246158E+02  0.7816164E-02  0.1226708E+00
        -11   -1    0    0    0    0  0.00000000000E+00  0.00000000000E+00  0.45593999997E+02  0.45594000000E+02  0.51100000000E-03 0.  1.
         11   -1    0    0    0    0 -0.00000000000E+00 -0.00000000000E+00 -0.45593999997E+02  0.45594000000E+02  0.51100000000E-03 0. -1.
    9900012    2    1    2    0    0 -0.38866706838E+01 -0.93406265497E+01  0.15758337322E+02  0.72461582604E+02  0.70000016036E+02 0.  0.
         12    1    1    2    0    0  0.38866706838E+01  0.93406265497E+01 -0.15758337322E+02  0.18726417396E+02  0.00000000000E+00 0. -1.
         11    1    3    3    0    0  0.13699350242E+02  0.57486716240E+01 -0.19093259491E+02  0.24192395102E+02  0.51100000000E-03 0. -1.
        -11    1    3    3    0    0 -0.10792054981E+02  0.36670615930E+01  0.51918407934E+01  0.12524815468E+02  0.51100000000E-03 0.  1.
        -12    1    3    3    0    0 -0.67939659454E+01 -0.18756359767E+02  0.29659756019E+02  0.35744372034E+02  0.00000000000E+00 0.  1.
</event>
<event>
 7    1  0.2972263E-013  0.7246132E+02  0.7816164E-02  0.1226709E+00
        -11   -1    0    0    0    0  0.00000000000E+00  0.00000000000E+00  0.45593999997E+02  0.45594000000E+02  0.51100000000E-03 0.  1.
         11   -1    0    0    0    0 -0.00000000000E+00 -0.00000000000E+00 -0.45593999997E+02  0.45594000000E+02  0.51100000000E-03 0. -1.
    9900012    2    1    2    0    0  0.11018369286E+02 -0.11921021811E+01  0.15095126847E+02  0.72461323203E+02  0.69999678117E+02 0.  0.
         12    1    1    2    0    0 -0.11018369286E+02  0.11921021811E+01 -0.15095126847E+02  0.18726676797E+02  0.00000000000E+00 0. -1.
         11    1    3    3    0    0  0.41926540295E+00 -0.57682736182E+01 -0.16298209794E+02  0.17293941331E+02  0.51100000000E-03 0. -1.
        -11    1    3    3    0    0 -0.14040675547E+01  0.75734601545E+01 -0.96228813283E+01  0.12325929974E+02  0.51100000000E-03 0.  1.
        -12    1    3    3    0    0  0.12003171438E+02 -0.29972887174E+01  0.41016217969E+02  0.42841451898E+02  0.00000000000E+00 0.  1.
</event>
<event>
 7    1  0.2972263E-013  0.7246155E+02  0.7816164E-02  0.1226708E+00
        -11   -1    0    0    0    0  0.00000000000E+00  0.00000000000E+00  0.45593999997E+02  0.45594000000E+02  0.51100000000E-03 0.  1.
         11   -1    0    0    0    0 -0.00000000000E+00 -0.00000000000E+00 -0.45593999997E+02  0.45594000000E+02  0.51100000000E-03 0. -1.
    9900012    2    1    2    0    0 -0.12811784004E+02 -0.62795618581E+01  0.12128697957E+02  0.72461547569E+02  0.69999970396E+02 0.  0.
         12    1    1    2    0    0  0.12811784004E+02  0.62795618581E+01 -0.12128697957E+02  0.18726452431E+02  0.00000000000E+00 0. -1.
         11    1    3    3    0    0 -0.30201213022E+02 -0.18837842770E+02 -0.33024903139E+01  0.35747503840E+02  0.51100000000E-03 0. -1.
        -11    1    3    3    0    0 -0.94149578627E+00 -0.31370441920E+00 -0.57806246222E+01  0.58651893458E+01  0.51100000000E-03 0.  1.
        -12    1    3    3    0    0  0.18330924804E+02  0.12871985331E+02  0.21211812894E+02  0.30848854383E+02  0.00000000000E+00 0.  1.
</event>
<event>
 7    1  0.2972263E-013  0.7246169E+02  0.7816164E-02  0.1226708E+00
        -11   -1    0    0    0    0  0.00000000000E+00  0.00000000000E+00  0.45593999997E+02  0.45594000000E+02  0.51100000000E-03 0.  1.
         11   -1    0    0    0    0 -0.00000000000E+00 -0.00000000000E+00 -0.45593999997E+02  0.45594000000E+02  0.51100000000E-03 0. -1.
    9900012    2    1    2    0    0  0.11369829088E+02 -0.12952467537E+02  0.73236000450E+01  0.72461693733E+02  0.70000160802E+02 0.  0.
         12    1    1    2    0    0 -0.11369829088E+02  0.12952467537E+02 -0.73236000450E+01  0.18726306267E+02  0.00000000000E+00 0. -1.
         11    1    3    3    0    0  0.20470051506E+02  0.21849649631E+02  0.80867089524E+01  0.31013304558E+02  0.51100000000E-03 0. -1.
        -11    1    3    3    0    0 -0.59222165468E+01 -0.20091127460E+01 -0.52914817748E+01  0.81920060112E+01  0.51100000000E-03 0.  1.
        -12    1    3    3    0    0 -0.31780058715E+01 -0.32793004422E+02  0.45283728674E+01  0.33256383164E+02  0.00000000000E+00 0.  1.
</event>
<event>
 7    1  0.2972263E-013  0.7246153E+02  0.7816164E-02  0.1226708E+00
        -11   -1    0    0    0    0  0.00000000000E+00  0.00000000000E+00  0.45593999997E+02  0.45594000000E+02  0.51100000000E-03 0.  1.
         11   -1    0    0    0    0 -0.00000000000E+00 -0.00000000000E+00 -0.45593999997E+02  0.45594000000E+02  0.51100000000E-03 0. -1.
    9900012    2    1    2    0    0 -0.15777937364E+01 -0.41331528614E+01  0.18196378571E+02  0.72461532668E+02  0.69999950984E+02 0.  0.
         12    1    1    2    0    0  0.15777937364E+01  0.41331528614E+01 -0.18196378571E+02  0.18726467332E+02  0.00000000000E+00 0. -1.
         11    1    3    3    0    0 -0.13298874795E+02  0.87104467644E+01  0.92766042969E+01  0.18406176713E+02  0.51100000000E-03 0. -1.
        -11    1    3    3    0    0  0.13972046238E+02  0.14055605179E+02 -0.88847804153E+01  0.21719056985E+02  0.51100000000E-03 0.  1.
        -12    1    3    3    0    0 -0.22509651798E+01 -0.26899204805E+02  0.17804554689E+02  0.32336298970E+02  0.00000000000E+00 0.  1.
</event>
<event>
 7    1  0.2972263E-013  0.7246167E+02  0.7816164E-02  0.1226708E+00
        -11   -1    0    0    0    0  0.00000000000E+00  0.00000000000E+00  0.45593999997E+02  0.45594000000E+02  0.51100000000E-03 0. -1.
         11   -1    0    0    0    0 -0.00000000000E+00 -0.00000000000E+00 -0.45593999997E+02  0.45594000000E+02  0.51100000000E-03 0.  1.
    9900012    2    1    2    0    0 -0.70361932983E+01  0.39055237852E+01 -0.16908996570E+02  0.72461673687E+02  0.70000134688E+02 0.  0.
         12    1    1    2    0    0  0.70361932983E+01 -0.39055237852E+01  0.16908996570E+02  0.18726326313E+02  0.00000000000E+00 0. -1.
         11    1    3    3    0    0  0.35962226437E+01 -0.85738419822E+01  0.93144784583E+01  0.13160664605E+02  0.51100000000E-03 0. -1.
        -11    1    3    3    0    0  0.10882065715E+02 -0.14760058732E+02 -0.11122623195E+02  0.21447410916E+02  0.51100000000E-03 0.  1.
        -12    1    3    3    0    0 -0.21514481657E+02  0.27239424499E+02 -0.15100851834E+02  0.37853598166E+02  0.00000000000E+00 0.  1.
</event>
<event>
 7    1  0.2972263E-013  0.7246161E+02  0.7816164E-02  0.1226708E+00
        -11   -1    0    0    0    0  0.00000000000E+00  0.00000000000E+00  0.45593999997E+02  0.45594000000E+02  0.51100000000E-03 0. -1.
         11   -1    0    0    0    0 -0.00000000000E+00 -0.00000000000E+00 -0.45593999997E+02  0.45594000000E+02  0.51100000000E-03 0.  1.
    9900012    2    1    2    0    0  0.38494281683E+01 -0.16458513322E+02 -0.80608374217E+01  0.72461605314E+02  0.70000045620E+02 0.  0.
         12    1    1    2    0    0 -0.38494281683E+01  0.16458513322E+02  0.80608374217E+01  0.18726394686E+02  0.00000000000E+00 0. -1.
         11    1    3    3    0    0  0.26501792526E+02 -0.34971290709E+01 -0.93530381284E+01  0.28320562164E+02  0.51100000000E-03 0. -1.
        -11    1    3    3    0    0 -0.12903713335E+02 -0.24450398338E+02 -0.44771178822E+01  0.28006648881E+02  0.51100000000E-03 0.  1.
         12    1    3    3    0    0 -0.97486510225E+01  0.11489014087E+02  0.57693185889E+01  0.16134394269E+02  0.00000000000E+00 0. -1.
</event>
<event>
 7    1  0.2972263E-013  0.7246155E+02  0.7816164E-02  0.1226708E+00
        -11   -1    0    0    0    0  0.00000000000E+00  0.00000000000E+00  0.45593999997E+02  0.45594000000E+02  0.51100000000E-03 0.  1.
         11   -1    0    0    0    0 -0.00000000000E+00 -0.00000000000E+00 -0.45593999997E+02  0.45594000000E+02  0.51100000000E-03 0. -1.
    9900012    2    1    2    0    0 -0.98370876011E+01 -0.29270946125E+01  0.15663457042E+02  0.72461546469E+02  0.69999968963E+02 0.  0.
         12    1    1    2    0    0  0.98370876011E+01  0.29270946125E+01 -0.15663457042E+02  0.18726453531E+02  0.00000000000E+00 0. -1.
         11    1    3    3    0    0 -0.73075334779E+01  0.20561955421E+02  0.52453876366E+01  0.22443443318E+02  0.51100000000E-03 0. -1.
        -11    1    3    3    0    0 -0.16701108627E+02  0.41390801175E+01 -0.18377904723E+00  0.17207346937E+02  0.51100000000E-03 0.  1.
        -12    1    3    3    0    0  0.14171554504E+02 -0.27628130151E+02  0.10601848453E+02  0.32810756214E+02  0.00000000000E+00 0.  1.
</event>
<event>
 7    1  0.2972263E-013  0.7246152E+02  0.7816164E-02  0.1226708E+00
        -11   -1    0    0    0    0  0.00000000000E+00  0.00000000000E+00  0.45593999997E+02  0.45594000000E+02  0.51100000000E-03 0. -1.
         11   -1    0    0    0    0 -0.00000000000E+00 -0.00000000000E+00 -0.45593999997E+02  0.45594000000E+02  0.51100000000E-03 0.  1.
    9900012    2    1    2    0    0  0.85440041589E+01 -0.62634347277E+01 -0.15441835310E+02  0.72461524106E+02  0.69999939831E+02 0.  0.
         12    1    1    2    0    0 -0.85440041589E+01  0.62634347277E+01  0.15441835310E+02  0.18726475894E+02  0.00000000000E+00 0. -1.
         11    1    3    3    0    0  0.13250783082E+02 -0.56178053279E+01 -0.17605412454E+02  0.22739690784E+02  0.51100000000E-03 0.  1.
        -11    1    3    3    0    0  0.25621616268E+01 -0.23654111776E+02 -0.54711080179E+01  0.24413412283E+02  0.51100000000E-03 0. -1.
         12    1    3    3    0    0 -0.72689405502E+01  0.23008482376E+02  0.76346851615E+01  0.25308421039E+02  0.00000000000E+00 0. -1.
</event>
<event>
 7    1  0.2972263E-013  0.7246157E+02  0.7816164E-02  0.1226708E+00
        -11   -1    0    0    0    0  0.00000000000E+00  0.00000000000E+00  0.45593999997E+02  0.45594000000E+02  0.51100000000E-03 0. -1.
         11   -1    0    0    0    0 -0.00000000000E+00 -0.00000000000E+00 -0.45593999997E+02  0.45594000000E+02  0.51100000000E-03 0.  1.
    9900012    2    1    2    0    0  0.13622716314E+02  0.12713160988E+02  0.18645329335E+01  0.72461565605E+02  0.69999993891E+02 0.  0.
         12    1    1    2    0    0 -0.13622716314E+02 -0.12713160988E+02 -0.18645329335E+01  0.18726434395E+02  0.00000000000E+00 0. -1.
         11    1    3    3    0    0 -0.12103031782E+02  0.11447305399E+00 -0.10908556656E+02  0.16293958726E+02  0.51100000000E-03 0. -1.
        -11    1    3    3    0    0  0.18310108739E+01 -0.16736502309E+02  0.47081787096E+01  0.17482278381E+02  0.51100000000E-03 0.  1.
        -12    1    3    3    0    0  0.23894737222E+02  0.29335190243E+02  0.80649108799E+01  0.38685328498E+02  0.00000000000E+00 0.  1.
</event>
<event>
 7    1  0.2972263E-013  0.7246155E+02  0.7816164E-02  0.1226708E+00
        -11   -1    0    0    0    0  0.00000000000E+00  0.00000000000E+00  0.45593999997E+02  0.45594000000E+02  0.51100000000E-03 0.  1.
         11   -1    0    0    0    0 -0.00000000000E+00 -0.00000000000E+00 -0.45593999997E+02  0.45594000000E+02  0.51100000000E-03 0. -1.
    9900012    2    1    2    0    0 -0.12816210792E+02 -0.13424165497E+02  0.24932466991E+01  0.72461554596E+02  0.69999979550E+02 0.  0.
         12    1    1    2    0    0  0.12816210792E+02  0.13424165497E+02 -0.24932466991E+01  0.18726445404E+02  0.00000000000E+00 0. -1.
         11    1    3    3    0    0  0.10208530430E+02  0.96329896549E+01 -0.18565823556E+02  0.23274414875E+02  0.51100000000E-03 0. -1.
        -11    1    3    3    0    0 -0.66188178697E+01 -0.20086907332E+01 -0.74298162720E+01  0.10151145677E+02  0.51100000000E-03 0.  1.
        -12    1    3    3    0    0 -0.16405923352E+02 -0.21048464419E+02  0.28488886527E+02  0.39035994044E+02  0.00000000000E+00 0.  1.
</event>
<event>
 7    1  0.2972263E-013  0.7246173E+02  0.7816164E-02  0.1226708E+00
        -11   -1    0    0    0    0  0.00000000000E+00  0.00000000000E+00  0.45593999997E+02  0.45594000000E+02  0.51100000000E-03 0.  1.
         11   -1    0    0    0    0 -0.00000000000E+00 -0.00000000000E+00 -0.45593999997E+02  0.45594000000E+02  0.51100000000E-03 0. -1.
    9900012    2    1    2    0    0  0.14745788305E+02  0.50385974198E+01  0.10384971339E+02  0.72461725239E+02  0.70000201845E+02 0.  0.
         12    1    1    2    0    0 -0.14745788305E+02 -0.50385974198E+01 -0.10384971339E+02  0.18726274761E+02  0.00000000000E+00 0. -1.
         11    1    3    3    0    0  0.90016338325E+01 -0.36841261866E+01  0.16430894499E+02  0.19093886239E+02  0.51100000000E-03 0. -1.
        -11    1    3    3    0    0  0.11720309627E+02  0.10476398280E+02  0.20651311700E+02  0.25953752212E+02  0.51100000000E-03 0.  1.
         12    1    3    3    0    0 -0.59761551539E+01 -0.17536746739E+01 -0.26697234860E+02  0.27414086789E+02  0.00000000000E+00 0. -1.
</event>
<event>
 7    1  0.2972263E-013  0.7246157E+02  0.7816164E-02  0.1226708E+00
        -11   -1    0    0    0    0  0.00000000000E+00  0.00000000000E+00  0.45593999997E+02  0.45594000000E+02  0.51100000000E-03 0. -1.
         11   -1    0    0    0    0 -0.00000000000E+00 -0.00000000000E+00 -0.45593999997E+02  0.45594000000E+02  0.51100000000E-03 0.  1.
    9900012    2    1    2    0    0 -0.54612462961E+01 -0.17868176190E+02 -0.12578955972E+01  0.72461568605E+02  0.69999997800E+02 0.  0.
         12    1    1    2    0    0  0.54612462961E+01  0.17868176190E+02  0.12578955972E+01  0.18726431395E+02  0.00000000000E+00 0. -1.
         11    1    3    3    0    0 -0.53844040524E+00 -0.13929777658E+02  0.48418545014E+01  0.14757106049E+02  0.51100000000E-03 0. -1.
        -11    1    3    3    0    0  0.25849466309E+02 -0.60036396527E+01 -0.25707314376E+01  0.26661718960E+02  0.51100000000E-03 0.  1.
         12    1    3    3    0    0 -0.30772272200E+02  0.20652411209E+01 -0.35290186610E+01  0.31042743596E+02  0.00000000000E+00 0. -1.
</event>
<event>
 7    1  0.2972263E-013  0.7246157E+02  0.7816164E-02  0.1226708E+00
        -11   -1    0    0    0    0  0.00000000000E+00  0.00000000000E+00  0.45593999997E+02  0.45594000000E+02  0.51100000000E-03 0. -1.
         11   -1    0    0    0    0 -0.00000000000E+00 -0.00000000000E+00 -0.45593999997E+02  0.45594000000E+02  0.51100000000E-03 0.  1.
    9900012    2    1    2    0    0  0.17347908098E+02  0.58645023801E+01  0.39162411311E+01  0.72461568196E+02  0.69999997266E+02 0.  0.
         12    1    1    2    0    0 -0.17347908098E+02 -0.58645023801E+01 -0.39162411311E+01  0.18726431804E+02  0.00000000000E+00 0. -1.
         11    1    3    3    0    0  0.64462126895E+01  0.15537598207E+02  0.10566901876E+02  0.19865297168E+02  0.51100000000E-03 0. -1.
        -11    1    3    3    0    0  0.30129316311E+02 -0.11725745351E+02 -0.76861228718E+01  0.33231691056E+02  0.51100000000E-03 0.  1.
         12    1    3    3    0    0 -0.19227620903E+02  0.20526495240E+01  0.10354621272E+01  0.19364579971E+02  0.00000000000E+00 0. -1.
</event>
<event>
 7    1  0.2972263E-013  0.7246155E+02  0.7816164E-02  0.1226708E+00
        -11   -1    0    0    0    0  0.00000000000E+00  0.00000000000E+00  0.45593999997E+02  0.45594000000E+02  0.51100000000E-03 0. -1.
         11   -1    0    0    0    0 -0.00000000000E+00 -0.00000000000E+00 -0.45593999997E+02  0.45594000000E+02  0.51100000000E-03 0.  1.
    9900012    2    1    2    0    0 -0.16065856455E+02  0.95890409031E+01 -0.78645248024E+00  0.72461549280E+02  0.69999972625E+02 0.  0.
         12    1    1    2    0    0  0.16065856455E+02 -0.95890409031E+01  0.78645248024E+00  0.18726450720E+02  0.00000000000E+00 0. -1.
         11    1    3    3    0    0  0.56635275721E+01  0.15693416263E+02  0.26714662107E+01  0.16896614766E+02  0.51100000000E-03 0. -1.
        -11    1    3    3    0    0  0.14946305642E+02  0.68263392964E+01 -0.28176702134E+01  0.16671239493E+02  0.51100000000E-03 0.  1.
        -12    1    3    3    0    0 -0.36675689669E+02 -0.12930714656E+02 -0.64024847758E+00  0.38893695021E+02  0.00000000000E+00 0.  1.
</event>
<event>
 7    1  0.2972263E-013  0.7246162E+02  0.7816164E-02  0.1226708E+00
        -11   -1    0    0    0    0  0.00000000000E+00  0.00000000000E+00  0.45593999997E+02  0.45594000000E+02  0.51100000000E-03 0.  1.
         11   -1    0    0    0    0 -0.00000000000E+00 -0.00000000000E+00 -0.45593999997E+02  0.45594000000E+02  0.51100000000E-03 0. -1.
    9900012    2    1    2    0    0 -0.60369019723E+01 -0.11451969377E+02  0.13530911365E+02  0.72461618866E+02  0.70000063273E+02 0.  0.
         12    1    1    2    0    0  0.60369019723E+01  0.11451969377E+02 -0.13530911365E+02  0.18726381134E+02  0.00000000000E+00 0. -1.
         11    1    3    3    0    0 -0.11024580801E+02 -0.93761760387E+01 -0.39558421522E+01  0.15003424487E+02  0.51100000000E-03 0. -1.
        -11    1    3    3    0    0 -0.12314260881E+02  0.17361553974E+02  0.22483000938E+02  0.30960457182E+02  0.51100000000E-03 0.  1.
         12    1    3    3    0    0  0.17301939710E+02 -0.19437347312E+02 -0.49962474213E+01  0.26497737197E+02  0.00000000000E+00 0. -1.
</event>
<event>
 7    1  0.2972263E-013  0.7246176E+02  0.7816164E-02  0.1226708E+00
        -11   -1    0    0    0    0  0.00000000000E+00  0.00000000000E+00  0.45593999997E+02  0.45594000000E+02  0.51100000000E-03 0.  1.
         11   -1    0    0    0    0 -0.00000000000E+00 -0.00000000000E+00 -0.45593999997E+02  0.45594000000E+02  0.51100000000E-03 0. -1.
    9900012    2    1    2    0    0 -0.18256040128E+02  0.41277994241E+01 -0.59184481974E+00  0.72461761469E+02  0.70000249040E+02 0.  0.
         12    1    1    2    0    0  0.18256040128E+02 -0.41277994241E+01  0.59184481974E+00  0.18726238531E+02  0.00000000000E+00 0. -1.
         11    1    3    3    0    0 -0.18235821728E+02 -0.14001108010E+02  0.90189734983E+01  0.24696520055E+02  0.51100000000E-03 0. -1.
        -11    1    3    3    0    0 -0.29860448757E+01 -0.12561585330E+02 -0.10910920607E+02  0.16904380460E+02  0.51100000000E-03 0.  1.
         12    1    3    3    0    0  0.29658264762E+01  0.30690492764E+02  0.13001022886E+01  0.30860860953E+02  0.00000000000E+00 0. -1.
</event>
<event>
 7    1  0.2972263E-013  0.7246152E+02  0.7816164E-02  0.1226708E+00
        -11   -1    0    0    0    0  0.00000000000E+00  0.00000000000E+00  0.45593999997E+02  0.45594000000E+02  0.51100000000E-03 0. -1.
         11   -1    0    0    0    0 -0.00000000000E+00 -0.00000000000E+00 -0.45593999997E+02  0.45594000000E+02  0.51100000000E-03 0.  1.
    9900012    2    1    2    0    0 -0.20798362312E+00  0.13497612742E+02  0.12978919100E+02  0.72461517470E+02  0.69999931187E+02 0.  0.
         12    1    1    2    0    0  0.20798362312E+00 -0.13497612742E+02 -0.12978919100E+02  0.18726482530E+02  0.00000000000E+00 0. -1.
         11    1    3    3    0    0 -0.25480972715E+02  0.24330834748E+02 -0.32149958573E+00  0.35233121523E+02  0.51100000000E-03 0. -1.
        -11    1    3    3    0    0  0.23596590860E+00 -0.33581447312E+00 -0.46590174191E+01  0.46770604917E+01  0.51100000000E-03 0.  1.
        -12    1    3    3    0    0  0.25037023183E+02 -0.10497407532E+02  0.17959436105E+02  0.32551335456E+02  0.00000000000E+00 0.  1.
</event>
<event>
 7    1  0.2972263E-013  0.7246177E+02  0.7816164E-02  0.1226707E+00
        -11   -1    0    0    0    0  0.00000000000E+00  0.00000000000E+00  0.45593999997E+02  0.45594000000E+02  0.51100000000E-03 0. -1.
         11   -1    0    0    0    0 -0.00000000000E+00 -0.00000000000E+00 -0.45593999997E+02  0.45594000000E+02  0.51100000000E-03 0.  1.
    9900012    2    1    2    0    0  0.70307721741E+01 -0.16923130906E+02 -0.38532481174E+01  0.72461771387E+02  0.70000261960E+02 0.  0.
         12    1    1    2    0    0 -0.70307721741E+01  0.16923130906E+02  0.38532481174E+01  0.18726228613E+02  0.00000000000E+00 0. -1.
         11    1    3    3    0    0  0.93881052786E+01 -0.96641295102E+01 -0.10682636680E+02  0.17194494660E+02  0.51100000000E-03 0.  1.
        -11    1    3    3    0    0 -0.94578964142E+01  0.18094033894E+02  0.17468893809E+02  0.26870208751E+02  0.51100000000E-03 0. -1.
         12    1    3    3    0    0  0.71005633096E+01 -0.25353035290E+02 -0.10639505246E+02  0.28397067976E+02  0.00000000000E+00 0. -1.
</event>
<event>
 7    1  0.2972263E-013  0.7246159E+02  0.7816164E-02  0.1226708E+00
        -11   -1    0    0    0    0  0.00000000000E+00  0.00000000000E+00  0.45593999997E+02  0.45594000000E+02  0.51100000000E-03 0.  1.
         11   -1    0    0    0    0 -0.00000000000E+00 -0.00000000000E+00 -0.45593999997E+02  0.45594000000E+02  0.51100000000E-03 0. -1.
    9900012    2    1    2    0    0 -0.12881742062E+02  0.24958698029E+01  0.13360754229E+02  0.72461590889E+02  0.70000026828E+02 0.  0.
         12    1    1    2    0    0  0.12881742062E+02 -0.24958698029E+01 -0.13360754229E+02  0.18726409111E+02  0.00000000000E+00 0. -1.
         11    1    3    3    0    0 -0.13011202710E+02  0.17065768503E+02 -0.10136232094E+01  0.21483930805E+02  0.51100000000E-03 0. -1.
        -11    1    3    3    0    0 -0.12634822684E+02  0.42393633884E+01 -0.10730967758E+02  0.17110365732E+02  0.51100000000E-03 0.  1.
        -12    1    3    3    0    0  0.12764283332E+02 -0.18809262089E+02  0.25105345196E+02  0.33867294352E+02  0.00000000000E+00 0.  1.
</event>
<event>
 7    1  0.2972263E-013  0.7246157E+02  0.7816164E-02  0.1226708E+00
        -11   -1    0    0    0    0  0.00000000000E+00  0.00000000000E+00  0.45593999997E+02  0.45594000000E+02  0.51100000000E-03 0.  1.
         11   -1    0    0    0    0 -0.00000000000E+00 -0.00000000000E+00 -0.45593999997E+02  0.45594000000E+02  0.51100000000E-03 0. -1.
    9900012    2    1    2    0    0  0.11338106134E+02  0.58136867453E+01  0.13723251453E+02  0.72461568553E+02  0.69999997732E+02 0.  0.
         12    1    1    2    0    0 -0.11338106134E+02 -0.58136867453E+01 -0.13723251453E+02  0.18726431447E+02  0.00000000000E+00 0. -1.
         11    1    3    3    0    0 -0.33186911412E+00  0.24352266656E+02 -0.11594499462E+02  0.26973606478E+02  0.51100000000E-03 0. -1.
        -11    1    3    3    0    0 -0.79629321498E+01 -0.31129435057E+01 -0.16814369538E+01  0.87135490004E+01  0.51100000000E-03 0.  1.
        -12    1    3    3    0    0  0.19632907398E+02 -0.15425636405E+02  0.26999187869E+02  0.36774413075E+02  0.00000000000E+00 0.  1.
</event>
<event>
 7    1  0.2972263E-013  0.7246157E+02  0.7816164E-02  0.1226708E+00
        -11   -1    0    0    0    0  0.00000000000E+00  0.00000000000E+00  0.45593999997E+02  0.45594000000E+02  0.51100000000E-03 0.  1.
         11   -1    0    0    0    0 -0.00000000000E+00 -0.00000000000E+00 -0.45593999997E+02  0.45594000000E+02  0.51100000000E-03 0. -1.
    9900012    2    1    2    0    0 -0.11713983618E+02 -0.40774060392E+00 -0.14604636744E+02  0.72461572710E+02  0.70000003147E+02 0.  0.
         12    1    1    2    0    0  0.11713983618E+02  0.40774060392E+00  0.14604636744E+02  0.18726427290E+02  0.00000000000E+00 0. -1.
         11    1    3    3    0    0  0.71143359088E+01  0.14270437405E+02 -0.24636244539E+02  0.29346272411E+02  0.51100000000E-03 0. -1.
        -11    1    3    3    0    0 -0.50629067387E+01  0.99260210784E+01  0.99250140395E+01  0.14921957748E+02  0.51100000000E-03 0.  1.
         12    1    3    3    0    0 -0.13765412788E+02 -0.24604199088E+02  0.10659375501E+00  0.28193342551E+02  0.00000000000E+00 0. -1.
</event>
<event>
 7    1  0.3347181E-013  0.7246154E+02  0.7816164E-02  0.1226708E+00
        -11   -1    0    0    0    0  0.00000000000E+00  0.00000000000E+00  0.45593999997E+02  0.45594000000E+02  0.51100000000E-03 0. -1.
         11   -1    0    0    0    0 -0.00000000000E+00 -0.00000000000E+00 -0.45593999997E+02  0.45594000000E+02  0.51100000000E-03 0.  1.
    9900012    2    1    2    0    0  0.93456033973E+01  0.13063491164E+02 -0.96273178226E+01  0.72461538703E+02  0.69999958846E+02 0.  0.
         12    1    1    2    0    0 -0.93456033973E+01 -0.13063491164E+02  0.96273178226E+01  0.18726461297E+02  0.00000000000E+00 0. -1.
         11    1    3    3    0    0  0.68624098889E+01  0.25492736484E+02  0.86851385844E+01  0.27792155646E+02  0.51100000000E-03 0. -1.
        -11    1    3    3    0    0 -0.14689915226E+02  0.31552511001E+01  0.15248748124E+00  0.15025726989E+02  0.51100000000E-03 0.  1.
        -12    1    3    3    0    0  0.17173108735E+02 -0.15584496420E+02 -0.18464943888E+02  0.29643656068E+02  0.00000000000E+00 0.  1.
</event>
<event>
 7    1  0.2972263E-013  0.7246158E+02  0.7816164E-02  0.1226708E+00
        -11   -1    0    0    0    0  0.00000000000E+00  0.00000000000E+00  0.45593999997E+02  0.45594000000E+02  0.51100000000E-03 0.  1.
         11   -1    0    0    0    0 -0.00000000000E+00 -0.00000000000E+00 -0.45593999997E+02  0.45594000000E+02  0.51100000000E-03 0. -1.
    9900012    2    1    2    0    0 -0.98855675267E+01  0.13861540824E+01  0.15844021452E+02  0.72461577911E+02  0.70000009923E+02 0.  0.
         12    1    1    2    0    0  0.98855675267E+01 -0.13861540824E+01 -0.15844021452E+02  0.18726422089E+02  0.00000000000E+00 0. -1.
         11    1    3    3    0    0  0.10897186930E+02 -0.61264382960E+01  0.12230010827E+02  0.17488713340E+02  0.51100000000E-03 0. -1.
        -11    1    3    3    0    0 -0.64800267533E+01  0.28519388331E+01  0.26586682495E+02  0.27513196619E+02  0.51100000000E-03 0.  1.
        -12    1    3    3    0    0 -0.14302727703E+02  0.46606535453E+01 -0.22972671870E+02  0.27459667953E+02  0.00000000000E+00 0.  1.
</event>
<event>
 7    1  0.2972263E-013  0.7246158E+02  0.7816164E-02  0.1226708E+00
        -11   -1    0    0    0    0  0.00000000000E+00  0.00000000000E+00  0.45593999997E+02  0.45594000000E+02  0.51100000000E-03 0.  1.
         11   -1    0    0    0    0 -0.00000000000E+00 -0.00000000000E+00 -0.45593999997E+02  0.45594000000E+02  0.51100000000E-03 0. -1.
    9900012    2    1    2    0    0 -0.58938954172E+01 -0.98420065078E+01  0.14801204004E+02  0.72461581889E+02  0.70000015104E+02 0.  0.
         12    1    1    2    0    0  0.58938954172E+01  0.98420065078E+01 -0.14801204004E+02  0.18726418111E+02  0.00000000000E+00 0. -1.
         11    1    3    3    0    0  0.31930166491E+00 -0.22659718244E+02  0.65802299727E+01  0.23597970489E+02  0.51100000000E-03 0. -1.
        -11    1    3    3    0    0  0.11514099430E+02 -0.15354895741E+01  0.20048080215E+02  0.23170190644E+02  0.51100000000E-03 0.  1.
         12    1    3    3    0    0 -0.17727296512E+02  0.14353201310E+02 -0.11827106184E+02  0.25693420756E+02  0.00000000000E+00 0. -1.
</event>
<event>
 7    1  0.2972263E-013  0.7246146E+02  0.7816164E-02  0.1226708E+00
        -11   -1    0    0    0    0  0.00000000000E+00  0.00000000000E+00  0.45593999997E+02  0.45594000000E+02  0.51100000000E-03 0. -1.
         11   -1    0    0    0    0 -0.00000000000E+00 -0.00000000000E+00 -0.45593999997E+02  0.45594000000E+02  0.51100000000E-03 0.  1.
    9900012    2    1    2    0    0  0.11742039613E+02 -0.10900295238E+02  0.96949060350E+01  0.72461464453E+02  0.69999862122E+02 0.  0.
         12    1    1    2    0    0 -0.11742039613E+02  0.10900295238E+02 -0.96949060350E+01  0.18726535547E+02  0.00000000000E+00 0. -1.
         11    1    3    3    0    0  0.26064248641E+02  0.82785637912E+01  0.28475305732E+02  0.39480662513E+02  0.51100000000E-03 0. -1.
        -11    1    3    3    0    0 -0.84852217552E+01 -0.24912406178E+01 -0.31642423078E+01  0.93924276784E+01  0.51100000000E-03 0.  1.
        -12    1    3    3    0    0 -0.58369872730E+01 -0.16687618412E+02 -0.15616157389E+02  0.23588374261E+02  0.00000000000E+00 0.  1.
</event>
<event>
 7    1  0.2972263E-013  0.7246154E+02  0.7816164E-02  0.1226708E+00
        -11   -1    0    0    0    0  0.00000000000E+00  0.00000000000E+00  0.45593999997E+02  0.45594000000E+02  0.51100000000E-03 0.  1.
         11   -1    0    0    0    0 -0.00000000000E+00 -0.00000000000E+00 -0.45593999997E+02  0.45594000000E+02  0.51100000000E-03 0. -1.
    9900012    2    1    2    0    0 -0.29731683102E+00  0.16694849162E+02 -0.84778487078E+01  0.72461539989E+02  0.69999960522E+02 0.  0.
         12    1    1    2    0    0  0.29731683102E+00 -0.16694849162E+02  0.84778487078E+01  0.18726460011E+02  0.00000000000E+00 0. -1.
         11    1    3    3    0    0  0.13017864712E+02  0.47034752557E+01 -0.11403343301E+02  0.17933870744E+02  0.51100000000E-03 0. -1.
        -11    1    3    3    0    0  0.14360721947E+02 -0.77922766959E+01  0.10829484854E+02  0.19601725776E+02  0.51100000000E-03 0.  1.
         12    1    3    3    0    0 -0.27675903491E+02  0.19783650602E+02 -0.79039902610E+01  0.34925943469E+02  0.00000000000E+00 0. -1.
</event>
<event>
 7    1  0.2972263E-013  0.7246158E+02  0.7816164E-02  0.1226708E+00
        -11   -1    0    0    0    0  0.00000000000E+00  0.00000000000E+00  0.45593999997E+02  0.45594000000E+02  0.51100000000E-03 0. -1.
         11   -1    0    0    0    0 -0.00000000000E+00 -0.00000000000E+00 -0.45593999997E+02  0.45594000000E+02  0.51100000000E-03 0.  1.
    9900012    2    1    2    0    0 -0.18561951660E+02 -0.22661801496E+01 -0.99858123006E+00  0.72461580524E+02  0.70000013326E+02 0.  0.
         12    1    1    2    0    0  0.18561951660E+02  0.22661801496E+01  0.99858123006E+00  0.18726419476E+02  0.00000000000E+00 0. -1.
         11    1    3    3    0    0  0.57744341540E+01  0.75416362163E+01  0.56374461009E+01  0.11045413773E+02  0.51100000000E-03 0. -1.
        -11    1    3    3    0    0 -0.24022072178E+02 -0.26433844469E+02 -0.19221041945E+02  0.40561762028E+02  0.51100000000E-03 0.  1.
         12    1    3    3    0    0 -0.31431363681E+00  0.16626028103E+02  0.12585014614E+02  0.20854404723E+02  0.00000000000E+00 0. -1.
</event>
<event>
 7    1  0.2972263E-013  0.7246155E+02  0.7816164E-02  0.1226708E+00
        -11   -1    0    0    0    0  0.00000000000E+00  0.00000000000E+00  0.45593999997E+02  0.45594000000E+02  0.51100000000E-03 0.  1.
         11   -1    0    0    0    0 -0.00000000000E+00 -0.00000000000E+00 -0.45593999997E+02  0.45594000000E+02  0.51100000000E-03 0. -1.
    9900012    2    1    2    0    0  0.17589382841E+01  0.10788701415E+00  0.18643350801E+02  0.72461547250E+02  0.69999969981E+02 0.  0.
         12    1    1    2    0    0 -0.17589382841E+01 -0.10788701415E+00 -0.18643350801E+02  0.18726452750E+02  0.00000000000E+00 0. -1.
         11    1    3    3    0    0  0.11861643910E+01 -0.41679719952E+01 -0.22114245928E+01  0.48651182417E+01  0.51100000000E-03 0. -1.
        -11    1    3    3    0    0 -0.21351132558E+02 -0.99172015480E+01 -0.11347932020E+02  0.26134217215E+02  0.51100000000E-03 0.  1.
        -12    1    3    3    0    0  0.21923906451E+02  0.14193060557E+02  0.32202707414E+02  0.41462211794E+02  0.00000000000E+00 0.  1.
</event>
<event>
 7    1  0.2972263E-013  0.7246164E+02  0.7816164E-02  0.1226708E+00
        -11   -1    0    0    0    0  0.00000000000E+00  0.00000000000E+00  0.45593999997E+02  0.45594000000E+02  0.51100000000E-03 0. -1.
         11   -1    0    0    0    0 -0.00000000000E+00 -0.00000000000E+00 -0.45593999997E+02  0.45594000000E+02  0.51100000000E-03 0.  1.
    9900012    2    1    2    0    0 -0.14335272168E+02  0.59097168202E+01  0.10500082512E+02  0.72461641204E+02  0.70000092372E+02 0.  0.
         12    1    1    2    0    0  0.14335272168E+02 -0.59097168202E+01 -0.10500082512E+02  0.18726358796E+02  0.00000000000E+00 0. -1.
         11    1    3    3    0    0  0.78582141034E+01 -0.13516526571E+02 -0.55788512088E+01  0.16600349409E+02  0.51100000000E-03 0. -1.
        -11    1    3    3    0    0  0.10633364107E+02 -0.57393888341E+01  0.46603085815E+01  0.12950964935E+02  0.51100000000E-03 0.  1.
        -12    1    3    3    0    0 -0.32826850378E+02  0.25165632226E+02  0.11418625139E+02  0.42910326859E+02  0.00000000000E+00 0.  1.
</event>
<event>
 7    1  0.2972263E-013  0.7246159E+02  0.7816164E-02  0.1226708E+00
        -11   -1    0    0    0    0  0.00000000000E+00  0.00000000000E+00  0.45593999997E+02  0.45594000000E+02  0.51100000000E-03 0. -1.
         11   -1    0    0    0    0 -0.00000000000E+00 -0.00000000000E+00 -0.45593999997E+02  0.45594000000E+02  0.51100000000E-03 0.  1.
    9900012    2    1    2    0    0  0.10565164870E+02 -0.15292633946E+02  0.22784032013E+01  0.72461588627E+02  0.70000023882E+02 0.  0.
         12    1    1    2    0    0 -0.10565164870E+02  0.15292633946E+02 -0.22784032013E+01  0.18726411373E+02  0.00000000000E+00 0. -1.
         11    1    3    3    0    0 -0.11864381897E+01  0.22670917490E+02  0.91276838622E+01  0.24468198715E+02  0.51100000000E-03 0. -1.
        -11    1    3    3    0    0 -0.12766640760E+01 -0.23649068346E+01  0.71069731239E+01  0.75981394265E+01  0.51100000000E-03 0.  1.
        -12    1    3    3    0    0  0.13028267136E+02 -0.35598644602E+02 -0.13956253785E+02  0.40395250485E+02  0.00000000000E+00 0.  1.
</event>
<event>
 7    1  0.2972263E-013  0.7246157E+02  0.7816164E-02  0.1226708E+00
        -11   -1    0    0    0    0  0.00000000000E+00  0.00000000000E+00  0.45593999997E+02  0.45594000000E+02  0.51100000000E-03 0. -1.
         11   -1    0    0    0    0 -0.00000000000E+00 -0.00000000000E+00 -0.45593999997E+02  0.45594000000E+02  0.51100000000E-03 0.  1.
    9900012    2    1    2    0    0 -0.13811585473E+02  0.53491300002E+01 -0.11458880300E+02  0.72461574212E+02  0.70000005104E+02 0.  0.
         12    1    1    2    0    0  0.13811585473E+02 -0.53491300002E+01  0.11458880300E+02  0.18726425788E+02  0.00000000000E+00 0. -1.
         11    1    3    3    0    0 -0.28683087052E+01 -0.12838432800E+02 -0.16661423167E+01  0.13260037031E+02  0.51100000000E-03 0. -1.
        -11    1    3    3    0    0 -0.50861234398E+01 -0.19300273176E+02  0.21845724552E+00  0.19960383768E+02  0.51100000000E-03 0.  1.
         12    1    3    3    0    0 -0.58571533284E+01  0.37487835976E+02 -0.10011195229E+02  0.39241153413E+02  0.00000000000E+00 0. -1.
</event>
<event>
 7    1  0.2972263E-013  0.7246155E+02  0.7816164E-02  0.1226708E+00
        -11   -1    0    0    0    0  0.00000000000E+00  0.00000000000E+00  0.45593999997E+02  0.45594000000E+02  0.51100000000E-03 0. -1.
         11   -1    0    0    0    0 -0.00000000000E+00 -0.00000000000E+00 -0.45593999997E+02  0.45594000000E+02  0.51100000000E-03 0.  1.
    9900012    2    1    2    0    0  0.11225785243E+02 -0.14987521015E+02  0.18943720018E+00  0.72461550071E+02  0.69999973656E+02 0.  0.
         12    1    1    2    0    0 -0.11225785243E+02  0.14987521015E+02 -0.18943720018E+00  0.18726449929E+02  0.00000000000E+00 0. -1.
         11    1    3    3    0    0  0.84721847511E+01 -0.13906018434E+02  0.59552379837E+01  0.17338400239E+02  0.51100000000E-03 0. -1.
        -11    1    3    3    0    0  0.22187241162E+02 -0.18017869422E+01 -0.20859197787E+02  0.30506167231E+02  0.51100000000E-03 0.  1.
         12    1    3    3    0    0 -0.19433640670E+02  0.72028436197E+00  0.15093397003E+02  0.24616982601E+02  0.00000000000E+00 0. -1.
</event>
<event>
 7    1  0.2972263E-013  0.7246157E+02  0.7816164E-02  0.1226708E+00
        -11   -1    0    0    0    0  0.00000000000E+00  0.00000000000E+00  0.45593999997E+02  0.45594000000E+02  0.51100000000E-03 0. -1.
         11   -1    0    0    0    0 -0.00000000000E+00 -0.00000000000E+00 -0.45593999997E+02  0.45594000000E+02  0.51100000000E-03 0.  1.
    9900012    2    1    2    0    0 -0.14963043554E+01 -0.16383808765E+02 -0.89448821776E+01  0.72461573925E+02  0.70000004730E+02 0.  0.
         12    1    1    2    0    0  0.14963043554E+01  0.16383808765E+02  0.89448821776E+01  0.18726426075E+02  0.00000000000E+00 0. -1.
         11    1    3    3    0    0 -0.10462281336E+02  0.18566037284E+02  0.15069027343E+01  0.21364171580E+02  0.51100000000E-03 0. -1.
        -11    1    3    3    0    0  0.48953321636E+00 -0.22539270919E+02  0.10856327394E+02  0.25022354427E+02  0.51100000000E-03 0.  1.
        -12    1    3    3    0    0  0.84764437647E+01 -0.12410575129E+02 -0.21308112305E+02  0.26075047918E+02  0.00000000000E+00 0.  1.
</event>
<event>
 7    1  0.2972263E-013  0.7246169E+02  0.7816164E-02  0.1226708E+00
        -11   -1    0    0    0    0  0.00000000000E+00  0.00000000000E+00  0.45593999997E+02  0.45594000000E+02  0.51100000000E-03 0. -1.
         11   -1    0    0    0    0 -0.00000000000E+00 -0.00000000000E+00 -0.45593999997E+02  0.45594000000E+02  0.51100000000E-03 0.  1.
    9900012    2    1    2    0    0 -0.56917621658E+01 -0.14827637427E+02 -0.99206705125E+01  0.72461689855E+02  0.70000155750E+02 0.  0.
         12    1    1    2    0    0  0.56917621658E+01  0.14827637427E+02  0.99206705125E+01  0.18726310145E+02  0.00000000000E+00 0. -1.
         11    1    3    3    0    0  0.95902698573E+00 -0.25080296597E+01  0.10625228982E+02  0.10959262599E+02  0.51100000000E-03 0. -1.
        -11    1    3    3    0    0  0.43113390599E+01  0.19364466759E+02  0.36302244797E+01  0.20168012976E+02  0.51100000000E-03 0.  1.
        -12    1    3    3    0    0 -0.10962128211E+02 -0.31684074526E+02 -0.24176123974E+02  0.41334414281E+02  0.00000000000E+00 0.  1.
</event>
<event>
 7    1  0.2972263E-013  0.7246158E+02  0.7816164E-02  0.1226708E+00
        -11   -1    0    0    0    0  0.00000000000E+00  0.00000000000E+00  0.45593999997E+02  0.45594000000E+02  0.51100000000E-03 0.  1.
         11   -1    0    0    0    0 -0.00000000000E+00 -0.00000000000E+00 -0.45593999997E+02  0.45594000000E+02  0.51100000000E-03 0. -1.
    9900012    2    1    2    0    0 -0.15222759593E+02  0.80595755975E+01  0.73477649314E+01  0.72461579682E+02  0.70000012229E+02 0.  0.
         12    1    1    2    0    0  0.15222759593E+02 -0.80595755975E+01 -0.73477649314E+01  0.18726420318E+02  0.00000000000E+00 0. -1.
         11    1    3    3    0    0  0.50711547987E+01  0.11326511099E+02 -0.57551342579E+01  0.13679474963E+02  0.51100000000E-03 0. -1.
        -11    1    3    3    0    0 -0.18255271956E+02  0.23840400529E+02  0.85411626244E+01  0.31218121514E+02  0.51100000000E-03 0.  1.
        -12    1    3    3    0    0 -0.20386424359E+01 -0.27107336031E+02  0.45617365650E+01  0.27563983206E+02  0.00000000000E+00 0.  1.
</event>
<event>
 7    1  0.2972263E-013  0.7246157E+02  0.7816164E-02  0.1226708E+00
        -11   -1    0    0    0    0  0.00000000000E+00  0.00000000000E+00  0.45593999997E+02  0.45594000000E+02  0.51100000000E-03 0.  1.
         11   -1    0    0    0    0 -0.00000000000E+00 -0.00000000000E+00 -0.45593999997E+02  0.45594000000E+02  0.51100000000E-03 0. -1.
    9900012    2    1    2    0    0 -0.48593500587E+01  0.16290297526E+02  0.78544230977E+01  0.72461573788E+02  0.70000004551E+02 0.  0.
         12    1    1    2    0    0  0.48593500587E+01 -0.16290297526E+02 -0.78544230977E+01  0.18726426212E+02  0.00000000000E+00 0. -1.
         11    1    3    3    0    0  0.13303665154E+02  0.18599468679E+01 -0.81769564415E+01  0.15726077890E+02  0.51100000000E-03 0. -1.
        -11    1    3    3    0    0 -0.15869663407E+02  0.31053650743E+02  0.21197205168E+01  0.34938068872E+02  0.51100000000E-03 0.  1.
         12    1    3    3    0    0 -0.22933518053E+01 -0.16623300085E+02  0.13911659022E+02  0.21797427027E+02  0.00000000000E+00 0. -1.
</event>
<event>
 7    1  0.2972263E-013  0.7246157E+02  0.7816164E-02  0.1226708E+00
        -11   -1    0    0    0    0  0.00000000000E+00  0.00000000000E+00  0.45593999997E+02  0.45594000000E+02  0.51100000000E-03 0.  1.
         11   -1    0    0    0    0 -0.00000000000E+00 -0.00000000000E+00 -0.45593999997E+02  0.45594000000E+02  0.51100000000E-03 0. -1.
    9900012    2    1    2    0    0 -0.12098901524E+01  0.15451977235E+02 -0.10509604065E+02  0.72461569154E+02  0.69999998514E+02 0.  0.
         12    1    1    2    0    0  0.12098901524E+01 -0.15451977235E+02  0.10509604065E+02  0.18726430846E+02  0.00000000000E+00 0. -1.
         11    1    3    3    0    0  0.72916785283E+01  0.17055290711E+02  0.15117350715E+02  0.23928765323E+02  0.51100000000E-03 0. -1.
        -11    1    3    3    0    0 -0.13922548960E+02  0.15654968294E+02 -0.58954013020E+01  0.21763987654E+02  0.51100000000E-03 0.  1.
         12    1    3    3    0    0  0.54209802789E+01 -0.17258281770E+02 -0.19731553478E+02  0.26768816176E+02  0.00000000000E+00 0. -1.
</event>
<event>
 7    1  0.2972263E-013  0.7246157E+02  0.7816164E-02  0.1226708E+00
        -11   -1    0    0    0    0  0.00000000000E+00  0.00000000000E+00  0.45593999997E+02  0.45594000000E+02  0.51100000000E-03 0.  1.
         11   -1    0    0    0    0 -0.00000000000E+00 -0.00000000000E+00 -0.45593999997E+02  0.45594000000E+02  0.51100000000E-03 0. -1.
    9900012    2    1    2    0    0 -0.60781477896E+01  0.23896752727E+01  0.17550639162E+02  0.72461565116E+02  0.69999993255E+02 0.  0.
         12    1    1    2    0    0  0.60781477896E+01 -0.23896752727E+01 -0.17550639162E+02  0.18726434884E+02  0.00000000000E+00 0. -1.
         11    1    3    3    0    0 -0.92885827299E+01 -0.27522039177E+01 -0.39590866036E+01  0.10465503453E+02  0.51100000000E-03 0. -1.
        -11    1    3    3    0    0 -0.25905971628E+02 -0.41261683713E+01  0.16612364714E+02  0.31050206007E+02  0.51100000000E-03 0.  1.
         12    1    3    3    0    0  0.29116406568E+02  0.92680475618E+01  0.48973610514E+01  0.30945855657E+02  0.00000000000E+00 0. -1.
</event>
<event>
 7    1  0.2972263E-013  0.7246157E+02  0.7816164E-02  0.1226708E+00
        -11   -1    0    0    0    0  0.00000000000E+00  0.00000000000E+00  0.45593999997E+02  0.45594000000E+02  0.51100000000E-03 0.  1.
         11   -1    0    0    0    0 -0.00000000000E+00 -0.00000000000E+00 -0.45593999997E+02  0.45594000000E+02  0.51100000000E-03 0. -1.
    9900012    2    1    2    0    0  0.11567374246E+01 -0.18309692809E+02  0.37544851833E+01  0.72461573453E+02  0.70000004115E+02 0.  0.
         12    1    1    2    0    0 -0.11567374246E+01  0.18309692809E+02 -0.37544851833E+01  0.18726426547E+02  0.00000000000E+00 0. -1.
         11    1    3    3    0    0  0.30117949743E+01  0.47831836360E+00 -0.20061249768E+02  0.20291708650E+02  0.51100000000E-03 0. -1.
        -11    1    3    3    0    0 -0.94749435920E+01 -0.97304832937E+00 -0.96123648659E+01  0.13532144608E+02  0.51100000000E-03 0.  1.
        -12    1    3    3    0    0  0.76198860423E+01 -0.17814962843E+02  0.33428099817E+02  0.38637720194E+02  0.00000000000E+00 0.  1.
</event>
<event>
 7    1  0.4479416E-013  0.7246155E+02  0.7816164E-02  0.1226708E+00
        -11   -1    0    0    0    0  0.00000000000E+00  0.00000000000E+00  0.45593999997E+02  0.45594000000E+02  0.51100000000E-03 0. -1.
         11   -1    0    0    0    0 -0.00000000000E+00 -0.00000000000E+00 -0.45593999997E+02  0.45594000000E+02  0.51100000000E-03 0.  1.
    9900012    2    1    2    0    0 -0.10132848008E+02  0.14358425007E+02 -0.64684480024E+01  0.72461553541E+02  0.69999978176E+02 0.  0.
         12    1    1    2    0    0  0.10132848008E+02 -0.14358425007E+02  0.64684480024E+01  0.18726446459E+02  0.00000000000E+00 0. -1.
         11    1    3    3    0    0 -0.11630683079E+02  0.86783363212E+00  0.21285640458E+02  0.24271473257E+02  0.51100000000E-03 0. -1.
        -11    1    3    3    0    0  0.99560577472E+01 -0.74843739135E+01 -0.87335882103E-01  0.12455784462E+02  0.51100000000E-03 0.  1.
        -12    1    3    3    0    0 -0.84582226766E+01  0.20974965288E+02 -0.27666752578E+02  0.35734295822E+02  0.00000000000E+00 0.  1.
</event>
<event>
 7    1  0.2972263E-013  0.7246157E+02  0.7816164E-02  0.1226708E+00
        -11   -1    0    0    0    0  0.00000000000E+00  0.00000000000E+00  0.45593999997E+02  0.45594000000E+02  0.51100000000E-03 0.  1.
         11   -1    0    0    0    0 -0.00000000000E+00 -0.00000000000E+00 -0.45593999997E+02  0.45594000000E+02  0.51100000000E-03 0. -1.
    9900012    2    1    2    0    0  0.18291567834E+02  0.28270892265E+01 -0.28469650237E+01  0.72461572226E+02  0.70000002517E+02 0.  0.
         12    1    1    2    0    0 -0.18291567834E+02 -0.28270892265E+01  0.28469650237E+01  0.18726427774E+02  0.00000000000E+00 0. -1.
         11    1    3    3    0    0 -0.21790506202E+02 -0.29741975854E+01 -0.12117278844E+02  0.25109768192E+02  0.51100000000E-03 0. -1.
        -11    1    3    3    0    0 -0.13770897005E+01  0.21779474200E+01  0.48609216202E+01  0.55016715884E+01  0.51100000000E-03 0.  1.
        -12    1    3    3    0    0  0.41459163737E+02  0.36233393919E+01  0.44093922001E+01  0.41850132445E+02  0.00000000000E+00 0.  1.
</event>
<event>
 7    1  0.2972263E-013  0.7246157E+02  0.7816164E-02  0.1226708E+00
        -11   -1    0    0    0    0  0.00000000000E+00  0.00000000000E+00  0.45593999997E+02  0.45594000000E+02  0.51100000000E-03 0.  1.
         11   -1    0    0    0    0 -0.00000000000E+00 -0.00000000000E+00 -0.45593999997E+02  0.45594000000E+02  0.51100000000E-03 0. -1.
    9900012    2    1    2    0    0  0.16588776177E+02 -0.33365430090E+01  0.80224195120E+01  0.72461568702E+02  0.69999997926E+02 0.  0.
         12    1    1    2    0    0 -0.16588776177E+02  0.33365430090E+01 -0.80224195120E+01  0.18726431298E+02  0.00000000000E+00 0. -1.
         11    1    3    3    0    0  0.10213298653E+02 -0.29064232173E+02  0.45420821024E+01  0.31139549953E+02  0.51100000000E-03 0.  1.
        -11    1    3    3    0    0  0.81769109218E+01  0.60708567576E+01 -0.12358336706E+02  0.16013920831E+02  0.51100000000E-03 0. -1.
         12    1    3    3    0    0 -0.18014333978E+01  0.19656832406E+02  0.15838674115E+02  0.25308097919E+02  0.00000000000E+00 0. -1.
</event>
<event>
 7    1  0.2972263E-013  0.7246155E+02  0.7816164E-02  0.1226708E+00
        -11   -1    0    0    0    0  0.00000000000E+00  0.00000000000E+00  0.45593999997E+02  0.45594000000E+02  0.51100000000E-03 0.  1.
         11   -1    0    0    0    0 -0.00000000000E+00 -0.00000000000E+00 -0.45593999997E+02  0.45594000000E+02  0.51100000000E-03 0. -1.
    9900012    2    1    2    0    0 -0.10332942409E+02 -0.13309705396E+02  0.81707918023E+01  0.72461553588E+02  0.69999978237E+02 0.  0.
         12    1    1    2    0    0  0.10332942409E+02  0.13309705396E+02 -0.81707918023E+01  0.18726446412E+02  0.00000000000E+00 0. -1.
         11    1    3    3    0    0 -0.10544433253E+02 -0.11176834740E+02 -0.24157158499E+02  0.28629967070E+02  0.51100000000E-03 0. -1.
        -11    1    3    3    0    0 -0.95285571482E+01 -0.10791210075E+02  0.25084155698E+02  0.28921591996E+02  0.51100000000E-03 0.  1.
        -12    1    3    3    0    0  0.97400479923E+01  0.86583394194E+01  0.72437946029E+01  0.14909994522E+02  0.00000000000E+00 0.  1.
</event>
<event>
 7    1  0.2972263E-013  0.7246190E+02  0.7816164E-02  0.1226707E+00
        -11   -1    0    0    0    0  0.00000000000E+00  0.00000000000E+00  0.45593999997E+02  0.45594000000E+02  0.51100000000E-03 0.  1.
         11   -1    0    0    0    0 -0.00000000000E+00 -0.00000000000E+00 -0.45593999997E+02  0.45594000000E+02  0.51100000000E-03 0. -1.
    9900012    2    1    2    0    0  0.93252324726E+01 -0.14198434215E+02  0.78810739839E+01  0.72461899980E+02  0.70000429475E+02 0.  0.
         12    1    1    2    0    0 -0.93252324726E+01  0.14198434215E+02 -0.78810739839E+01  0.18726100020E+02  0.00000000000E+00 0. -1.
         11    1    3    3    0    0  0.31124844918E+01 -0.81754066048E+01 -0.71965336253E+01  0.11327617991E+02  0.51100000000E-03 0. -1.
        -11    1    3    3    0    0 -0.22088266062E+01 -0.31908971159E+02  0.92509809338E+01  0.33296276127E+02  0.51100000000E-03 0.  1.
         12    1    3    3    0    0  0.84215745869E+01  0.25885943549E+02  0.58266266754E+01  0.27838005862E+02  0.00000000000E+00 0. -1.
</event>
<event>
 7    1  0.2972263E-013  0.7246158E+02  0.7816164E-02  0.1226708E+00
        -11   -1    0    0    0    0  0.00000000000E+00  0.00000000000E+00  0.45593999997E+02  0.45594000000E+02  0.51100000000E-03 0.  1.
         11   -1    0    0    0    0 -0.00000000000E+00 -0.00000000000E+00 -0.45593999997E+02  0.45594000000E+02  0.51100000000E-03 0. -1.
    9900012    2    1    2    0    0 -0.16559599223E+01  0.81750773530E+01  0.16766179785E+02  0.72461578089E+02  0.70000010154E+02 0.  0.
         12    1    1    2    0    0  0.16559599223E+01 -0.81750773530E+01 -0.16766179785E+02  0.18726421911E+02  0.00000000000E+00 0. -1.
         11    1    3    3    0    0  0.18263719373E+00 -0.11534557113E+01  0.14968074838E+02  0.15013563236E+02  0.51100000000E-03 0. -1.
        -11    1    3    3    0    0  0.54382331805E+01  0.23700001305E+02  0.21179324365E+02  0.32246367591E+02  0.51100000000E-03 0.  1.
         12    1    3    3    0    0 -0.72768302965E+01 -0.14371468241E+02 -0.19381219418E+02  0.25201647262E+02  0.00000000000E+00 0. -1.
</event>
<event>
 7    1  0.2972263E-013  0.7246160E+02  0.7816164E-02  0.1226708E+00
        -11   -1    0    0    0    0  0.00000000000E+00  0.00000000000E+00  0.45593999997E+02  0.45594000000E+02  0.51100000000E-03 0.  1.
         11   -1    0    0    0    0 -0.00000000000E+00 -0.00000000000E+00 -0.45593999997E+02  0.45594000000E+02  0.51100000000E-03 0. -1.
    9900012    2    1    2    0    0  0.55966198324E+01  0.31977819800E+01  0.17582092331E+02  0.72461603286E+02  0.70000042978E+02 0.  0.
         12    1    1    2    0    0 -0.55966198324E+01 -0.31977819800E+01 -0.17582092331E+02  0.18726396714E+02  0.00000000000E+00 0. -1.
         11    1    3    3    0    0  0.75032269436E+01  0.57723249537E+01  0.95606142940E+01  0.13454497236E+02  0.51100000000E-03 0. -1.
        -11    1    3    3    0    0  0.27738769702E+01  0.25461499294E+02  0.15077182862E+02  0.29720427033E+02  0.51100000000E-03 0.  1.
         12    1    3    3    0    0 -0.46804840813E+01 -0.28036042267E+02 -0.70557048249E+01  0.29286679017E+02  0.00000000000E+00 0. -1.
</event>
<event>
 7    1  0.2972263E-013  0.7246161E+02  0.7816164E-02  0.1226708E+00
        -11   -1    0    0    0    0  0.00000000000E+00  0.00000000000E+00  0.45593999997E+02  0.45594000000E+02  0.51100000000E-03 0. -1.
         11   -1    0    0    0    0 -0.00000000000E+00 -0.00000000000E+00 -0.45593999997E+02  0.45594000000E+02  0.51100000000E-03 0.  1.
    9900012    2    1    2    0    0  0.15932225512E+02 -0.53304068400E-01 -0.98406769694E+01  0.72461612887E+02  0.70000055485E+02 0.  0.
         12    1    1    2    0    0 -0.15932225512E+02  0.53304068400E-01  0.98406769694E+01  0.18726387113E+02  0.00000000000E+00 0. -1.
         11    1    3    3    0    0  0.27180393739E+01 -0.59185135891E-01  0.69745199015E+01  0.74856642347E+01  0.51100000000E-03 0. -1.
        -11    1    3    3    0    0 -0.18574945403E+02 -0.16579344858E+02 -0.15015640028E+02  0.29075293951E+02  0.51100000000E-03 0.  1.
         12    1    3    3    0    0  0.31789131541E+02  0.16585225926E+02 -0.17995568432E+01  0.35900654701E+02  0.00000000000E+00 0. -1.
</event>
<event>
 7    1  0.2972263E-013  0.7246161E+02  0.7816164E-02  0.1226708E+00
        -11   -1    0    0    0    0  0.00000000000E+00  0.00000000000E+00  0.45593999997E+02  0.45594000000E+02  0.51100000000E-03 0.  1.
         11   -1    0    0    0    0 -0.00000000000E+00 -0.00000000000E+00 -0.45593999997E+02  0.45594000000E+02  0.51100000000E-03 0. -1.
    9900012    2    1    2    0    0 -0.10633607977E+02  0.47876841423E+01  0.14652029796E+02  0.72461614465E+02  0.70000057541E+02 0.  0.
         12    1    1    2    0    0  0.10633607977E+02 -0.47876841423E+01 -0.14652029796E+02  0.18726385535E+02  0.00000000000E+00 0. -1.
         11    1    3    3    0    0  0.14363859656E+02  0.12339120737E+02  0.83653270812E+00  0.18954528536E+02  0.51100000000E-03 0. -1.
        -11    1    3    3    0    0 -0.44374626458E+01  0.13365113003E+02 -0.86812564727E+01  0.16543322959E+02  0.51100000000E-03 0.  1.
        -12    1    3    3    0    0 -0.20560004988E+02 -0.20916549598E+02  0.22496753560E+02  0.36963762970E+02  0.00000000000E+00 0.  1.
</event>
<event>
 7    1  0.2972263E-013  0.7246144E+02  0.7816164E-02  0.1226708E+00
        -11   -1    0    0    0    0  0.00000000000E+00  0.00000000000E+00  0.45593999997E+02  0.45594000000E+02  0.51100000000E-03 0.  1.
         11   -1    0    0    0    0 -0.00000000000E+00 -0.00000000000E+00 -0.45593999997E+02  0.45594000000E+02  0.51100000000E-03 0. -1.
    9900012    2    1    2    0    0  0.56896517832E+01 -0.11898866639E+02  0.13293940873E+02  0.72461440555E+02  0.69999830990E+02 0.  0.
         12    1    1    2    0    0 -0.56896517832E+01  0.11898866639E+02 -0.13293940873E+02  0.18726559445E+02  0.00000000000E+00 0. -1.
         11    1    3    3    0    0  0.17175702598E+01  0.22415557910E+01  0.21717538108E+02  0.21900367159E+02  0.51100000000E-03 0. -1.
        -11    1    3    3    0    0  0.21598480274E+02 -0.72172336460E+01  0.93240011600E+01  0.24607312115E+02  0.51100000000E-03 0.  1.
         12    1    3    3    0    0 -0.17626398750E+02 -0.69231887844E+01 -0.17747598395E+02  0.25953761281E+02  0.00000000000E+00 0. -1.
</event>
<event>
 7    1  0.2972263E-013  0.7246150E+02  0.7816164E-02  0.1226708E+00
        -11   -1    0    0    0    0  0.00000000000E+00  0.00000000000E+00  0.45593999997E+02  0.45594000000E+02  0.51100000000E-03 0.  1.
         11   -1    0    0    0    0 -0.00000000000E+00 -0.00000000000E+00 -0.45593999997E+02  0.45594000000E+02  0.51100000000E-03 0. -1.
    9900012    2    1    2    0    0 -0.13222166203E+02 -0.51963848509E+01  0.12200555138E+02  0.72461504324E+02  0.69999914061E+02 0.  0.
         12    1    1    2    0    0  0.13222166203E+02  0.51963848509E+01 -0.12200555138E+02  0.18726495676E+02  0.00000000000E+00 0. -1.
         11    1    3    3    0    0  0.67034023141E+01 -0.19138198233E+02 -0.12800924055E+02  0.23980614903E+02  0.51100000000E-03 0. -1.
        -11    1    3    3    0    0 -0.58698964601E+01 -0.10992765536E+02  0.10974603000E+02  0.16605375330E+02  0.51100000000E-03 0.  1.
         12    1    3    3    0    0 -0.14055672057E+02  0.24934578918E+02  0.14026876194E+02  0.31875514091E+02  0.00000000000E+00 0. -1.
</event>
<event>
 7    1  0.2972263E-013  0.7246148E+02  0.7816164E-02  0.1226708E+00
        -11   -1    0    0    0    0  0.00000000000E+00  0.00000000000E+00  0.45593999997E+02  0.45594000000E+02  0.51100000000E-03 0.  1.
         11   -1    0    0    0    0 -0.00000000000E+00 -0.00000000000E+00 -0.45593999997E+02  0.45594000000E+02  0.51100000000E-03 0. -1.
    9900012    2    1    2    0    0 -0.11599671095E+01 -0.13369884410E+02  0.13060747238E+02  0.72461482672E+02  0.69999885855E+02 0.  0.
         12    1    1    2    0    0  0.11599671095E+01  0.13369884410E+02 -0.13060747238E+02  0.18726517328E+02  0.00000000000E+00 0. -1.
         11    1    3    3    0    0  0.63371778627E+01  0.44484639973E+01  0.25767000717E+01  0.81601494299E+01  0.51100000000E-03 0. -1.
        -11    1    3    3    0    0  0.23189218858E+02 -0.52281140310E+01 -0.94755243691E+01  0.25590205350E+02  0.51100000000E-03 0.  1.
         12    1    3    3    0    0 -0.30686363830E+02 -0.12590234377E+02  0.19959571535E+02  0.38711127891E+02  0.00000000000E+00 0. -1.
</event>
<event>
 7    1  0.2972263E-013  0.7246159E+02  0.7816164E-02  0.1226708E+00
        -11   -1    0    0    0    0  0.00000000000E+00  0.00000000000E+00  0.45593999997E+02  0.45594000000E+02  0.51100000000E-03 0.  1.
         11   -1    0    0    0    0 -0.00000000000E+00 -0.00000000000E+00 -0.45593999997E+02  0.45594000000E+02  0.51100000000E-03 0. -1.
    9900012    2    1    2    0    0  0.93953437563E+01 -0.90806564815E+01 -0.13414460062E+02  0.72461586964E+02  0.70000021716E+02 0.  0.
         12    1    1    2    0    0 -0.93953437563E+01  0.90806564815E+01  0.13414460062E+02  0.18726413036E+02  0.00000000000E+00 0. -1.
         11    1    3    3    0    0  0.64989704036E+01 -0.13178806199E+02 -0.29565168877E+02  0.33015401863E+02  0.51100000000E-03 0. -1.
        -11    1    3    3    0    0  0.70760883493E+01  0.20602318341E+01 -0.10258115762E+02  0.12631093412E+02  0.51100000000E-03 0.  1.
        -12    1    3    3    0    0 -0.41797149967E+01  0.20379178837E+01  0.26408824578E+02  0.26815091690E+02  0.00000000000E+00 0.  1.
</event>
<event>
 7    1  0.2972263E-013  0.7246158E+02  0.7816164E-02  0.1226708E+00
        -11   -1    0    0    0    0  0.00000000000E+00  0.00000000000E+00  0.45593999997E+02  0.45594000000E+02  0.51100000000E-03 0.  1.
         11   -1    0    0    0    0 -0.00000000000E+00 -0.00000000000E+00 -0.45593999997E+02  0.45594000000E+02  0.51100000000E-03 0. -1.
    9900012    2    1    2    0    0  0.17809349048E+02 -0.38417329638E-01 -0.57882934911E+01  0.72461582004E+02  0.70000015254E+02 0.  0.
         12    1    1    2    0    0 -0.17809349048E+02  0.38417329638E-01  0.57882934911E+01  0.18726417996E+02  0.00000000000E+00 0. -1.
         11    1    3    3    0    0 -0.16080939549E+02 -0.87170365512E+01 -0.21636226424E+02  0.28332130826E+02  0.51100000000E-03 0. -1.
        -11    1    3    3    0    0  0.44274477011E+01 -0.50710930625E+00 -0.51434928068E+01  0.68055103782E+01  0.51100000000E-03 0.  1.
        -12    1    3    3    0    0  0.29462840896E+02  0.91857285278E+01  0.20991425739E+02  0.37323940800E+02  0.00000000000E+00 0.  1.
</event>
<event>
 7    1  0.2972263E-013  0.7246159E+02  0.7816164E-02  0.1226708E+00
        -11   -1    0    0    0    0  0.00000000000E+00  0.00000000000E+00  0.45593999997E+02  0.45594000000E+02  0.51100000000E-03 0.  1.
         11   -1    0    0    0    0 -0.00000000000E+00 -0.00000000000E+00 -0.45593999997E+02  0.45594000000E+02  0.51100000000E-03 0. -1.
    9900012    2    1    2    0    0 -0.61521965584E+01 -0.17683252640E+02 -0.36281998251E+00  0.72461585907E+02  0.70000020339E+02 0.  0.
         12    1    1    2    0    0  0.61521965584E+01  0.17683252640E+02  0.36281998251E+00  0.18726414093E+02  0.00000000000E+00 0. -1.
         11    1    3    3    0    0 -0.96688098029E+01 -0.58406004888E+01 -0.70538890825E+01  0.13317501587E+02  0.51100000000E-03 0. -1.
        -11    1    3    3    0    0 -0.26724143740E+02 -0.52007892242E+01  0.72615979378E+01  0.28177275810E+02  0.51100000000E-03 0.  1.
         12    1    3    3    0    0  0.30240756985E+02 -0.66418629273E+01 -0.57052883785E+00  0.30966808510E+02  0.00000000000E+00 0. -1.
</event>
<event>
 7    1  0.2972263E-013  0.7246152E+02  0.7816164E-02  0.1226708E+00
        -11   -1    0    0    0    0  0.00000000000E+00  0.00000000000E+00  0.45593999997E+02  0.45594000000E+02  0.51100000000E-03 0. -1.
         11   -1    0    0    0    0 -0.00000000000E+00 -0.00000000000E+00 -0.45593999997E+02  0.45594000000E+02  0.51100000000E-03 0.  1.
    9900012    2    1    2    0    0  0.15397004999E+02  0.31663325600E+01 -0.10177791862E+02  0.72461524838E+02  0.69999940784E+02 0.  0.
         12    1    1    2    0    0 -0.15397004999E+02 -0.31663325600E+01  0.10177791862E+02  0.18726475162E+02  0.00000000000E+00 0. -1.
         11    1    3    3    0    0  0.12493356029E+02 -0.14452164542E+02  0.11917355311E+02  0.22516046781E+02  0.51100000000E-03 0. -1.
        -11    1    3    3    0    0  0.61134806800E+01 -0.12764572360E+02 -0.55618217021E+01  0.15206670065E+02  0.51100000000E-03 0.  1.
        -12    1    3    3    0    0 -0.32098317094E+01  0.30383069462E+02 -0.16533325470E+02  0.34738807991E+02  0.00000000000E+00 0.  1.
</event>
<event>
 7    1  0.2972263E-013  0.7246156E+02  0.7816164E-02  0.1226708E+00
        -11   -1    0    0    0    0  0.00000000000E+00  0.00000000000E+00  0.45593999997E+02  0.45594000000E+02  0.51100000000E-03 0.  1.
         11   -1    0    0    0    0 -0.00000000000E+00 -0.00000000000E+00 -0.45593999997E+02  0.45594000000E+02  0.51100000000E-03 0. -1.
    9900012    2    1    2    0    0 -0.10202624467E+02  0.10648139961E+02  0.11541373481E+02  0.72461555263E+02  0.69999980419E+02 0.  0.
         12    1    1    2    0    0  0.10202624467E+02 -0.10648139961E+02 -0.11541373481E+02  0.18726444737E+02  0.00000000000E+00 0. -1.
         11    1    3    3    0    0  0.13530426676E+02 -0.54212090640E+01  0.11055558487E+02  0.18294461661E+02  0.51100000000E-03 0. -1.
        -11    1    3    3    0    0  0.69891742090E+01  0.21128987736E+02  0.47038053536E+01  0.22746614340E+02  0.51100000000E-03 0.  1.
         12    1    3    3    0    0 -0.30722225351E+02 -0.50596387108E+01 -0.42179903592E+01  0.31420479263E+02  0.00000000000E+00 0. -1.
</event>
<event>
 7    1  0.2972263E-013  0.7246162E+02  0.7816164E-02  0.1226708E+00
        -11   -1    0    0    0    0  0.00000000000E+00  0.00000000000E+00  0.45593999997E+02  0.45594000000E+02  0.51100000000E-03 0. -1.
         11   -1    0    0    0    0 -0.00000000000E+00 -0.00000000000E+00 -0.45593999997E+02  0.45594000000E+02  0.51100000000E-03 0.  1.
    9900012    2    1    2    0    0  0.13474059286E+02 -0.75956020223E+00 -0.12982690328E+02  0.72461616112E+02  0.70000059686E+02 0.  0.
         12    1    1    2    0    0 -0.13474059286E+02  0.75956020223E+00  0.12982690328E+02  0.18726383888E+02  0.00000000000E+00 0. -1.
         11    1    3    3    0    0 -0.11705913740E+02 -0.12409196080E+02 -0.88639115911E+01  0.19224606441E+02  0.51100000000E-03 0. -1.
        -11    1    3    3    0    0  0.26446639757E+01 -0.24485292062E+00  0.18786761989E+02  0.18973577069E+02  0.51100000000E-03 0.  1.
        -12    1    3    3    0    0  0.22535309051E+02  0.11894488799E+02 -0.22905540726E+02  0.34263432603E+02  0.00000000000E+00 0.  1.
</event>
<event>
 7    1  0.2972263E-013  0.7246161E+02  0.7816164E-02  0.1226708E+00
        -11   -1    0    0    0    0  0.00000000000E+00  0.00000000000E+00  0.45593999997E+02  0.45594000000E+02  0.51100000000E-03 0.  1.
         11   -1    0    0    0    0 -0.00000000000E+00 -0.00000000000E+00 -0.45593999997E+02  0.45594000000E+02  0.51100000000E-03 0. -1.
    9900012    2    1    2    0    0  0.17627985743E+02  0.56755814458E+01  0.27784069861E+01  0.72461610826E+02  0.70000052800E+02 0.  0.
         12    1    1    2    0    0 -0.17627985743E+02 -0.56755814458E+01 -0.27784069861E+01  0.18726389174E+02  0.00000000000E+00 0. -1.
         11    1    3    3    0    0  0.10300853944E+02  0.41006560197E+01 -0.29536294116E+02  0.31548623459E+02  0.51100000000E-03 0. -1.
        -11    1    3    3    0    0  0.43468130467E+01  0.10927971738E+02  0.68232498030E+01  0.13596767561E+02  0.51100000000E-03 0.  1.
        -12    1    3    3    0    0  0.29803187532E+01 -0.93530463116E+01  0.25491451299E+02  0.27316219807E+02  0.00000000000E+00 0.  1.
</event>
<event>
 7    1  0.2972263E-013  0.7246161E+02  0.7816164E-02  0.1226708E+00
        -11   -1    0    0    0    0  0.00000000000E+00  0.00000000000E+00  0.45593999997E+02  0.45594000000E+02  0.51100000000E-03 0. -1.
         11   -1    0    0    0    0 -0.00000000000E+00 -0.00000000000E+00 -0.45593999997E+02  0.45594000000E+02  0.51100000000E-03 0.  1.
    9900012    2    1    2    0    0 -0.16217435986E+02 -0.63133767725E+01 -0.69147557123E+01  0.72461606786E+02  0.70000047537E+02 0.  0.
         12    1    1    2    0    0  0.16217435986E+02  0.63133767725E+01  0.69147557123E+01  0.18726393214E+02  0.00000000000E+00 0. -1.
         11    1    3    3    0    0 -0.12949429150E+02 -0.20556815700E+01  0.43767881627E+01  0.13822800617E+02  0.51100000000E-03 0. -1.
        -11    1    3    3    0    0  0.30030337277E+01 -0.21621360060E+02  0.15019578251E+02  0.26496964987E+02  0.51100000000E-03 0.  1.
        -12    1    3    3    0    0 -0.62710405643E+01  0.17363664858E+02 -0.26311122126E+02  0.32141841182E+02  0.00000000000E+00 0.  1.
</event>
<event>
 7    1  0.2972263E-013  0.7246159E+02  0.7816164E-02  0.1226708E+00
        -11   -1    0    0    0    0  0.00000000000E+00  0.00000000000E+00  0.45593999997E+02  0.45594000000E+02  0.51100000000E-03 0.  1.
         11   -1    0    0    0    0 -0.00000000000E+00 -0.00000000000E+00 -0.45593999997E+02  0.45594000000E+02  0.51100000000E-03 0. -1.
    9900012    2    1    2    0    0  0.24768719356E+01 -0.18468441071E+02  0.18601478991E+01  0.72461591898E+02  0.70000028143E+02 0.  0.
         12    1    1    2    0    0 -0.24768719356E+01  0.18468441071E+02 -0.18601478991E+01  0.18726408102E+02  0.00000000000E+00 0. -1.
         11    1    3    3    0    0  0.25789699714E+01  0.19291771034E+01  0.15417224013E+02  0.15750035141E+02  0.51100000000E-03 0. -1.
        -11    1    3    3    0    0 -0.13938680070E+02 -0.13295862217E+02  0.14852034885E+02  0.24323850326E+02  0.51100000000E-03 0.  1.
        -12    1    3    3    0    0  0.13836582034E+02 -0.71017559581E+01 -0.28409111000E+02  0.32387706431E+02  0.00000000000E+00 0.  1.
</event>
<event>
 7    1  0.2972263E-013  0.7246197E+02  0.7816164E-02  0.1226707E+00
        -11   -1    0    0    0    0  0.00000000000E+00  0.00000000000E+00  0.45593999997E+02  0.45594000000E+02  0.51100000000E-03 0. -1.
         11   -1    0    0    0    0 -0.00000000000E+00 -0.00000000000E+00 -0.45593999997E+02  0.45594000000E+02  0.51100000000E-03 0.  1.
    9900012    2    1    2    0    0 -0.11514707038E+02  0.14751465032E+02 -0.68546669540E+00  0.72461973637E+02  0.70000525427E+02 0.  0.
         12    1    1    2    0    0  0.11514707038E+02 -0.14751465032E+02  0.68546669540E+00  0.18726026363E+02  0.00000000000E+00 0. -1.
         11    1    3    3    0    0  0.17369423686E+02  0.23944295155E+02  0.13542620057E+02  0.32533501317E+02  0.51100000000E-03 0. -1.
        -11    1    3    3    0    0  0.24117505268E+01  0.88740027733E+00 -0.52504452603E+01  0.58456133595E+01  0.51100000000E-03 0.  1.
        -12    1    3    3    0    0 -0.31295881250E+02 -0.10080230400E+02 -0.89776414924E+01  0.34082858961E+02  0.00000000000E+00 0.  1.
</event>
<event>
 7    1  0.2972263E-013  0.7246160E+02  0.7816164E-02  0.1226708E+00
        -11   -1    0    0    0    0  0.00000000000E+00  0.00000000000E+00  0.45593999997E+02  0.45594000000E+02  0.51100000000E-03 0.  1.
         11   -1    0    0    0    0 -0.00000000000E+00 -0.00000000000E+00 -0.45593999997E+02  0.45594000000E+02  0.51100000000E-03 0. -1.
    9900012    2    1    2    0    0 -0.16623033458E+02  0.43868187038E+01  0.74235235909E+01  0.72461598259E+02  0.70000036429E+02 0.  0.
         12    1    1    2    0    0  0.16623033458E+02 -0.43868187038E+01 -0.74235235909E+01  0.18726401741E+02  0.00000000000E+00 0. -1.
         11    1    3    3    0    0 -0.19393624066E+02 -0.22641347284E+01  0.15990186178E+02  0.25237373372E+02  0.51100000000E-03 0. -1.
        -11    1    3    3    0    0 -0.13836042235E+02  0.15663231767E+02  0.77197575111E+01  0.22279307673E+02  0.51100000000E-03 0.  1.
         12    1    3    3    0    0  0.16606632843E+02 -0.90122783350E+01 -0.16286420098E+02  0.24944917213E+02  0.00000000000E+00 0. -1.
</event>
<event>
 7    1  0.2972263E-013  0.7246156E+02  0.7816164E-02  0.1226708E+00
        -11   -1    0    0    0    0  0.00000000000E+00  0.00000000000E+00  0.45593999997E+02  0.45594000000E+02  0.51100000000E-03 0.  1.
         11   -1    0    0    0    0 -0.00000000000E+00 -0.00000000000E+00 -0.45593999997E+02  0.45594000000E+02  0.51100000000E-03 0. -1.
    9900012    2    1    2    0    0  0.15661981567E+02  0.38152908533E+01  0.95302408685E+01  0.72461558749E+02  0.69999984960E+02 0.  0.
         12    1    1    2    0    0 -0.15661981567E+02 -0.38152908533E+01 -0.95302408685E+01  0.18726441251E+02  0.00000000000E+00 0. -1.
         11    1    3    3    0    0 -0.13588288069E+01  0.15438053775E+02  0.21085030909E+02  0.26167889651E+02  0.51100000000E-03 0. -1.
        -11    1    3    3    0    0 -0.57491000297E+01  0.10842623390E+02  0.32854546522E-01  0.12272559343E+02  0.51100000000E-03 0.  1.
         12    1    3    3    0    0  0.22769910404E+02 -0.22465386312E+02 -0.11587644587E+02  0.34021109756E+02  0.00000000000E+00 0. -1.
</event>
<event>
 7    1  0.2972263E-013  0.7246158E+02  0.7816164E-02  0.1226708E+00
        -11   -1    0    0    0    0  0.00000000000E+00  0.00000000000E+00  0.45593999997E+02  0.45594000000E+02  0.51100000000E-03 0. -1.
         11   -1    0    0    0    0 -0.00000000000E+00 -0.00000000000E+00 -0.45593999997E+02  0.45594000000E+02  0.51100000000E-03 0.  1.
    9900012    2    1    2    0    0  0.12519056167E+02 -0.12542229835E+02  0.60534641297E+01  0.72461582176E+02  0.70000015479E+02 0.  0.
         12    1    1    2    0    0 -0.12519056167E+02  0.12542229835E+02 -0.60534641297E+01  0.18726417824E+02  0.00000000000E+00 0. -1.
         11    1    3    3    0    0  0.15699896291E+02  0.40914557567E+01  0.31887861776E+02  0.35777960851E+02  0.51100000000E-03 0. -1.
        -11    1    3    3    0    0  0.78497466903E+01 -0.61665208063E+01 -0.14977630805E+02  0.17999275729E+02  0.51100000000E-03 0.  1.
        -12    1    3    3    0    0 -0.11030586814E+02 -0.10467164785E+02 -0.10856766841E+02  0.18684345596E+02  0.00000000000E+00 0.  1.
</event>
<event>
 7    1  0.2972263E-013  0.7246157E+02  0.7816164E-02  0.1226708E+00
        -11   -1    0    0    0    0  0.00000000000E+00  0.00000000000E+00  0.45593999997E+02  0.45594000000E+02  0.51100000000E-03 0.  1.
         11   -1    0    0    0    0 -0.00000000000E+00 -0.00000000000E+00 -0.45593999997E+02  0.45594000000E+02  0.51100000000E-03 0. -1.
    9900012    2    1    2    0    0 -0.80854022256E+01  0.10113953710E+02  0.13528246765E+02  0.72461568164E+02  0.69999997225E+02 0.  0.
         12    1    1    2    0    0  0.80854022256E+01 -0.10113953710E+02 -0.13528246765E+02  0.18726431836E+02  0.00000000000E+00 0. -1.
         11    1    3    3    0    0  0.17717562759E+02  0.29154986235E+01  0.69390860843E+01  0.19250015020E+02  0.51100000000E-03 0. -1.
        -11    1    3    3    0    0 -0.96987475441E+01  0.18934502452E+02  0.19994505113E+02  0.29195227727E+02  0.51100000000E-03 0.  1.
        -12    1    3    3    0    0 -0.16104217440E+02 -0.11736047366E+02 -0.13405344433E+02  0.24016325417E+02  0.00000000000E+00 0.  1.
</event>
<event>
 7    1  0.2972263E-013  0.7246156E+02  0.7816164E-02  0.1226708E+00
        -11   -1    0    0    0    0  0.00000000000E+00  0.00000000000E+00  0.45593999997E+02  0.45594000000E+02  0.51100000000E-03 0. -1.
         11   -1    0    0    0    0 -0.00000000000E+00 -0.00000000000E+00 -0.45593999997E+02  0.45594000000E+02  0.51100000000E-03 0.  1.
    9900012    2    1    2    0    0  0.53208719228E+01 -0.14052750933E+02 -0.11175330751E+02  0.72461561358E+02  0.69999988359E+02 0.  0.
         12    1    1    2    0    0 -0.53208719228E+01  0.14052750933E+02  0.11175330751E+02  0.18726438642E+02  0.00000000000E+00 0. -1.
         11    1    3    3    0    0 -0.18767316386E+02 -0.14697982732E+02 -0.59865731677E+01  0.24578078023E+02  0.51100000000E-03 0. -1.
        -11    1    3    3    0    0 -0.10901164094E+02  0.47918194020E+00 -0.67992338037E+01  0.12856693763E+02  0.51100000000E-03 0.  1.
        -12    1    3    3    0    0  0.34989352403E+02  0.16604985851E+00  0.16104762206E+01  0.35026789573E+02  0.00000000000E+00 0.  1.
</event>
<event>
 7    1  0.2972263E-013  0.7246159E+02  0.7816164E-02  0.1226708E+00
        -11   -1    0    0    0    0  0.00000000000E+00  0.00000000000E+00  0.45593999997E+02  0.45594000000E+02  0.51100000000E-03 0.  1.
         11   -1    0    0    0    0 -0.00000000000E+00 -0.00000000000E+00 -0.45593999997E+02  0.45594000000E+02  0.51100000000E-03 0. -1.
    9900012    2    1    2    0    0 -0.18665731134E+02  0.15051239363E+01 -0.58490543137E-01  0.72461592496E+02  0.70000028922E+02 0.  0.
         12    1    1    2    0    0  0.18665731134E+02 -0.15051239363E+01  0.58490543137E-01  0.18726407504E+02  0.00000000000E+00 0. -1.
         11    1    3    3    0    0 -0.11859205258E+02 -0.18243917398E+02  0.17010255829E+02  0.27619378614E+02  0.51100000000E-03 0. -1.
        -11    1    3    3    0    0 -0.12808378734E+02  0.15878081644E+02  0.55344086080E+01  0.21137590246E+02  0.51100000000E-03 0.  1.
         12    1    3    3    0    0  0.60018528582E+01  0.38709596903E+01 -0.22603154981E+02  0.23704623636E+02  0.00000000000E+00 0. -1.
</event>
<event>
 7    1  0.2972263E-013  0.7246155E+02  0.7816164E-02  0.1226708E+00
        -11   -1    0    0    0    0  0.00000000000E+00  0.00000000000E+00  0.45593999997E+02  0.45594000000E+02  0.51100000000E-03 0.  1.
         11   -1    0    0    0    0 -0.00000000000E+00 -0.00000000000E+00 -0.45593999997E+02  0.45594000000E+02  0.51100000000E-03 0. -1.
    9900012    2    1    2    0    0  0.11037164123E+02 -0.14828718042E+02  0.29949973993E+01  0.72461551323E+02  0.69999975286E+02 0.  0.
         12    1    1    2    0    0 -0.11037164123E+02  0.14828718042E+02 -0.29949973993E+01  0.18726448677E+02  0.00000000000E+00 0. -1.
         11    1    3    3    0    0 -0.17894438407E+02  0.17692386621E+01  0.47825442664E+00  0.17988047667E+02  0.51100000000E-03 0. -1.
        -11    1    3    3    0    0  0.13209401162E+02 -0.30597354583E+02  0.25171088873E+01  0.33421882412E+02  0.51100000000E-03 0.  1.
         12    1    3    3    0    0  0.15722201368E+02  0.13999397880E+02 -0.36591464508E-03  0.21051621243E+02  0.00000000000E+00 0. -1.
</event>
<event>
 7    1  0.2972263E-013  0.7246156E+02  0.7816164E-02  0.1226708E+00
        -11   -1    0    0    0    0  0.00000000000E+00  0.00000000000E+00  0.45593999997E+02  0.45594000000E+02  0.51100000000E-03 0. -1.
         11   -1    0    0    0    0 -0.00000000000E+00 -0.00000000000E+00 -0.45593999997E+02  0.45594000000E+02  0.51100000000E-03 0.  1.
    9900012    2    1    2    0    0 -0.36639459111E+01  0.16479745813E+02 -0.81038873470E+01  0.72461561155E+02  0.69999988094E+02 0.  0.
         12    1    1    2    0    0  0.36639459111E+01 -0.16479745813E+02  0.81038873470E+01  0.18726438845E+02  0.00000000000E+00 0. -1.
         11    1    3    3    0    0 -0.10539530669E+02  0.23440334842E+01  0.22727196628E+01  0.11033651011E+02  0.51100000000E-03 0. -1.
        -11    1    3    3    0    0  0.13633940769E+02  0.93782586671E+01 -0.33231948757E+02  0.37124095881E+02  0.51100000000E-03 0.  1.
         12    1    3    3    0    0 -0.67583560104E+01  0.47574536617E+01  0.22855341748E+02  0.24303814263E+02  0.00000000000E+00 0. -1.
</event>
<event>
 7    1  0.2972263E-013  0.7246159E+02  0.7816164E-02  0.1226708E+00
        -11   -1    0    0    0    0  0.00000000000E+00  0.00000000000E+00  0.45593999997E+02  0.45594000000E+02  0.51100000000E-03 0.  1.
         11   -1    0    0    0    0 -0.00000000000E+00 -0.00000000000E+00 -0.45593999997E+02  0.45594000000E+02  0.51100000000E-03 0. -1.
    9900012    2    1    2    0    0  0.72199731138E+00  0.11582797420E+02  0.14696804642E+02  0.72461587026E+02  0.70000021796E+02 0.  0.
         12    1    1    2    0    0 -0.72199731138E+00 -0.11582797420E+02 -0.14696804642E+02  0.18726412974E+02  0.00000000000E+00 0. -1.
         11    1    3    3    0    0  0.14143763209E+02 -0.88801107774E+00 -0.13209665752E+02  0.19373432089E+02  0.51100000000E-03 0. -1.
        -11    1    3    3    0    0 -0.78572712918E+01  0.20301071632E+02 -0.18234898362E+01  0.21844801144E+02  0.51100000000E-03 0.  1.
        -12    1    3    3    0    0 -0.55644946054E+01 -0.78302631347E+01  0.29729960230E+02  0.31243353793E+02  0.00000000000E+00 0.  1.
</event>
<event>
 7    1  0.2972263E-013  0.7246156E+02  0.7816164E-02  0.1226708E+00
        -11   -1    0    0    0    0  0.00000000000E+00  0.00000000000E+00  0.45593999997E+02  0.45594000000E+02  0.51100000000E-03 0.  1.
         11   -1    0    0    0    0 -0.00000000000E+00 -0.00000000000E+00 -0.45593999997E+02  0.45594000000E+02  0.51100000000E-03 0. -1.
    9900012    2    1    2    0    0  0.18280461274E+02  0.37266065142E+01  0.16175891285E+01  0.72461562670E+02  0.69999990068E+02 0.  0.
         12    1    1    2    0    0 -0.18280461274E+02 -0.37266065142E+01 -0.16175891285E+01  0.18726437330E+02  0.00000000000E+00 0. -1.
         11    1    3    3    0    0 -0.24436649752E+01 -0.13359822965E+02 -0.11930599841E+02  0.18077488239E+02  0.51100000000E-03 0.  1.
        -11    1    3    3    0    0  0.18111090096E+02 -0.13111244535E+02  0.58163857247E+01  0.23102957838E+02  0.51100000000E-03 0. -1.
        -12    1    3    3    0    0  0.26130361532E+01  0.30197674015E+02  0.77318032452E+01  0.31281116593E+02  0.00000000000E+00 0.  1.
</event>
<event>
 7    1  0.3443469E-013  0.7246157E+02  0.7816164E-02  0.1226708E+00
        -11   -1    0    0    0    0  0.00000000000E+00  0.00000000000E+00  0.45593999997E+02  0.45594000000E+02  0.51100000000E-03 0.  1.
         11   -1    0    0    0    0 -0.00000000000E+00 -0.00000000000E+00 -0.45593999997E+02  0.45594000000E+02  0.51100000000E-03 0. -1.
    9900012    2    1    2    0    0  0.95803549038E+00 -0.18034102554E+02  0.49530419947E+01  0.72461566492E+02  0.69999995046E+02 0.  0.
         12    1    1    2    0    0 -0.95803549038E+00  0.18034102554E+02 -0.49530419947E+01  0.18726433508E+02  0.00000000000E+00 0. -1.
         11    1    3    3    0    0 -0.19035076571E+02 -0.30495579983E+02 -0.69221652012E+01  0.36609164288E+02  0.51100000000E-03 0. -1.
        -11    1    3    3    0    0  0.16038903711E+02  0.29512692423E+01 -0.41268964192E+01  0.16822238160E+02  0.51100000000E-03 0.  1.
        -12    1    3    3    0    0  0.39542083503E+01  0.95102081860E+01  0.16002103615E+02  0.19030164044E+02  0.00000000000E+00 0.  1.
</event>
<event>
 7    1  0.4431880E-013  0.7246160E+02  0.7816164E-02  0.1226708E+00
        -11   -1    0    0    0    0  0.00000000000E+00  0.00000000000E+00  0.45593999997E+02  0.45594000000E+02  0.51100000000E-03 0. -1.
         11   -1    0    0    0    0 -0.00000000000E+00 -0.00000000000E+00 -0.45593999997E+02  0.45594000000E+02  0.51100000000E-03 0.  1.
    9900012    2    1    2    0    0 -0.72194797915E+01  0.11216424458E+02 -0.13143403797E+02  0.72461598064E+02  0.70000036176E+02 0.  0.
         12    1    1    2    0    0  0.72194797915E+01 -0.11216424458E+02  0.13143403797E+02  0.18726401936E+02  0.00000000000E+00 0. -1.
         11    1    3    3    0    0  0.20920711412E+02  0.46243131824E+01  0.60477555038E+01  0.22262879088E+02  0.51100000000E-03 0. -1.
        -11    1    3    3    0    0 -0.10326645825E+02  0.20263677020E+02 -0.40119099787E+01  0.23094407165E+02  0.51100000000E-03 0.  1.
        -12    1    3    3    0    0 -0.17813545378E+02 -0.13671565744E+02 -0.15179249322E+02  0.27104311812E+02  0.00000000000E+00 0.  1.
</event>
<event>
 7    1  0.2972263E-013  0.7246157E+02  0.7816164E-02  0.1226708E+00
        -11   -1    0    0    0    0  0.00000000000E+00  0.00000000000E+00  0.45593999997E+02  0.45594000000E+02  0.51100000000E-03 0. -1.
         11   -1    0    0    0    0 -0.00000000000E+00 -0.00000000000E+00 -0.45593999997E+02  0.45594000000E+02  0.51100000000E-03 0.  1.
    9900012    2    1    2    0    0 -0.22482425852E+00 -0.16552182824E+02  0.87552114688E+01  0.72461574019E+02  0.70000004852E+02 0.  0.
         12    1    1    2    0    0  0.22482425852E+00  0.16552182824E+02 -0.87552114688E+01  0.18726425981E+02  0.00000000000E+00 0. -1.
         11    1    3    3    0    0  0.26137631422E+01  0.69892388609E+01  0.13177532767E+02  0.15143598902E+02  0.51100000000E-03 0. -1.
        -11    1    3    3    0    0  0.14093101133E+02 -0.17860777862E+01  0.17181468838E+02  0.22293686216E+02  0.51100000000E-03 0.  1.
         12    1    3    3    0    0 -0.16931688534E+02 -0.21755343898E+02 -0.21603790136E+02  0.35024288901E+02  0.00000000000E+00 0. -1.
</event>
<event>
 7    1  0.2972263E-013  0.7246140E+02  0.7816164E-02  0.1226708E+00
        -11   -1    0    0    0    0  0.00000000000E+00  0.00000000000E+00  0.45593999997E+02  0.45594000000E+02  0.51100000000E-03 0.  1.
         11   -1    0    0    0    0 -0.00000000000E+00 -0.00000000000E+00 -0.45593999997E+02  0.45594000000E+02  0.51100000000E-03 0. -1.
    9900012    2    1    2    0    0 -0.95537691957E+01  0.78652368071E+01  0.14055217861E+02  0.72461398466E+02  0.69999776162E+02 0.  0.
         12    1    1    2    0    0  0.95537691957E+01 -0.78652368071E+01 -0.14055217861E+02  0.18726601534E+02  0.00000000000E+00 0. -1.
         11    1    3    3    0    0 -0.37694403155E+01  0.17365503087E+02  0.95934228525E+01  0.20194136279E+02  0.51100000000E-03 0. -1.
        -11    1    3    3    0    0 -0.27089921917E+02  0.76352561784E+00  0.82237152167E+01  0.28320952192E+02  0.51100000000E-03 0.  1.
        -12    1    3    3    0    0  0.21305593037E+02 -0.10263791898E+02 -0.37619202082E+01  0.23946309996E+02  0.00000000000E+00 0.  1.
</event>
<event>
 7    1  0.2972263E-013  0.7246156E+02  0.7816164E-02  0.1226708E+00
        -11   -1    0    0    0    0  0.00000000000E+00  0.00000000000E+00  0.45593999997E+02  0.45594000000E+02  0.51100000000E-03 0. -1.
         11   -1    0    0    0    0 -0.00000000000E+00 -0.00000000000E+00 -0.45593999997E+02  0.45594000000E+02  0.51100000000E-03 0.  1.
    9900012    2    1    2    0    0  0.73916617448E+01 -0.38555076073E+01 -0.16768366984E+02  0.72461555234E+02  0.69999980382E+02 0.  0.
         12    1    1    2    0    0 -0.73916617448E+01  0.38555076073E+01  0.16768366984E+02  0.18726444766E+02  0.00000000000E+00 0. -1.
         11    1    3    3    0    0 -0.71075393876E+00 -0.18896953332E+02  0.25206100509E+01  0.19077565140E+02  0.51100000000E-03 0. -1.
        -11    1    3    3    0    0 -0.82582158078E+01 -0.80598695806E+01 -0.22105578955E+02  0.24936243646E+02  0.51100000000E-03 0.  1.
         12    1    3    3    0    0  0.16360631491E+02  0.23101315305E+02  0.28166019200E+01  0.28447746449E+02  0.00000000000E+00 0. -1.
</event>
<event>
 7    1  0.2972263E-013  0.7246162E+02  0.7816164E-02  0.1226708E+00
        -11   -1    0    0    0    0  0.00000000000E+00  0.00000000000E+00  0.45593999997E+02  0.45594000000E+02  0.51100000000E-03 0.  1.
         11   -1    0    0    0    0 -0.00000000000E+00 -0.00000000000E+00 -0.45593999997E+02  0.45594000000E+02  0.51100000000E-03 0. -1.
    9900012    2    1    2    0    0 -0.59604913374E+01 -0.85736466005E+01  0.15544850240E+02  0.72461621760E+02  0.70000067043E+02 0.  0.
         12    1    1    2    0    0  0.59604913374E+01  0.85736466005E+01 -0.15544850240E+02  0.18726378240E+02  0.00000000000E+00 0. -1.
         11    1    3    3    0    0 -0.17872280821E+02  0.15674896654E+01  0.48560360914E+01  0.18586460996E+02  0.51100000000E-03 0. -1.
        -11    1    3    3    0    0 -0.28832382763E+01 -0.62151082150E+01  0.29120813031E+02  0.29915921930E+02  0.51100000000E-03 0.  1.
         12    1    3    3    0    0  0.14795027759E+02 -0.39260280508E+01 -0.18431998882E+02  0.23959238833E+02  0.00000000000E+00 0. -1.
</event>
<event>
 7    1  0.2972263E-013  0.7246157E+02  0.7816164E-02  0.1226708E+00
        -11   -1    0    0    0    0  0.00000000000E+00  0.00000000000E+00  0.45593999997E+02  0.45594000000E+02  0.51100000000E-03 0. -1.
         11   -1    0    0    0    0 -0.00000000000E+00 -0.00000000000E+00 -0.45593999997E+02  0.45594000000E+02  0.51100000000E-03 0.  1.
    9900012    2    1    2    0    0 -0.87684120118E+01  0.64789726870E+01 -0.15225536714E+02  0.72461572030E+02  0.70000002261E+02 0.  0.
         12    1    1    2    0    0  0.87684120118E+01 -0.64789726870E+01  0.15225536714E+02  0.18726427970E+02  0.00000000000E+00 0. -1.
         11    1    3    3    0    0  0.51934017238E+00  0.26808132753E+02  0.13930024710E+02  0.30215745640E+02  0.51100000000E-03 0. -1.
        -11    1    3    3    0    0 -0.61927083769E+01  0.45894293456E+00  0.11560128300E+00  0.62107672293E+01  0.51100000000E-03 0.  1.
        -12    1    3    3    0    0 -0.30950438073E+01 -0.20788103000E+02 -0.29271162707E+02  0.36035059161E+02  0.00000000000E+00 0.  1.
</event>
<event>
 7    1  0.2972263E-013  0.7246157E+02  0.7816164E-02  0.1226708E+00
        -11   -1    0    0    0    0  0.00000000000E+00  0.00000000000E+00  0.45593999997E+02  0.45594000000E+02  0.51100000000E-03 0.  1.
         11   -1    0    0    0    0 -0.00000000000E+00 -0.00000000000E+00 -0.45593999997E+02  0.45594000000E+02  0.51100000000E-03 0. -1.
    9900012    2    1    2    0    0 -0.12811689556E+02  0.12012574718E+02 -0.64990644748E+01  0.72461570023E+02  0.69999999646E+02 0.  0.
         12    1    1    2    0    0  0.12811689556E+02 -0.12012574718E+02  0.64990644748E+01  0.18726429977E+02  0.00000000000E+00 0. -1.
         11    1    3    3    0    0  0.15698574291E+02 -0.13266490890E+02 -0.99887640174E+01  0.22852142616E+02  0.51100000000E-03 0. -1.
        -11    1    3    3    0    0  0.29776505188E-01  0.38079378468E+01 -0.10563770491E+02  0.11229181828E+02  0.51100000000E-03 0.  1.
        -12    1    3    3    0    0 -0.28540040352E+02  0.21471127761E+02  0.14053470034E+02  0.38380245578E+02  0.00000000000E+00 0.  1.
</event>
<event>
 7    1  0.2972263E-013  0.7246150E+02  0.7816164E-02  0.1226708E+00
        -11   -1    0    0    0    0  0.00000000000E+00  0.00000000000E+00  0.45593999997E+02  0.45594000000E+02  0.51100000000E-03 0.  1.
         11   -1    0    0    0    0 -0.00000000000E+00 -0.00000000000E+00 -0.45593999997E+02  0.45594000000E+02  0.51100000000E-03 0. -1.
    9900012    2    1    2    0    0  0.11714991430E+02 -0.12872889649E+02 -0.69086451329E+01  0.72461503006E+02  0.69999912344E+02 0.  0.
         12    1    1    2    0    0 -0.11714991430E+02  0.12872889649E+02  0.69086451329E+01  0.18726496994E+02  0.00000000000E+00 0. -1.
         11    1    3    3    0    0 -0.23177679794E+00 -0.52858957217E+01  0.55295117402E+01  0.76530983536E+01  0.51100000000E-03 0. -1.
        -11    1    3    3    0    0  0.18716036440E+02 -0.31809014950E+02 -0.36013649485E+00  0.36908442810E+02  0.51100000000E-03 0.  1.
         12    1    3    3    0    0 -0.67692682118E+01  0.24222021023E+02 -0.12078020378E+02  0.27899961842E+02  0.00000000000E+00 0. -1.
</event>
<event>
 7    1  0.2972263E-013  0.7246166E+02  0.7816164E-02  0.1226708E+00
        -11   -1    0    0    0    0  0.00000000000E+00  0.00000000000E+00  0.45593999997E+02  0.45594000000E+02  0.51100000000E-03 0. -1.
         11   -1    0    0    0    0 -0.00000000000E+00 -0.00000000000E+00 -0.45593999997E+02  0.45594000000E+02  0.51100000000E-03 0.  1.
    9900012    2    1    2    0    0 -0.76650605997E+00  0.18567662968E+02  0.23086874894E+01  0.72461663531E+02  0.70000121458E+02 0.  0.
         12    1    1    2    0    0  0.76650605997E+00 -0.18567662968E+02 -0.23086874894E+01  0.18726336469E+02  0.00000000000E+00 0. -1.
         11    1    3    3    0    0 -0.11560282574E+02 -0.17401593058E+01 -0.22963054899E+01  0.11913912320E+02  0.51100000000E-03 0. -1.
        -11    1    3    3    0    0 -0.76324676133E+01  0.30363175071E+02  0.17544697130E+02  0.35888624381E+02  0.51100000000E-03 0.  1.
         12    1    3    3    0    0  0.18426244127E+02 -0.10055352797E+02 -0.12939704151E+02  0.24659126830E+02  0.00000000000E+00 0. -1.
</event>
<event>
 7    1  0.2972263E-013  0.7246156E+02  0.7816164E-02  0.1226708E+00
        -11   -1    0    0    0    0  0.00000000000E+00  0.00000000000E+00  0.45593999997E+02  0.45594000000E+02  0.51100000000E-03 0.  1.
         11   -1    0    0    0    0 -0.00000000000E+00 -0.00000000000E+00 -0.45593999997E+02  0.45594000000E+02  0.51100000000E-03 0. -1.
    9900012    2    1    2    0    0  0.13576200400E+02 -0.21991286479E+01  0.12709456182E+02  0.72461557184E+02  0.69999982921E+02 0.  0.
         12    1    1    2    0    0 -0.13576200400E+02  0.21991286479E+01 -0.12709456182E+02  0.18726442816E+02  0.00000000000E+00 0. -1.
         11    1    3    3    0    0  0.37486104039E+02 -0.30937645466E+01  0.18487546892E+02  0.41911439553E+02  0.51100000000E-03 0. -1.
        -11    1    3    3    0    0 -0.14185865139E+01 -0.44772072183E+01  0.32659250357E+01  0.57204928785E+01  0.51100000000E-03 0.  1.
        -12    1    3    3    0    0 -0.22491317126E+02  0.53718431170E+01 -0.90440157452E+01  0.24829624752E+02  0.00000000000E+00 0.  1.
</event>
<event>
 7    1  0.2972263E-013  0.7246160E+02  0.7816164E-02  0.1226708E+00
        -11   -1    0    0    0    0  0.00000000000E+00  0.00000000000E+00  0.45593999997E+02  0.45594000000E+02  0.51100000000E-03 0.  1.
         11   -1    0    0    0    0 -0.00000000000E+00 -0.00000000000E+00 -0.45593999997E+02  0.45594000000E+02  0.51100000000E-03 0. -1.
    9900012    2    1    2    0    0 -0.15599845695E+01 -0.18347530016E+02  0.34077564747E+01  0.72461595814E+02  0.70000033244E+02 0.  0.
         12    1    1    2    0    0  0.15599845695E+01  0.18347530016E+02 -0.34077564747E+01  0.18726404186E+02  0.00000000000E+00 0. -1.
         11    1    3    3    0    0 -0.69126059556E+01  0.58308186675E+01 -0.16804421089E+01  0.91981766330E+01  0.51100000000E-03 0. -1.
        -11    1    3    3    0    0  0.29683666864E+02 -0.52676142803E+01 -0.55676484371E+01  0.30657242995E+02  0.51100000000E-03 0.  1.
         12    1    3    3    0    0 -0.24331045478E+02 -0.18910734403E+02  0.10655847021E+02  0.32606176186E+02  0.00000000000E+00 0. -1.
</event>
<event>
 7    1  0.2972263E-013  0.7246156E+02  0.7816164E-02  0.1226708E+00
        -11   -1    0    0    0    0  0.00000000000E+00  0.00000000000E+00  0.45593999997E+02  0.45594000000E+02  0.51100000000E-03 0. -1.
         11   -1    0    0    0    0 -0.00000000000E+00 -0.00000000000E+00 -0.45593999997E+02  0.45594000000E+02  0.51100000000E-03 0.  1.
    9900012    2    1    2    0    0  0.31472280946E+01 -0.18310798893E+02 -0.23428894274E+01  0.72461560625E+02  0.69999987404E+02 0.  0.
         12    1    1    2    0    0 -0.31472280946E+01  0.18310798893E+02  0.23428894274E+01  0.18726439375E+02  0.00000000000E+00 0. -1.
         11    1    3    3    0    0  0.19834979110E+02 -0.29606888444E+01  0.11632548083E+00  0.20055064363E+02  0.51100000000E-03 0. -1.
        -11    1    3    3    0    0 -0.96838048230E+01 -0.12192894275E+02 -0.24520105734E+02  0.29046141433E+02  0.51100000000E-03 0.  1.
         12    1    3    3    0    0 -0.70039461924E+01 -0.31572157736E+01  0.22060890826E+02  0.23360354829E+02  0.00000000000E+00 0. -1.
</event>
<event>
 7    1  0.2972263E-013  0.7246154E+02  0.7816164E-02  0.1226708E+00
        -11   -1    0    0    0    0  0.00000000000E+00  0.00000000000E+00  0.45593999997E+02  0.45594000000E+02  0.51100000000E-03 0. -1.
         11   -1    0    0    0    0 -0.00000000000E+00 -0.00000000000E+00 -0.45593999997E+02  0.45594000000E+02  0.51100000000E-03 0.  1.
    9900012    2    1    2    0    0 -0.18370859507E+02 -0.16437796847E+01  0.32388012911E+01  0.72461539457E+02  0.69999959828E+02 0.  0.
         12    1    1    2    0    0  0.18370859507E+02  0.16437796847E+01 -0.32388012911E+01  0.18726460543E+02  0.00000000000E+00 0. -1.
         11    1    3    3    0    0 -0.19612308709E+02  0.24284638798E+02  0.12948565619E+02  0.33794255227E+02  0.51100000000E-03 0. -1.
        -11    1    3    3    0    0 -0.12733273394E+02 -0.14998974278E+02 -0.55996965765E+01  0.20456345781E+02  0.51100000000E-03 0.  1.
        -12    1    3    3    0    0  0.13974722596E+02 -0.10929444205E+02 -0.41100677519E+01  0.18210938449E+02  0.00000000000E+00 0.  1.
</event>
<event>
 7    1  0.2972263E-013  0.7246157E+02  0.7816164E-02  0.1226708E+00
        -11   -1    0    0    0    0  0.00000000000E+00  0.00000000000E+00  0.45593999997E+02  0.45594000000E+02  0.51100000000E-03 0. -1.
         11   -1    0    0    0    0 -0.00000000000E+00 -0.00000000000E+00 -0.45593999997E+02  0.45594000000E+02  0.51100000000E-03 0.  1.
    9900012    2    1    2    0    0  0.81343452564E+01  0.13537488989E+02 -0.10062203774E+02  0.72461571465E+02  0.70000001525E+02 0.  0.
         12    1    1    2    0    0 -0.81343452564E+01 -0.13537488989E+02  0.10062203774E+02  0.18726428535E+02  0.00000000000E+00 0. -1.
         11    1    3    3    0    0 -0.83812239609E+01 -0.25812681172E+01 -0.76660306627E+01  0.11647999251E+02  0.51100000000E-03 0. -1.
        -11    1    3    3    0    0  0.43427586491E+01 -0.17361106646E+02 -0.14663709164E+02  0.23136377058E+02  0.51100000000E-03 0.  1.
         12    1    3    3    0    0  0.12172810568E+02  0.33479863752E+02  0.12267536052E+02  0.37677195156E+02  0.00000000000E+00 0. -1.
</event>
<event>
 7    1  0.2972263E-013  0.7246155E+02  0.7816164E-02  0.1226708E+00
        -11   -1    0    0    0    0  0.00000000000E+00  0.00000000000E+00  0.45593999997E+02  0.45594000000E+02  0.51100000000E-03 0.  1.
         11   -1    0    0    0    0 -0.00000000000E+00 -0.00000000000E+00 -0.45593999997E+02  0.45594000000E+02  0.51100000000E-03 0. -1.
    9900012    2    1    2    0    0  0.75634827603E+01  0.12483113281E+02  0.11732249827E+02  0.72461546128E+02  0.69999968518E+02 0.  0.
         12    1    1    2    0    0 -0.75634827603E+01 -0.12483113281E+02 -0.11732249827E+02  0.18726453872E+02  0.00000000000E+00 0. -1.
         11    1    3    3    0    0 -0.25666455479E+02  0.60875006462E+01  0.31605051607E+01  0.26567148777E+02  0.51100000000E-03 0. -1.
        -11    1    3    3    0    0 -0.26278284896E+01 -0.32696059048E+00  0.90287131920E+01  0.94090407568E+01  0.51100000000E-03 0.  1.
        -12    1    3    3    0    0  0.35857766729E+02  0.67225732249E+01 -0.45696852613E+00  0.36485356594E+02  0.00000000000E+00 0.  1.
</event>
<event>
 7    1  0.2972263E-013  0.7246161E+02  0.7816164E-02  0.1226708E+00
        -11   -1    0    0    0    0  0.00000000000E+00  0.00000000000E+00  0.45593999997E+02  0.45594000000E+02  0.51100000000E-03 0.  1.
         11   -1    0    0    0    0 -0.00000000000E+00 -0.00000000000E+00 -0.45593999997E+02  0.45594000000E+02  0.51100000000E-03 0. -1.
    9900012    2    1    2    0    0  0.13545562319E+02 -0.47768349552E+01  0.12015701862E+02  0.72461614818E+02  0.70000058001E+02 0.  0.
         12    1    1    2    0    0 -0.13545562319E+02  0.47768349552E+01 -0.12015701862E+02  0.18726385182E+02  0.00000000000E+00 0. -1.
         11    1    3    3    0    0  0.17986595063E+02 -0.67009202145E+01 -0.10940700710E+02  0.22093412276E+02  0.51100000000E-03 0. -1.
        -11    1    3    3    0    0  0.67748634099E+01 -0.19501243365E+02  0.10929451691E+02  0.23359156268E+02  0.51100000000E-03 0.  1.
         12    1    3    3    0    0 -0.11215896154E+02  0.21425328625E+02  0.12026950881E+02  0.27009046275E+02  0.00000000000E+00 0. -1.
</event>
<event>
 7    1  0.2972263E-013  0.7246158E+02  0.7816164E-02  0.1226708E+00
        -11   -1    0    0    0    0  0.00000000000E+00  0.00000000000E+00  0.45593999997E+02  0.45594000000E+02  0.51100000000E-03 0.  1.
         11   -1    0    0    0    0 -0.00000000000E+00 -0.00000000000E+00 -0.45593999997E+02  0.45594000000E+02  0.51100000000E-03 0. -1.
    9900012    2    1    2    0    0 -0.23484634516E+01  0.74884181379E+01  0.17002558146E+02  0.72461583624E+02  0.70000017364E+02 0.  0.
         12    1    1    2    0    0  0.23484634516E+01 -0.74884181379E+01 -0.17002558146E+02  0.18726416376E+02  0.00000000000E+00 0. -1.
         11    1    3    3    0    0 -0.32661855118E+01 -0.12813310122E+02 -0.11061544928E+02  0.17239682727E+02  0.51100000000E-03 0. -1.
        -11    1    3    3    0    0  0.85120788075E+01 -0.10470901302E+01  0.31190309212E+02  0.32347909861E+02  0.51100000000E-03 0.  1.
         12    1    3    3    0    0 -0.75943567473E+01  0.21348818390E+02 -0.31262061385E+01  0.22873991035E+02  0.00000000000E+00 0. -1.
</event>
<event>
 7    1  0.2972263E-013  0.7246160E+02  0.7816164E-02  0.1226708E+00
        -11   -1    0    0    0    0  0.00000000000E+00  0.00000000000E+00  0.45593999997E+02  0.45594000000E+02  0.51100000000E-03 0.  1.
         11   -1    0    0    0    0 -0.00000000000E+00 -0.00000000000E+00 -0.45593999997E+02  0.45594000000E+02  0.51100000000E-03 0. -1.
    9900012    2    1    2    0    0 -0.85347925505E+01  0.12271828748E+02 -0.11279968338E+02  0.72461597505E+02  0.70000035447E+02 0.  0.
         12    1    1    2    0    0  0.85347925505E+01 -0.12271828748E+02  0.11279968338E+02  0.18726402495E+02  0.00000000000E+00 0. -1.
         11    1    3    3    0    0  0.50975215008E+01 -0.77900515536E+01 -0.19633199891E+01  0.95144234875E+01  0.51100000000E-03 0. -1.
        -11    1    3    3    0    0  0.21986617239E+02  0.16106821971E+01 -0.49635346637E+01  0.22597396119E+02  0.51100000000E-03 0.  1.
         12    1    3    3    0    0 -0.35618931290E+02  0.18451198105E+02 -0.43531136849E+01  0.40349777899E+02  0.00000000000E+00 0. -1.
</event>
<event>
 7    1  0.2972263E-013  0.7246148E+02  0.7816164E-02  0.1226708E+00
        -11   -1    0    0    0    0  0.00000000000E+00  0.00000000000E+00  0.45593999997E+02  0.45594000000E+02  0.51100000000E-03 0. -1.
         11   -1    0    0    0    0 -0.00000000000E+00 -0.00000000000E+00 -0.45593999997E+02  0.45594000000E+02  0.51100000000E-03 0.  1.
    9900012    2    1    2    0    0 -0.14789102000E+02 -0.83677949670E+01 -0.78705131155E+01  0.72461481176E+02  0.69999883907E+02 0.  0.
         12    1    1    2    0    0  0.14789102000E+02  0.83677949670E+01  0.78705131155E+01  0.18726518824E+02  0.00000000000E+00 0. -1.
         11    1    3    3    0    0 -0.14832504374E+02  0.63013093190E+01  0.27534497497E+01  0.16349041896E+02  0.51100000000E-03 0. -1.
        -11    1    3    3    0    0 -0.22314327101E+02 -0.78862406386E+01 -0.19952302510E+02  0.30955070039E+02  0.51100000000E-03 0.  1.
         12    1    3    3    0    0  0.22357729476E+02 -0.67828636474E+01  0.93283396451E+01  0.25157369241E+02  0.00000000000E+00 0. -1.
</event>
<event>
 7    1  0.2972263E-013  0.7246159E+02  0.7816164E-02  0.1226708E+00
        -11   -1    0    0    0    0  0.00000000000E+00  0.00000000000E+00  0.45593999997E+02  0.45594000000E+02  0.51100000000E-03 0. -1.
         11   -1    0    0    0    0 -0.00000000000E+00 -0.00000000000E+00 -0.45593999997E+02  0.45594000000E+02  0.51100000000E-03 0.  1.
    9900012    2    1    2    0    0  0.14071341122E+02  0.10750056251E+02  0.60919555761E+01  0.72461594229E+02  0.70000031179E+02 0.  0.
         12    1    1    2    0    0 -0.14071341122E+02 -0.10750056251E+02 -0.60919555761E+01  0.18726405771E+02  0.00000000000E+00 0. -1.
         11    1    3    3    0    0 -0.19276072712E+02  0.52204090349E+01  0.20276303661E+02  0.28459587842E+02  0.51100000000E-03 0. -1.
        -11    1    3    3    0    0  0.32748319014E+01  0.90109333699E+01  0.18195457085E+01  0.97586982240E+01  0.51100000000E-03 0.  1.
        -12    1    3    3    0    0  0.30072581932E+02 -0.34812861534E+01 -0.16003893794E+02  0.34243308163E+02  0.00000000000E+00 0.  1.
</event>
<event>
 7    1  0.2972263E-013  0.7246157E+02  0.7816164E-02  0.1226708E+00
        -11   -1    0    0    0    0  0.00000000000E+00  0.00000000000E+00  0.45593999997E+02  0.45594000000E+02  0.51100000000E-03 0. -1.
         11   -1    0    0    0    0 -0.00000000000E+00 -0.00000000000E+00 -0.45593999997E+02  0.45594000000E+02  0.51100000000E-03 0.  1.
    9900012    2    1    2    0    0 -0.59353285790E+01 -0.57344501776E+01 -0.16809737258E+02  0.72461566520E+02  0.69999995084E+02 0.  0.
         12    1    1    2    0    0  0.59353285790E+01  0.57344501776E+01  0.16809737258E+02  0.18726433480E+02  0.00000000000E+00 0. -1.
         11    1    3    3    0    0 -0.53092771835E+01  0.82394623833E+01 -0.33818969937E+01  0.10368914703E+02  0.51100000000E-03 0. -1.
        -11    1    3    3    0    0 -0.27428732993E+02 -0.13311351765E+02 -0.17219756027E+02  0.35014960764E+02  0.51100000000E-03 0.  1.
         12    1    3    3    0    0  0.26802681597E+02 -0.66256079552E+00  0.37919157630E+01  0.27077691053E+02  0.00000000000E+00 0. -1.
</event>
<event>
 7    1  0.2972263E-013  0.7246124E+02  0.7816164E-02  0.1226709E+00
        -11   -1    0    0    0    0  0.00000000000E+00  0.00000000000E+00  0.45593999997E+02  0.45594000000E+02  0.51100000000E-03 0. -1.
         11   -1    0    0    0    0 -0.00000000000E+00 -0.00000000000E+00 -0.45593999997E+02  0.45594000000E+02  0.51100000000E-03 0.  1.
    9900012    2    1    2    0    0  0.26400907305E+01  0.18197832670E+02  0.35440394654E+01  0.72461243509E+02  0.69999574300E+02 0.  0.
         12    1    1    2    0    0 -0.26400907305E+01 -0.18197832670E+02 -0.35440394654E+01  0.18726756491E+02  0.00000000000E+00 0. -1.
         11    1    3    3    0    0  0.86960730105E+01 -0.92527625420E+01 -0.41463657076E+01  0.13357681285E+02  0.51100000000E-03 0. -1.
        -11    1    3    3    0    0  0.55162368747E+01  0.25772728702E+02 -0.17290207727E+02  0.31521638560E+02  0.51100000000E-03 0.  1.
         12    1    3    3    0    0 -0.11572219155E+02  0.16778665101E+01  0.24980612900E+02  0.27581923664E+02  0.00000000000E+00 0. -1.
</event>
<event>
 7    1  0.2972263E-013  0.7246146E+02  0.7816164E-02  0.1226708E+00
        -11   -1    0    0    0    0  0.00000000000E+00  0.00000000000E+00  0.45593999997E+02  0.45594000000E+02  0.51100000000E-03 0. -1.
         11   -1    0    0    0    0 -0.00000000000E+00 -0.00000000000E+00 -0.45593999997E+02  0.45594000000E+02  0.51100000000E-03 0.  1.
    9900012    2    1    2    0    0  0.13498455210E+02 -0.19381922656E-01 -0.12979782323E+02  0.72461456862E+02  0.69999852234E+02 0.  0.
         12    1    1    2    0    0 -0.13498455210E+02  0.19381922656E-01  0.12979782323E+02  0.18726543138E+02  0.00000000000E+00 0. -1.
         11    1    3    3    0    0  0.75839807933E+01  0.16558682676E+02 -0.70865261286E+01  0.19542916606E+02  0.51100000000E-03 0.  1.
        -11    1    3    3    0    0 -0.16222705801E+02 -0.23074571535E+02 -0.90725314136E+01  0.29629763103E+02  0.51100000000E-03 0. -1.
         12    1    3    3    0    0  0.22137180218E+02  0.64965069364E+01  0.31792752188E+01  0.23288777153E+02  0.00000000000E+00 0. -1.
</event>
<event>
 7    1  0.2972263E-013  0.7246160E+02  0.7816164E-02  0.1226708E+00
        -11   -1    0    0    0    0  0.00000000000E+00  0.00000000000E+00  0.45593999997E+02  0.45594000000E+02  0.51100000000E-03 0.  1.
         11   -1    0    0    0    0 -0.00000000000E+00 -0.00000000000E+00 -0.45593999997E+02  0.45594000000E+02  0.51100000000E-03 0. -1.
    9900012    2    1    2    0    0  0.15637179353E+02  0.70131954067E+01  0.75479745171E+01  0.72461595988E+02  0.70000033470E+02 0.  0.
         12    1    1    2    0    0 -0.15637179353E+02 -0.70131954067E+01 -0.75479745171E+01  0.18726404012E+02  0.00000000000E+00 0. -1.
         11    1    3    3    0    0  0.17623001300E+02 -0.63521466503E+01 -0.70471895010E+01  0.20014565246E+02  0.51100000000E-03 0. -1.
        -11    1    3    3    0    0  0.89523298026E+01 -0.16388073585E+02  0.52392277765E+01  0.19394913577E+02  0.51100000000E-03 0.  1.
         12    1    3    3    0    0 -0.10938151749E+02  0.29753415642E+02  0.93559362416E+01  0.33052117164E+02  0.00000000000E+00 0. -1.
</event>
<event>
 7    1  0.2972263E-013  0.7246156E+02  0.7816164E-02  0.1226708E+00
        -11   -1    0    0    0    0  0.00000000000E+00  0.00000000000E+00  0.45593999997E+02  0.45594000000E+02  0.51100000000E-03 0.  1.
         11   -1    0    0    0    0 -0.00000000000E+00 -0.00000000000E+00 -0.45593999997E+02  0.45594000000E+02  0.51100000000E-03 0. -1.
    9900012    2    1    2    0    0 -0.17390130099E+02 -0.15117778695E+00  0.69455083582E+01  0.72461559710E+02  0.69999986212E+02 0.  0.
         12    1    1    2    0    0  0.17390130099E+02  0.15117778695E+00 -0.69455083582E+01  0.18726440290E+02  0.00000000000E+00 0. -1.
         11    1    3    3    0    0 -0.12727581132E+01 -0.17477236936E+02 -0.38082822501E+01  0.17932560835E+02  0.51100000000E-03 0. -1.
        -11    1    3    3    0    0  0.14340215875E+02  0.92432577322E+01 -0.69063681370E+01  0.18405910082E+02  0.51100000000E-03 0.  1.
         12    1    3    3    0    0 -0.30457587861E+02  0.80828014171E+01  0.17660158745E+02  0.36123088793E+02  0.00000000000E+00 0. -1.
</event>
<event>
 7    1  0.2972263E-013  0.7246157E+02  0.7816164E-02  0.1226708E+00
        -11   -1    0    0    0    0  0.00000000000E+00  0.00000000000E+00  0.45593999997E+02  0.45594000000E+02  0.51100000000E-03 0.  1.
         11   -1    0    0    0    0 -0.00000000000E+00 -0.00000000000E+00 -0.45593999997E+02  0.45594000000E+02  0.51100000000E-03 0. -1.
    9900012    2    1    2    0    0 -0.26284649360E+01 -0.10165781036E+02  0.15505714802E+02  0.72461571523E+02  0.70000001601E+02 0.  0.
         12    1    1    2    0    0  0.26284649360E+01  0.10165781036E+02 -0.15505714802E+02  0.18726428477E+02  0.00000000000E+00 0. -1.
         11    1    3    3    0    0  0.85316599473E+00  0.38647173151E+01  0.49498951857E+01  0.63376174349E+01  0.51100000000E-03 0. -1.
        -11    1    3    3    0    0 -0.27128363786E+02  0.39159228048E+01  0.21132655328E+02  0.34610283075E+02  0.51100000000E-03 0.  1.
         12    1    3    3    0    0  0.23646732855E+02 -0.17946421156E+02 -0.10576835712E+02  0.31513671013E+02  0.00000000000E+00 0. -1.
</event>
<event>
 7    1  0.2972263E-013  0.7246156E+02  0.7816164E-02  0.1226708E+00
        -11   -1    0    0    0    0  0.00000000000E+00  0.00000000000E+00  0.45593999997E+02  0.45594000000E+02  0.51100000000E-03 0. -1.
         11   -1    0    0    0    0 -0.00000000000E+00 -0.00000000000E+00 -0.45593999997E+02  0.45594000000E+02  0.51100000000E-03 0.  1.
    9900012    2    1    2    0    0 -0.63827845145E+01 -0.11146692955E+02 -0.13626841589E+02  0.72461561105E+02  0.69999988029E+02 0.  0.
         12    1    1    2    0    0  0.63827845145E+01  0.11146692955E+02  0.13626841589E+02  0.18726438895E+02  0.00000000000E+00 0. -1.
         11    1    3    3    0    0 -0.52197818980E+01 -0.28919977413E+01  0.70761555615E+01  0.92564437982E+01  0.51100000000E-03 0. -1.
        -11    1    3    3    0    0 -0.81748581486E+01 -0.31873640708E+02 -0.20102672399E+02  0.38560014465E+02  0.51100000000E-03 0.  1.
        -12    1    3    3    0    0  0.70118555321E+01  0.23618945494E+02 -0.60032475204E+00  0.24645102841E+02  0.00000000000E+00 0.  1.
</event>
<event>
 7    1  0.2972263E-013  0.7246150E+02  0.7816164E-02  0.1226708E+00
        -11   -1    0    0    0    0  0.00000000000E+00  0.00000000000E+00  0.45593999997E+02  0.45594000000E+02  0.51100000000E-03 0.  1.
         11   -1    0    0    0    0 -0.00000000000E+00 -0.00000000000E+00 -0.45593999997E+02  0.45594000000E+02  0.51100000000E-03 0. -1.
    9900012    2    1    2    0    0  0.16409436852E+02 -0.28339699580E+01  0.85662513656E+01  0.72461503638E+02  0.69999913168E+02 0.  0.
         12    1    1    2    0    0 -0.16409436852E+02  0.28339699580E+01 -0.85662513656E+01  0.18726496362E+02  0.00000000000E+00 0. -1.
         11    1    3    3    0    0  0.97987475823E+01  0.83458968252E+01  0.51989086676E+01  0.13881574104E+02  0.51100000000E-03 0. -1.
        -11    1    3    3    0    0  0.15489196309E+02  0.19851862938E+02 -0.39406433934E+01  0.25486081202E+02  0.51100000000E-03 0.  1.
         12    1    3    3    0    0 -0.88785070389E+01 -0.31031729722E+02  0.73079860913E+01  0.33093848333E+02  0.00000000000E+00 0. -1.
</event>
<event>
 7    1  0.2972263E-013  0.7246156E+02  0.7816164E-02  0.1226708E+00
        -11   -1    0    0    0    0  0.00000000000E+00  0.00000000000E+00  0.45593999997E+02  0.45594000000E+02  0.51100000000E-03 0. -1.
         11   -1    0    0    0    0 -0.00000000000E+00 -0.00000000000E+00 -0.45593999997E+02  0.45594000000E+02  0.51100000000E-03 0.  1.
    9900012    2    1    2    0    0 -0.18004555260E+01  0.86486205342E+01 -0.16511792009E+02  0.72461560066E+02  0.69999986676E+02 0.  0.
         12    1    1    2    0    0  0.18004555260E+01 -0.86486205342E+01  0.16511792009E+02  0.18726439934E+02  0.00000000000E+00 0. -1.
         11    1    3    3    0    0  0.63524978619E+01  0.96883789256E+00 -0.49478278903E+01  0.81101095579E+01  0.51100000000E-03 0. -1.
        -11    1    3    3    0    0  0.42915340675E+01  0.18191020799E+02 -0.32701192950E+02  0.37665614597E+02  0.51100000000E-03 0.  1.
         12    1    3    3    0    0 -0.12444487455E+02 -0.10511238158E+02  0.21137228831E+02  0.26685835912E+02  0.00000000000E+00 0. -1.
</event>
<event>
 7    1  0.2972263E-013  0.7246158E+02  0.7816164E-02  0.1226708E+00
        -11   -1    0    0    0    0  0.00000000000E+00  0.00000000000E+00  0.45593999997E+02  0.45594000000E+02  0.51100000000E-03 0. -1.
         11   -1    0    0    0    0 -0.00000000000E+00 -0.00000000000E+00 -0.45593999997E+02  0.45594000000E+02  0.51100000000E-03 0.  1.
    9900012    2    1    2    0    0 -0.17985618069E+02  0.49415822113E+01  0.16665060338E+01  0.72461576571E+02  0.70000008177E+02 0.  0.
         12    1    1    2    0    0  0.17985618069E+02 -0.49415822113E+01 -0.16665060338E+01  0.18726423429E+02  0.00000000000E+00 0. -1.
         11    1    3    3    0    0 -0.10847297789E+02  0.16893587124E+02 -0.13512538460E+01  0.20121705754E+02  0.51100000000E-03 0. -1.
        -11    1    3    3    0    0 -0.16065182264E+02  0.71203134131E+01 -0.16148513047E+02  0.23865527821E+02  0.51100000000E-03 0.  1.
        -12    1    3    3    0    0  0.89268619840E+01 -0.19072318325E+02  0.19166272927E+02  0.28474342997E+02  0.00000000000E+00 0.  1.
</event>
<event>
 7    1  0.2972263E-013  0.7246156E+02  0.7816164E-02  0.1226708E+00
        -11   -1    0    0    0    0  0.00000000000E+00  0.00000000000E+00  0.45593999997E+02  0.45594000000E+02  0.51100000000E-03 0.  1.
         11   -1    0    0    0    0 -0.00000000000E+00 -0.00000000000E+00 -0.45593999997E+02  0.45594000000E+02  0.51100000000E-03 0. -1.
    9900012    2    1    2    0    0 -0.15044919548E+01 -0.18607061810E+02 -0.14810393100E+01  0.72461555524E+02  0.69999980759E+02 0.  0.
         12    1    1    2    0    0  0.15044919548E+01  0.18607061810E+02  0.14810393100E+01  0.18726444476E+02  0.00000000000E+00 0. -1.
         11    1    3    3    0    0 -0.13457162231E+02 -0.31967656908E+02  0.11774546407E+02  0.36628762563E+02  0.51100000000E-03 0. -1.
        -11    1    3    3    0    0  0.60610323818E+01 -0.47151063800E+01  0.52496044554E+01  0.93019723128E+01  0.51100000000E-03 0.  1.
         12    1    3    3    0    0  0.58916378945E+01  0.18075701478E+02 -0.18505190172E+02  0.26530820649E+02  0.00000000000E+00 0. -1.
</event>
<event>
 7    1  0.2972263E-013  0.7246170E+02  0.7816164E-02  0.1226708E+00
        -11   -1    0    0    0    0  0.00000000000E+00  0.00000000000E+00  0.45593999997E+02  0.45594000000E+02  0.51100000000E-03 0.  1.
         11   -1    0    0    0    0 -0.00000000000E+00 -0.00000000000E+00 -0.45593999997E+02  0.45594000000E+02  0.51100000000E-03 0. -1.
    9900012    2    1    2    0    0 -0.46001953529E+01 -0.16766026619E+02  0.69579302027E+01  0.72461701952E+02  0.70000171509E+02 0.  0.
         12    1    1    2    0    0  0.46001953529E+01  0.16766026619E+02 -0.69579302027E+01  0.18726298048E+02  0.00000000000E+00 0. -1.
         11    1    3    3    0    0  0.94191895923E+01  0.86657953221E+01 -0.12329177412E+02  0.17771487193E+02  0.51100000000E-03 0. -1.
        -11    1    3    3    0    0 -0.36850648029E+01  0.94468784070E+01  0.14936742595E+02  0.18053517493E+02  0.51100000000E-03 0.  1.
        -12    1    3    3    0    0 -0.10334320142E+02 -0.34878700348E+02  0.43503650196E+01  0.36636697266E+02  0.00000000000E+00 0.  1.
</event>
<event>
 7    1  0.2972263E-013  0.7246157E+02  0.7816164E-02  0.1226708E+00
        -11   -1    0    0    0    0  0.00000000000E+00  0.00000000000E+00  0.45593999997E+02  0.45594000000E+02  0.51100000000E-03 0. -1.
         11   -1    0    0    0    0 -0.00000000000E+00 -0.00000000000E+00 -0.45593999997E+02  0.45594000000E+02  0.51100000000E-03 0.  1.
    9900012    2    1    2    0    0  0.14572449508E+01 -0.56322308318E+01 -0.17799822169E+02  0.72461567979E+02  0.69999996984E+02 0.  0.
         12    1    1    2    0    0 -0.14572449508E+01  0.56322308318E+01  0.17799822169E+02  0.18726432021E+02  0.00000000000E+00 0. -1.
         11    1    3    3    0    0 -0.15015901294E+02  0.10420520285E+02 -0.16865764408E+02  0.24870033051E+02  0.51100000000E-03 0. -1.
        -11    1    3    3    0    0  0.17995361274E+02 -0.13604139098E+02 -0.18879053556E+02  0.29416394942E+02  0.51100000000E-03 0.  1.
         12    1    3    3    0    0 -0.15222150297E+01 -0.24486120188E+01  0.17944995795E+02  0.18175139985E+02  0.00000000000E+00 0. -1.
</event>
<event>
 7    1  0.2972263E-013  0.7246087E+02  0.7816164E-02  0.1226710E+00
        -11   -1    0    0    0    0  0.00000000000E+00  0.00000000000E+00  0.45593999997E+02  0.45594000000E+02  0.51100000000E-03 0.  1.
         11   -1    0    0    0    0 -0.00000000000E+00 -0.00000000000E+00 -0.45593999997E+02  0.45594000000E+02  0.51100000000E-03 0. -1.
    9900012    2    1    2    0    0  0.30933951077E+01  0.17330043043E+02 -0.63879367088E+01  0.72460874738E+02  0.69999093903E+02 0.  0.
         12    1    1    2    0    0 -0.30933951077E+01 -0.17330043043E+02  0.63879367088E+01  0.18727125262E+02  0.00000000000E+00 0. -1.
         11    1    3    3    0    0  0.76891984864E+01  0.80300464239E+01 -0.12017155487E+02  0.16371238353E+02  0.51100000000E-03 0. -1.
        -11    1    3    3    0    0  0.57512246808E+01  0.48291825017E+00 -0.23364716921E+02  0.24066985528E+02  0.51100000000E-03 0.  1.
        -12    1    3    3    0    0 -0.10347028060E+02  0.88170783694E+01  0.28993935699E+02  0.32022650858E+02  0.00000000000E+00 0.  1.
</event>
<event>
 7    1  0.2972263E-013  0.7246156E+02  0.7816164E-02  0.1226708E+00
        -11   -1    0    0    0    0  0.00000000000E+00  0.00000000000E+00  0.45593999997E+02  0.45594000000E+02  0.51100000000E-03 0.  1.
         11   -1    0    0    0    0 -0.00000000000E+00 -0.00000000000E+00 -0.45593999997E+02  0.45594000000E+02  0.51100000000E-03 0. -1.
    9900012    2    1    2    0    0 -0.10717796357E+02 -0.19309724024E+01  0.15234158269E+02  0.72461564372E+02  0.69999992286E+02 0.  0.
         12    1    1    2    0    0  0.10717796357E+02  0.19309724024E+01 -0.15234158269E+02  0.18726435628E+02  0.00000000000E+00 0. -1.
         11    1    3    3    0    0 -0.35168627948E+01  0.92593572524E+01 -0.21842449906E+02  0.23983257468E+02  0.51100000000E-03 0. -1.
        -11    1    3    3    0    0  0.28586788032E+01 -0.60901727791E+01 -0.26129530317E+01  0.72173244895E+01  0.51100000000E-03 0.  1.
        -12    1    3    3    0    0 -0.10059612365E+02 -0.51001568758E+01  0.39689561206E+02  0.41260982415E+02  0.00000000000E+00 0.  1.
</event>
<event>
 7    1  0.2972263E-013  0.7246155E+02  0.7816164E-02  0.1226708E+00
        -11   -1    0    0    0    0  0.00000000000E+00  0.00000000000E+00  0.45593999997E+02  0.45594000000E+02  0.51100000000E-03 0.  1.
         11   -1    0    0    0    0 -0.00000000000E+00 -0.00000000000E+00 -0.45593999997E+02  0.45594000000E+02  0.51100000000E-03 0. -1.
    9900012    2    1    2    0    0  0.88141505806E+01 -0.26141041773E+01 -0.16314325008E+02  0.72461548346E+02  0.69999971408E+02 0.  0.
         12    1    1    2    0    0 -0.88141505806E+01  0.26141041773E+01  0.16314325008E+02  0.18726451654E+02  0.00000000000E+00 0. -1.
         11    1    3    3    0    0 -0.16615821258E+01  0.16094272934E+01  0.49591439187E+00  0.23658069910E+01  0.51100000000E-03 0. -1.
        -11    1    3    3    0    0 -0.18464300612E+02 -0.25931722027E+02 -0.66766840646E+01  0.32526338785E+02  0.51100000000E-03 0.  1.
         12    1    3    3    0    0  0.28940033318E+02  0.21708190557E+02 -0.10133555335E+02  0.37569402570E+02  0.00000000000E+00 0. -1.
</event>
<event>
 7    1  0.3942577E-013  0.7246156E+02  0.7816164E-02  0.1226708E+00
        -11   -1    0    0    0    0  0.00000000000E+00  0.00000000000E+00  0.45593999997E+02  0.45594000000E+02  0.51100000000E-03 0. -1.
         11   -1    0    0    0    0 -0.00000000000E+00 -0.00000000000E+00 -0.45593999997E+02  0.45594000000E+02  0.51100000000E-03 0.  1.
    9900012    2    1    2    0    0 -0.95472255653E+01 -0.60952616201E+01 -0.14912336868E+02  0.72461560908E+02  0.69999987772E+02 0.  0.
         12    1    1    2    0    0  0.95472255653E+01  0.60952616201E+01  0.14912336868E+02  0.18726439092E+02  0.00000000000E+00 0. -1.
         11    1    3    3    0    0  0.50021392240E+01  0.19561569469E+02  0.78735929572E+00  0.20206343851E+02  0.51100000000E-03 0. -1.
        -11    1    3    3    0    0  0.90454747741E+01  0.55420977094E+01 -0.19065982844E+01  0.10778245599E+02  0.51100000000E-03 0.  1.
        -12    1    3    3    0    0 -0.23594839563E+02 -0.31198928799E+02 -0.13793097879E+02  0.41476971458E+02  0.00000000000E+00 0.  1.
</event>
<event>
 7    1  0.2972263E-013  0.7246154E+02  0.7816164E-02  0.1226708E+00
        -11   -1    0    0    0    0  0.00000000000E+00  0.00000000000E+00  0.45593999997E+02  0.45594000000E+02  0.51100000000E-03 0.  1.
         11   -1    0    0    0    0 -0.00000000000E+00 -0.00000000000E+00 -0.45593999997E+02  0.45594000000E+02  0.51100000000E-03 0. -1.
    9900012    2    1    2    0    0 -0.45998726710E+01  0.18015817762E+02  0.22252917581E+01  0.72461536328E+02  0.69999955753E+02 0.  0.
         12    1    1    2    0    0  0.45998726710E+01 -0.18015817762E+02 -0.22252917581E+01  0.18726463672E+02  0.00000000000E+00 0. -1.
         11    1    3    3    0    0  0.44111509275E+01 -0.21370188815E+01  0.15112644504E+02  0.15887640680E+02  0.51100000000E-03 0. -1.
        -11    1    3    3    0    0 -0.27319453265E+02  0.91847757888E+00 -0.66927679124E+00  0.27343080650E+02  0.51100000000E-03 0.  1.
         12    1    3    3    0    0  0.18308429666E+02  0.19234359065E+02 -0.12218075954E+02  0.29230814999E+02  0.00000000000E+00 0. -1.
</event>
<event>
 7    1  0.2972263E-013  0.7246155E+02  0.7816164E-02  0.1226708E+00
        -11   -1    0    0    0    0  0.00000000000E+00  0.00000000000E+00  0.45593999997E+02  0.45594000000E+02  0.51100000000E-03 0. -1.
         11   -1    0    0    0    0 -0.00000000000E+00 -0.00000000000E+00 -0.45593999997E+02  0.45594000000E+02  0.51100000000E-03 0.  1.
    9900012    2    1    2    0    0  0.10043722761E+01  0.18414083663E+02  0.32546274510E+01  0.72461552375E+02  0.69999976657E+02 0.  0.
         12    1    1    2    0    0 -0.10043722761E+01 -0.18414083663E+02 -0.32546274510E+01  0.18726447625E+02  0.00000000000E+00 0. -1.
         11    1    3    3    0    0 -0.98423170845E+01  0.98526028253E+01 -0.54790914460E+01  0.14965474645E+02  0.51100000000E-03 0. -1.
        -11    1    3    3    0    0 -0.33173342927E+01  0.88255761536E+01 -0.21846304058E+02  0.23794043425E+02  0.51100000000E-03 0.  1.
         12    1    3    3    0    0  0.14164023653E+02 -0.26409531635E+00  0.30580022955E+02  0.33702034305E+02  0.00000000000E+00 0. -1.
</event>
<event>
 7    1  0.2972263E-013  0.7246156E+02  0.7816164E-02  0.1226708E+00
        -11   -1    0    0    0    0  0.00000000000E+00  0.00000000000E+00  0.45593999997E+02  0.45594000000E+02  0.51100000000E-03 0.  1.
         11   -1    0    0    0    0 -0.00000000000E+00 -0.00000000000E+00 -0.45593999997E+02  0.45594000000E+02  0.51100000000E-03 0. -1.
    9900012    2    1    2    0    0 -0.92528317570E+01  0.72612966978E+01 -0.14571825239E+02  0.72461563712E+02  0.69999991426E+02 0.  0.
         12    1    1    2    0    0  0.92528317570E+01 -0.72612966978E+01  0.14571825239E+02  0.18726436288E+02  0.00000000000E+00 0. -1.
         11    1    3    3    0    0 -0.12544152562E+02 -0.35595189499E+01 -0.37082113301E+02  0.39307875366E+02  0.51100000000E-03 0. -1.
        -11    1    3    3    0    0 -0.70147696264E+01 -0.87971950125E+00  0.19199278794E+01  0.73257779543E+01  0.51100000000E-03 0.  1.
        -12    1    3    3    0    0  0.10306090431E+02  0.11700535149E+02  0.20590360183E+02  0.25827910392E+02  0.00000000000E+00 0.  1.
</event>
<event>
 7    1  0.2972263E-013  0.7246161E+02  0.7816164E-02  0.1226708E+00
        -11   -1    0    0    0    0  0.00000000000E+00  0.00000000000E+00  0.45593999997E+02  0.45594000000E+02  0.51100000000E-03 0.  1.
         11   -1    0    0    0    0 -0.00000000000E+00 -0.00000000000E+00 -0.45593999997E+02  0.45594000000E+02  0.51100000000E-03 0. -1.
    9900012    2    1    2    0    0 -0.18080963346E+02 -0.39228748955E+01  0.28926361981E+01  0.72461614146E+02  0.70000057125E+02 0.  0.
         12    1    1    2    0    0  0.18080963346E+02  0.39228748955E+01 -0.28926361981E+01  0.18726385854E+02  0.00000000000E+00 0. -1.
         11    1    3    3    0    0 -0.15748578062E+02 -0.17493832367E+00 -0.48285000615E+01  0.16473091012E+02  0.51100000000E-03 0. -1.
        -11    1    3    3    0    0 -0.13859854175E+02 -0.26377395055E+02  0.14653558567E+01  0.29833031956E+02  0.51100000000E-03 0.  1.
         12    1    3    3    0    0  0.11527468891E+02  0.22629458484E+02  0.62557804029E+01  0.26155491178E+02  0.00000000000E+00 0. -1.
</event>
<event>
 7    1  0.2972263E-013  0.7246168E+02  0.7816164E-02  0.1226708E+00
        -11   -1    0    0    0    0  0.00000000000E+00  0.00000000000E+00  0.45593999997E+02  0.45594000000E+02  0.51100000000E-03 0.  1.
         11   -1    0    0    0    0 -0.00000000000E+00 -0.00000000000E+00 -0.45593999997E+02  0.45594000000E+02  0.51100000000E-03 0. -1.
    9900012    2    1    2    0    0 -0.12179173098E+02 -0.11849631875E+02  0.78694943430E+01  0.72461682312E+02  0.70000145924E+02 0.  0.
         12    1    1    2    0    0  0.12179173098E+02  0.11849631875E+02 -0.78694943430E+01  0.18726317688E+02  0.00000000000E+00 0. -1.
         11    1    3    3    0    0 -0.25874681585E+02 -0.15713318026E+02  0.18993992872E+00  0.30272819293E+02  0.51100000000E-03 0. -1.
        -11    1    3    3    0    0  0.11219563131E+02 -0.10816633037E+02 -0.10424486002E+02  0.18749614817E+02  0.51100000000E-03 0.  1.
        -12    1    3    3    0    0  0.24759453552E+01  0.14680319188E+02  0.18104040416E+02  0.23439248202E+02  0.00000000000E+00 0.  1.
</event>
<event>
 7    1  0.2972263E-013  0.7246159E+02  0.7816164E-02  0.1226708E+00
        -11   -1    0    0    0    0  0.00000000000E+00  0.00000000000E+00  0.45593999997E+02  0.45594000000E+02  0.51100000000E-03 0.  1.
         11   -1    0    0    0    0 -0.00000000000E+00 -0.00000000000E+00 -0.45593999997E+02  0.45594000000E+02  0.51100000000E-03 0. -1.
    9900012    2    1    2    0    0  0.44530533157E+01 -0.17550562808E+02  0.47777189343E+01  0.72461587185E+02  0.70000022003E+02 0.  0.
         12    1    1    2    0    0 -0.44530533157E+01  0.17550562808E+02 -0.47777189343E+01  0.18726412815E+02  0.00000000000E+00 0. -1.
         11    1    3    3    0    0  0.81338798557E+01 -0.48372516039E+01  0.31848641157E+02  0.33224914573E+02  0.51100000000E-03 0. -1.
        -11    1    3    3    0    0  0.51770766275E+01 -0.91016091426E+00  0.27733049877E+01  0.59432092436E+01  0.51100000000E-03 0.  1.
         12    1    3    3    0    0 -0.88579031676E+01 -0.11803150290E+02 -0.29844227210E+02  0.33293463368E+02  0.00000000000E+00 0. -1.
</event>
<event>
 7    1  0.2972263E-013  0.7246158E+02  0.7816164E-02  0.1226708E+00
        -11   -1    0    0    0    0  0.00000000000E+00  0.00000000000E+00  0.45593999997E+02  0.45594000000E+02  0.51100000000E-03 0. -1.
         11   -1    0    0    0    0 -0.00000000000E+00 -0.00000000000E+00 -0.45593999997E+02  0.45594000000E+02  0.51100000000E-03 0.  1.
    9900012    2    1    2    0    0 -0.14709097210E+01 -0.18657465154E+02  0.64348151739E+00  0.72461584169E+02  0.70000018075E+02 0.  0.
         12    1    1    2    0    0  0.14709097210E+01  0.18657465154E+02 -0.64348151739E+00  0.18726415831E+02  0.00000000000E+00 0. -1.
         11    1    3    3    0    0  0.12442029921E+02  0.63883036523E+01  0.43484236816E+01  0.14646614656E+02  0.51100000000E-03 0. -1.
        -11    1    3    3    0    0  0.10192617292E+02 -0.28247607850E+02 -0.11682412716E+02  0.32222593993E+02  0.51100000000E-03 0.  1.
         12    1    3    3    0    0 -0.24105556934E+02  0.32018390436E+01  0.79774705514E+01  0.25592375520E+02  0.00000000000E+00 0. -1.
</event>
<event>
 7    1  0.2972263E-013  0.7246155E+02  0.7816164E-02  0.1226708E+00
        -11   -1    0    0    0    0  0.00000000000E+00  0.00000000000E+00  0.45593999997E+02  0.45594000000E+02  0.51100000000E-03 0.  1.
         11   -1    0    0    0    0 -0.00000000000E+00 -0.00000000000E+00 -0.45593999997E+02  0.45594000000E+02  0.51100000000E-03 0. -1.
    9900012    2    1    2    0    0 -0.42610402337E+01  0.17465829130E+02  0.52410314864E+01  0.72461546462E+02  0.69999968954E+02 0.  0.
         12    1    1    2    0    0  0.42610402337E+01 -0.17465829130E+02 -0.52410314864E+01  0.18726453538E+02  0.00000000000E+00 0. -1.
         11    1    3    3    0    0  0.32095861752E+01  0.67685187033E+01  0.11356643410E+02  0.13604691789E+02  0.51100000000E-03 0. -1.
        -11    1    3    3    0    0 -0.26848104646E+02  0.19261098954E+02  0.72219230082E+01  0.33822578674E+02  0.51100000000E-03 0.  1.
         12    1    3    3    0    0  0.19377478237E+02 -0.85637885270E+01 -0.13337534932E+02  0.25034275999E+02  0.00000000000E+00 0. -1.
</event>
<event>
 7    1  0.2972263E-013  0.7246156E+02  0.7816164E-02  0.1226708E+00
        -11   -1    0    0    0    0  0.00000000000E+00  0.00000000000E+00  0.45593999997E+02  0.45594000000E+02  0.51100000000E-03 0.  1.
         11   -1    0    0    0    0 -0.00000000000E+00 -0.00000000000E+00 -0.45593999997E+02  0.45594000000E+02  0.51100000000E-03 0. -1.
    9900012    2    1    2    0    0 -0.61599458365E+01 -0.16890364421E+02  0.52392796017E+01  0.72461564308E+02  0.69999992202E+02 0.  0.
         12    1    1    2    0    0  0.61599458365E+01  0.16890364421E+02 -0.52392796017E+01  0.18726435692E+02  0.00000000000E+00 0. -1.
         11    1    3    3    0    0 -0.20145605792E+02 -0.33413382806E+01 -0.32973316723E+01  0.20685317755E+02  0.51100000000E-03 0. -1.
        -11    1    3    3    0    0 -0.10644388909E+02 -0.19701433885E+02 -0.50888540423E+01  0.22964014199E+02  0.51100000000E-03 0.  1.
         12    1    3    3    0    0  0.24630048865E+02  0.61524077450E+01  0.13625465316E+02  0.28812232354E+02  0.00000000000E+00 0. -1.
</event>
<event>
 7    1  0.2972263E-013  0.7246159E+02  0.7816164E-02  0.1226708E+00
        -11   -1    0    0    0    0  0.00000000000E+00  0.00000000000E+00  0.45593999997E+02  0.45594000000E+02  0.51100000000E-03 0. -1.
         11   -1    0    0    0    0 -0.00000000000E+00 -0.00000000000E+00 -0.45593999997E+02  0.45594000000E+02  0.51100000000E-03 0.  1.
    9900012    2    1    2    0    0 -0.74665467500E+00 -0.15934742598E+02 -0.98084025829E+01  0.72461594149E+02  0.70000031075E+02 0.  0.
         12    1    1    2    0    0  0.74665467500E+00  0.15934742598E+02  0.98084025829E+01  0.18726405851E+02  0.00000000000E+00 0. -1.
         11    1    3    3    0    0  0.31432062452E+01 -0.86076765884E+01 -0.42601905702E+01  0.10105496806E+02  0.51100000000E-03 0. -1.
        -11    1    3    3    0    0 -0.85126017665E+01 -0.21025945335E+02  0.21774899760E+02  0.31443616616E+02  0.51100000000E-03 0.  1.
        -12    1    3    3    0    0  0.46227408464E+01  0.13698879326E+02 -0.27323111773E+02  0.30912480726E+02  0.00000000000E+00 0.  1.
</event>
<event>
 7    1  0.2972263E-013  0.7246152E+02  0.7816164E-02  0.1226708E+00
        -11   -1    0    0    0    0  0.00000000000E+00  0.00000000000E+00  0.45593999997E+02  0.45594000000E+02  0.51100000000E-03 0. -1.
         11   -1    0    0    0    0 -0.00000000000E+00 -0.00000000000E+00 -0.45593999997E+02  0.45594000000E+02  0.51100000000E-03 0.  1.
    9900012    2    1    2    0    0  0.15843838887E+02 -0.74198694935E+01 -0.66782705754E+01  0.72461521638E+02  0.69999936616E+02 0.  0.
         12    1    1    2    0    0 -0.15843838887E+02  0.74198694935E+01  0.66782705754E+01  0.18726478362E+02  0.00000000000E+00 0. -1.
         11    1    3    3    0    0 -0.27198609322E+01  0.21945284986E+02  0.10938480968E+02  0.24670702113E+02  0.51100000000E-03 0.  1.
        -11    1    3    3    0    0  0.20735418257E+02 -0.11189494582E+02 -0.18546434175E+01  0.23634763840E+02  0.51100000000E-03 0. -1.
        -12    1    3    3    0    0 -0.21717184385E+01 -0.18175659897E+02 -0.15762108126E+02  0.24156055685E+02  0.00000000000E+00 0.  1.
</event>
<event>
 7    1  0.2972263E-013  0.7246163E+02  0.7816164E-02  0.1226708E+00
        -11   -1    0    0    0    0  0.00000000000E+00  0.00000000000E+00  0.45593999997E+02  0.45594000000E+02  0.51100000000E-03 0. -1.
         11   -1    0    0    0    0 -0.00000000000E+00 -0.00000000000E+00 -0.45593999997E+02  0.45594000000E+02  0.51100000000E-03 0.  1.
    9900012    2    1    2    0    0 -0.15860129540E+02  0.44724297867E+01 -0.88955321383E+01  0.72461632780E+02  0.70000081399E+02 0.  0.
         12    1    1    2    0    0  0.15860129540E+02 -0.44724297867E+01  0.88955321383E+01  0.18726367220E+02  0.00000000000E+00 0. -1.
         11    1    3    3    0    0  0.17911701447E+02 -0.63466477162E+01  0.17238339895E+02  0.25656760289E+02  0.51100000000E-03 0. -1.
        -11    1    3    3    0    0 -0.10014887346E+01  0.37869245825E+01  0.56054897317E+00  0.39570181818E+01  0.51100000000E-03 0.  1.
        -12    1    3    3    0    0 -0.32770342252E+02  0.70321529204E+01 -0.26694421006E+02  0.42847854309E+02  0.00000000000E+00 0.  1.
</event>
<event>
 7    1  0.2972263E-013  0.7246157E+02  0.7816164E-02  0.1226708E+00
        -11   -1    0    0    0    0  0.00000000000E+00  0.00000000000E+00  0.45593999997E+02  0.45594000000E+02  0.51100000000E-03 0.  1.
         11   -1    0    0    0    0 -0.00000000000E+00 -0.00000000000E+00 -0.45593999997E+02  0.45594000000E+02  0.51100000000E-03 0. -1.
    9900012    2    1    2    0    0 -0.12864229795E+02  0.87073267170E+00  0.13580589638E+02  0.72461574860E+02  0.70000005948E+02 0.  0.
         12    1    1    2    0    0  0.12864229795E+02 -0.87073267170E+00 -0.13580589638E+02  0.18726425140E+02  0.00000000000E+00 0. -1.
         11    1    3    3    0    0  0.10290598196E+01 -0.84209443319E-01  0.24293125990E+01  0.26396240845E+01  0.51100000000E-03 0. -1.
        -11    1    3    3    0    0 -0.16788540822E+02  0.32433515564E+02  0.11235947721E+02  0.38210398535E+02  0.51100000000E-03 0.  1.
         12    1    3    3    0    0  0.28952512071E+01 -0.31478573449E+02 -0.84670682510E-01  0.31611552241E+02  0.00000000000E+00 0. -1.
</event>
<event>
 7    1  0.2972263E-013  0.7246158E+02  0.7816164E-02  0.1226708E+00
        -11   -1    0    0    0    0  0.00000000000E+00  0.00000000000E+00  0.45593999997E+02  0.45594000000E+02  0.51100000000E-03 0. -1.
         11   -1    0    0    0    0 -0.00000000000E+00 -0.00000000000E+00 -0.45593999997E+02  0.45594000000E+02  0.51100000000E-03 0.  1.
    9900012    2    1    2    0    0 -0.78048554255E+01  0.15814655851E+02 -0.62975945859E+01  0.72461580014E+02  0.70000012662E+02 0.  0.
         12    1    1    2    0    0  0.78048554255E+01 -0.15814655851E+02  0.62975945859E+01  0.18726419986E+02  0.00000000000E+00 0. -1.
         11    1    3    3    0    0 -0.12055999174E+02 -0.10990667538E+02  0.23510878376E+02  0.28616486355E+02  0.51100000000E-03 0. -1.
        -11    1    3    3    0    0  0.17620484976E+01  0.14209157020E+01  0.20364436082E+01  0.30448184134E+01  0.51100000000E-03 0.  1.
        -12    1    3    3    0    0  0.24890952505E+01  0.25384407688E+02 -0.31844916570E+02  0.40800275246E+02  0.00000000000E+00 0.  1.
</event>
<event>
 7    1  0.2972263E-013  0.7246167E+02  0.7816164E-02  0.1226708E+00
        -11   -1    0    0    0    0  0.00000000000E+00  0.00000000000E+00  0.45593999997E+02  0.45594000000E+02  0.51100000000E-03 0.  1.
         11   -1    0    0    0    0 -0.00000000000E+00 -0.00000000000E+00 -0.45593999997E+02  0.45594000000E+02  0.51100000000E-03 0. -1.
    9900012    2    1    2    0    0  0.17833556300E+01 -0.50719024876E+01  0.17937970235E+02  0.72461672856E+02  0.70000133605E+02 0.  0.
         12    1    1    2    0    0 -0.17833556300E+01  0.50719024876E+01 -0.17937970235E+02  0.18726327144E+02  0.00000000000E+00 0. -1.
         11    1    3    3    0    0 -0.71313446441E+01  0.63130452938E+01 -0.78151551559E+01  0.12320197551E+02  0.51100000000E-03 0. -1.
        -11    1    3    3    0    0 -0.15220792550E+02 -0.16212590828E+02 -0.28344971681E+01  0.22417738549E+02  0.51100000000E-03 0.  1.
         12    1    3    3    0    0  0.24135492824E+02  0.48276430466E+01  0.28587622559E+02  0.37723736756E+02  0.00000000000E+00 0. -1.
</event>
<event>
 7    1  0.2972263E-013  0.7246162E+02  0.7816164E-02  0.1226708E+00
        -11   -1    0    0    0    0  0.00000000000E+00  0.00000000000E+00  0.45593999997E+02  0.45594000000E+02  0.51100000000E-03 0.  1.
         11   -1    0    0    0    0 -0.00000000000E+00 -0.00000000000E+00 -0.45593999997E+02  0.45594000000E+02  0.51100000000E-03 0. -1.
    9900012    2    1    2    0    0 -0.61764682832E+01  0.80537930484E+01  0.15737371872E+02  0.72461622445E+02  0.70000067935E+02 0.  0.
         12    1    1    2    0    0  0.61764682832E+01 -0.80537930484E+01 -0.15737371872E+02  0.18726377555E+02  0.00000000000E+00 0. -1.
         11    1    3    3    0    0 -0.18958424416E+02  0.27464161400E+02 -0.81338946339E+01  0.34349123132E+02  0.51100000000E-03 0. -1.
        -11    1    3    3    0    0  0.86584239379E+01 -0.22463893407E+01  0.16923472620E+02  0.19142060912E+02  0.51100000000E-03 0.  1.
        -12    1    3    3    0    0  0.41235321946E+01 -0.17163979011E+02  0.69477938852E+01  0.18970438401E+02  0.00000000000E+00 0.  1.
</event>
<event>
 7    1  0.2972263E-013  0.7246157E+02  0.7816164E-02  0.1226708E+00
        -11   -1    0    0    0    0  0.00000000000E+00  0.00000000000E+00  0.45593999997E+02  0.45594000000E+02  0.51100000000E-03 0.  1.
         11   -1    0    0    0    0 -0.00000000000E+00 -0.00000000000E+00 -0.45593999997E+02  0.45594000000E+02  0.51100000000E-03 0. -1.
    9900012    2    1    2    0    0  0.14574180067E+02 -0.70923749414E+01  0.93792757572E+01  0.72461566259E+02  0.69999994743E+02 0.  0.
         12    1    1    2    0    0 -0.14574180067E+02  0.70923749414E+01 -0.93792757572E+01  0.18726433741E+02  0.00000000000E+00 0. -1.
         11    1    3    3    0    0  0.69101658709E+01  0.21780462439E+02  0.11791622105E+02  0.25713445676E+02  0.51100000000E-03 0. -1.
        -11    1    3    3    0    0 -0.59693557378E+01 -0.86628057290E+01 -0.15764540107E+02  0.18952523211E+02  0.51100000000E-03 0.  1.
        -12    1    3    3    0    0  0.13633369934E+02 -0.20210031651E+02  0.13352193759E+02  0.27795597372E+02  0.00000000000E+00 0.  1.
</event>
<event>
 7    1  0.2972263E-013  0.7246157E+02  0.7816164E-02  0.1226708E+00
        -11   -1    0    0    0    0  0.00000000000E+00  0.00000000000E+00  0.45593999997E+02  0.45594000000E+02  0.51100000000E-03 0.  1.
         11   -1    0    0    0    0 -0.00000000000E+00 -0.00000000000E+00 -0.45593999997E+02  0.45594000000E+02  0.51100000000E-03 0. -1.
    9900012    2    1    2    0    0  0.71544211038E+01 -0.71387697355E+01  0.15764879128E+02  0.72461569785E+02  0.69999999336E+02 0.  0.
         12    1    1    2    0    0 -0.71544211038E+01  0.71387697355E+01 -0.15764879128E+02  0.18726430215E+02  0.00000000000E+00 0. -1.
         11    1    3    3    0    0 -0.89421527896E+01 -0.18992288755E+02 -0.55263564119E+01  0.21707366125E+02  0.51100000000E-03 0. -1.
        -11    1    3    3    0    0 -0.72549878504E+01 -0.86899584628E+01 -0.25036963937E+01  0.11593908861E+02  0.51100000000E-03 0.  1.
        -12    1    3    3    0    0  0.23351561744E+02  0.20543477482E+02  0.23794931934E+02  0.39160294798E+02  0.00000000000E+00 0.  1.
</event>
<event>
 7    1  0.2972263E-013  0.7246157E+02  0.7816164E-02  0.1226708E+00
        -11   -1    0    0    0    0  0.00000000000E+00  0.00000000000E+00  0.45593999997E+02  0.45594000000E+02  0.51100000000E-03 0.  1.
         11   -1    0    0    0    0 -0.00000000000E+00 -0.00000000000E+00 -0.45593999997E+02  0.45594000000E+02  0.51100000000E-03 0. -1.
    9900012    2    1    2    0    0 -0.11254696040E+02  0.10850375684E+02 -0.10309231096E+02  0.72461572652E+02  0.70000003071E+02 0.  0.
         12    1    1    2    0    0  0.11254696040E+02 -0.10850375684E+02  0.10309231096E+02  0.18726427348E+02  0.00000000000E+00 0. -1.
         11    1    3    3    0    0 -0.11467406400E+02  0.19603393694E+02  0.65565403370E+01  0.23638584461E+02  0.51100000000E-03 0. -1.
        -11    1    3    3    0    0  0.44019302315E+01  0.18027829862E+02 -0.49040089157E+01  0.19194502937E+02  0.51100000000E-03 0.  1.
        -12    1    3    3    0    0 -0.41892198712E+01 -0.26780847873E+02 -0.11961762517E+02  0.29628485253E+02  0.00000000000E+00 0.  1.
</event>
<event>
 7    1  0.2972263E-013  0.7246160E+02  0.7816164E-02  0.1226708E+00
        -11   -1    0    0    0    0  0.00000000000E+00  0.00000000000E+00  0.45593999997E+02  0.45594000000E+02  0.51100000000E-03 0.  1.
         11   -1    0    0    0    0 -0.00000000000E+00 -0.00000000000E+00 -0.45593999997E+02  0.45594000000E+02  0.51100000000E-03 0. -1.
    9900012    2    1    2    0    0 -0.15757834468E+01 -0.18637928790E+02 -0.90705732477E+00  0.72461595218E+02  0.70000032468E+02 0.  0.
         12    1    1    2    0    0  0.15757834468E+01  0.18637928790E+02  0.90705732477E+00  0.18726404782E+02  0.00000000000E+00 0. -1.
         11    1    3    3    0    0  0.67598883736E+01  0.62374244607E+01  0.64724595428E+01  0.11246967926E+02  0.51100000000E-03 0. -1.
        -11    1    3    3    0    0  0.16921684797E+01 -0.41128803641E+02 -0.13435485153E+01  0.41185519858E+02  0.51100000000E-03 0.  1.
         12    1    3    3    0    0 -0.10027840300E+02  0.16253450390E+02 -0.60359683523E+01  0.20029107434E+02  0.00000000000E+00 0. -1.
</event>
<event>
 7    1  0.2972263E-013  0.7246162E+02  0.7816164E-02  0.1226708E+00
        -11   -1    0    0    0    0  0.00000000000E+00  0.00000000000E+00  0.45593999997E+02  0.45594000000E+02  0.51100000000E-03 0.  1.
         11   -1    0    0    0    0 -0.00000000000E+00 -0.00000000000E+00 -0.45593999997E+02  0.45594000000E+02  0.51100000000E-03 0. -1.
    9900012    2    1    2    0    0 -0.84074803292E+01  0.15911444629E+02  0.51785614656E+01  0.72461620358E+02  0.70000065217E+02 0.  0.
         12    1    1    2    0    0  0.84074803292E+01 -0.15911444629E+02 -0.51785614656E+01  0.18726379642E+02  0.00000000000E+00 0. -1.
         11    1    3    3    0    0  0.12443532777E+02 -0.46906709239E+01 -0.14753077243E+02  0.19861953330E+02  0.51100000000E-03 0. -1.
        -11    1    3    3    0    0 -0.46164455094E+00 -0.90347663741E+01 -0.34648201942E+01  0.96873679792E+01  0.51100000000E-03 0.  1.
        -12    1    3    3    0    0 -0.20389368555E+02  0.29636881927E+02  0.23396458903E+02  0.42912299048E+02  0.00000000000E+00 0.  1.
</event>
<event>
 7    1  0.2972263E-013  0.7246158E+02  0.7816164E-02  0.1226708E+00
        -11   -1    0    0    0    0  0.00000000000E+00  0.00000000000E+00  0.45593999997E+02  0.45594000000E+02  0.51100000000E-03 0.  1.
         11   -1    0    0    0    0 -0.00000000000E+00 -0.00000000000E+00 -0.45593999997E+02  0.45594000000E+02  0.51100000000E-03 0. -1.
    9900012    2    1    2    0    0 -0.17802726831E+01 -0.15720559253E+01  0.18575199889E+02  0.72461580653E+02  0.70000013494E+02 0.  0.
         12    1    1    2    0    0  0.17802726831E+01  0.15720559253E+01 -0.18575199889E+02  0.18726419347E+02  0.00000000000E+00 0. -1.
         11    1    3    3    0    0  0.13700584308E+02  0.42180084395E+01  0.22489775024E+01  0.14510530853E+02  0.51100000000E-03 0. -1.
        -11    1    3    3    0    0 -0.15409951002E+02  0.12493840338E+02  0.29404626130E+02  0.35471039939E+02  0.51100000000E-03 0.  1.
         12    1    3    3    0    0 -0.70905989686E-01 -0.18283904703E+02 -0.13078403744E+02  0.22480009860E+02  0.00000000000E+00 0. -1.
</event>
<event>
 7    1  0.2972263E-013  0.7246164E+02  0.7816164E-02  0.1226708E+00
        -11   -1    0    0    0    0  0.00000000000E+00  0.00000000000E+00  0.45593999997E+02  0.45594000000E+02  0.51100000000E-03 0.  1.
         11   -1    0    0    0    0 -0.00000000000E+00 -0.00000000000E+00 -0.45593999997E+02  0.45594000000E+02  0.51100000000E-03 0. -1.
    9900012    2    1    2    0    0 -0.11221926621E+02 -0.99890826223E+01  0.11178693187E+02  0.72461639166E+02  0.70000089718E+02 0.  0.
         12    1    1    2    0    0  0.11221926621E+02  0.99890826223E+01 -0.11178693187E+02  0.18726360834E+02  0.00000000000E+00 0. -1.
         11    1    3    3    0    0  0.95384442428E+01 -0.28780526455E+02  0.14726749792E+02  0.33707236335E+02  0.51100000000E-03 0. -1.
        -11    1    3    3    0    0 -0.45514009590E+01 -0.63842234159E+01  0.24556652965E+01  0.82160727616E+01  0.51100000000E-03 0.  1.
        -12    1    3    3    0    0 -0.16208969904E+02  0.25175667249E+02 -0.60037219013E+01  0.30538330070E+02  0.00000000000E+00 0.  1.
</event>
<event>
 7    1  0.2972263E-013  0.7246151E+02  0.7816164E-02  0.1226708E+00
        -11   -1    0    0    0    0  0.00000000000E+00  0.00000000000E+00  0.45593999997E+02  0.45594000000E+02  0.51100000000E-03 0. -1.
         11   -1    0    0    0    0 -0.00000000000E+00 -0.00000000000E+00 -0.45593999997E+02  0.45594000000E+02  0.51100000000E-03 0.  1.
    9900012    2    1    2    0    0  0.18065467497E+02 -0.39356161913E+01  0.29717471567E+01  0.72461508821E+02  0.69999919920E+02 0.  0.
         12    1    1    2    0    0 -0.18065467497E+02  0.39356161913E+01 -0.29717471567E+01  0.18726491179E+02  0.00000000000E+00 0. -1.
         11    1    3    3    0    0 -0.84416836606E+01  0.13208488847E+02 -0.98378222406E+01  0.18506997254E+02  0.51100000000E-03 0.  1.
        -11    1    3    3    0    0  0.18815994114E+02 -0.18351656987E+02 -0.11306974904E+02  0.28612455861E+02  0.51100000000E-03 0. -1.
         12    1    3    3    0    0  0.76911570440E+01  0.12075519484E+01  0.24116544301E+02  0.25342055706E+02  0.00000000000E+00 0. -1.
</event>
<event>
 7    1  0.2972263E-013  0.7246156E+02  0.7816164E-02  0.1226708E+00
        -11   -1    0    0    0    0  0.00000000000E+00  0.00000000000E+00  0.45593999997E+02  0.45594000000E+02  0.51100000000E-03 0.  1.
         11   -1    0    0    0    0 -0.00000000000E+00 -0.00000000000E+00 -0.45593999997E+02  0.45594000000E+02  0.51100000000E-03 0. -1.
    9900012    2    1    2    0    0 -0.14393933878E+02  0.95715653062E+01  0.72027378737E+01  0.72461558059E+02  0.69999984061E+02 0.  0.
         12    1    1    2    0    0  0.14393933878E+02 -0.95715653062E+01 -0.72027378737E+01  0.18726441941E+02  0.00000000000E+00 0. -1.
         11    1    3    3    0    0 -0.16331797442E+02  0.42628657490E+01 -0.39564449659E+01  0.17336467031E+02  0.51100000000E-03 0. -1.
        -11    1    3    3    0    0 -0.23600498022E+02  0.10069161503E+02 -0.24901859851E+01  0.25779304622E+02  0.51100000000E-03 0.  1.
         12    1    3    3    0    0  0.25538361587E+02 -0.47604619461E+01  0.13649368825E+02  0.29345786406E+02  0.00000000000E+00 0. -1.
</event>
<event>
 7    1  0.2972263E-013  0.7246154E+02  0.7816164E-02  0.1226708E+00
        -11   -1    0    0    0    0  0.00000000000E+00  0.00000000000E+00  0.45593999997E+02  0.45594000000E+02  0.51100000000E-03 0.  1.
         11   -1    0    0    0    0 -0.00000000000E+00 -0.00000000000E+00 -0.45593999997E+02  0.45594000000E+02  0.51100000000E-03 0. -1.
    9900012    2    1    2    0    0  0.27675682251E+01 -0.18283535913E+02  0.29552207867E+01  0.72461536125E+02  0.69999955488E+02 0.  0.
         12    1    1    2    0    0 -0.27675682251E+01  0.18283535913E+02 -0.29552207867E+01  0.18726463875E+02  0.00000000000E+00 0. -1.
         11    1    3    3    0    0  0.21098214408E+01 -0.27478890156E+02 -0.20138402971E+02  0.34133502973E+02  0.51100000000E-03 0. -1.
        -11    1    3    3    0    0  0.89764258456E+00 -0.10126445260E+02  0.33548064012E+01  0.10705390327E+02  0.51100000000E-03 0.  1.
        -12    1    3    3    0    0 -0.23989580033E+00  0.19321799502E+02  0.19738817357E+02  0.27622642825E+02  0.00000000000E+00 0.  1.
</event>
<event>
 7    1  0.2972263E-013  0.7246156E+02  0.7816164E-02  0.1226708E+00
        -11   -1    0    0    0    0  0.00000000000E+00  0.00000000000E+00  0.45593999997E+02  0.45594000000E+02  0.51100000000E-03 0.  1.
         11   -1    0    0    0    0 -0.00000000000E+00 -0.00000000000E+00 -0.45593999997E+02  0.45594000000E+02  0.51100000000E-03 0. -1.
    9900012    2    1    2    0    0  0.67357328626E+01  0.14479137634E+02  0.97808046713E+01  0.72461557096E+02  0.69999982806E+02 0.  0.
         12    1    1    2    0    0 -0.67357328626E+01 -0.14479137634E+02 -0.97808046713E+01  0.18726442904E+02  0.00000000000E+00 0. -1.
         11    1    3    3    0    0 -0.22501652494E+02  0.36385329187E+01 -0.77658129755E+01  0.24080513662E+02  0.51100000000E-03 0. -1.
        -11    1    3    3    0    0 -0.93766586776E-01 -0.80015584361E+01 -0.22212969991E+01  0.83046908551E+01  0.51100000000E-03 0.  1.
        -12    1    3    3    0    0  0.29331151944E+02  0.18842163152E+02  0.19767914646E+02  0.40076352579E+02  0.00000000000E+00 0.  1.
</event>
<event>
 7    1  0.2972263E-013  0.7246159E+02  0.7816164E-02  0.1226708E+00
        -11   -1    0    0    0    0  0.00000000000E+00  0.00000000000E+00  0.45593999997E+02  0.45594000000E+02  0.51100000000E-03 0.  1.
         11   -1    0    0    0    0 -0.00000000000E+00 -0.00000000000E+00 -0.45593999997E+02  0.45594000000E+02  0.51100000000E-03 0. -1.
    9900012    2    1    2    0    0 -0.78801254806E+01  0.12892799752E+02  0.11061549748E+02  0.72461586946E+02  0.70000021692E+02 0.  0.
         12    1    1    2    0    0  0.78801254806E+01 -0.12892799752E+02 -0.11061549748E+02  0.18726413054E+02  0.00000000000E+00 0. -1.
         11    1    3    3    0    0 -0.18938230419E+02 -0.69612393136E+01  0.19345866091E+02  0.27953138629E+02  0.51100000000E-03 0. -1.
        -11    1    3    3    0    0  0.57484942859E+01  0.34136588079E+01  0.14469252679E+02  0.15939182111E+02  0.51100000000E-03 0.  1.
        -12    1    3    3    0    0  0.53096106521E+01  0.16440380258E+02 -0.22753569022E+02  0.28569266206E+02  0.00000000000E+00 0.  1.
</event>
<event>
 7    1  0.2972263E-013  0.7246157E+02  0.7816164E-02  0.1226708E+00
        -11   -1    0    0    0    0  0.00000000000E+00  0.00000000000E+00  0.45593999997E+02  0.45594000000E+02  0.51100000000E-03 0.  1.
         11   -1    0    0    0    0 -0.00000000000E+00 -0.00000000000E+00 -0.45593999997E+02  0.45594000000E+02  0.51100000000E-03 0. -1.
    9900012    2    1    2    0    0 -0.14465859578E+02  0.11495449882E+02 -0.30451317563E+01  0.72461567111E+02  0.69999995853E+02 0.  0.
         12    1    1    2    0    0  0.14465859578E+02 -0.11495449882E+02  0.30451317563E+01  0.18726432889E+02  0.00000000000E+00 0. -1.
         11    1    3    3    0    0 -0.28741710075E+01  0.47591490783E+00  0.35026509295E+01  0.45558663034E+01  0.51100000000E-03 0. -1.
        -11    1    3    3    0    0  0.88648169261E+01  0.33201733500E+02  0.65967059958E+01  0.34992236522E+02  0.51100000000E-03 0.  1.
         12    1    3    3    0    0 -0.20456505497E+02 -0.22182198526E+02 -0.13144488682E+02  0.32913464286E+02  0.00000000000E+00 0. -1.
</event>
<event>
 7    1  0.2972263E-013  0.7246162E+02  0.7816164E-02  0.1226708E+00
        -11   -1    0    0    0    0  0.00000000000E+00  0.00000000000E+00  0.45593999997E+02  0.45594000000E+02  0.51100000000E-03 0. -1.
         11   -1    0    0    0    0 -0.00000000000E+00 -0.00000000000E+00 -0.45593999997E+02  0.45594000000E+02  0.51100000000E-03 0.  1.
    9900012    2    1    2    0    0 -0.41856445797E+01 -0.18140317972E+02  0.20214996389E+01  0.72461622415E+02  0.70000067896E+02 0.  0.
         12    1    1    2    0    0  0.41856445797E+01  0.18140317972E+02 -0.20214996389E+01  0.18726377585E+02  0.00000000000E+00 0. -1.
         11    1    3    3    0    0  0.11771621566E+01  0.37622844722E+01 -0.57697694902E+01  0.69878992139E+01  0.51100000000E-03 0. -1.
        -11    1    3    3    0    0  0.20368434983E+02 -0.52205940031E+00 -0.14732366465E+02  0.25143355218E+02  0.51100000000E-03 0.  1.
         12    1    3    3    0    0 -0.25731241720E+02 -0.21380543044E+02  0.22523635594E+02  0.40330367983E+02  0.00000000000E+00 0. -1.
</event>
<event>
 7    1  0.2972263E-013  0.7246151E+02  0.7816164E-02  0.1226708E+00
        -11   -1    0    0    0    0  0.00000000000E+00  0.00000000000E+00  0.45593999997E+02  0.45594000000E+02  0.51100000000E-03 0.  1.
         11   -1    0    0    0    0 -0.00000000000E+00 -0.00000000000E+00 -0.45593999997E+02  0.45594000000E+02  0.51100000000E-03 0. -1.
    9900012    2    1    2    0    0  0.13853984452E+02 -0.54124298737E+01  0.11377785527E+02  0.72461513789E+02  0.69999926391E+02 0.  0.
         12    1    1    2    0    0 -0.13853984452E+02  0.54124298737E+01 -0.11377785527E+02  0.18726486211E+02  0.00000000000E+00 0. -1.
         11    1    3    3    0    0 -0.10124185494E+02  0.14469474141E+02  0.18237377452E+02  0.25386349687E+02  0.51100000000E-03 0. -1.
        -11    1    3    3    0    0  0.91848480810E+00 -0.20226562649E+02  0.54023889431E+01  0.20955745215E+02  0.51100000000E-03 0.  1.
         12    1    3    3    0    0  0.23059685137E+02  0.34465863441E+00 -0.12261980868E+02  0.26119418887E+02  0.00000000000E+00 0. -1.
</event>
<event>
 7    1  0.2972263E-013  0.7246158E+02  0.7816164E-02  0.1226708E+00
        -11   -1    0    0    0    0  0.00000000000E+00  0.00000000000E+00  0.45593999997E+02  0.45594000000E+02  0.51100000000E-03 0. -1.
         11   -1    0    0    0    0 -0.00000000000E+00 -0.00000000000E+00 -0.45593999997E+02  0.45594000000E+02  0.51100000000E-03 0.  1.
    9900012    2    1    2    0    0  0.18345796472E+02 -0.37232952563E+01 -0.49770207380E+00  0.72461577942E+02  0.70000009962E+02 0.  0.
         12    1    1    2    0    0 -0.18345796472E+02  0.37232952563E+01  0.49770207380E+00  0.18726422058E+02  0.00000000000E+00 0. -1.
         11    1    3    3    0    0 -0.10888300736E+02 -0.90368762602E+01  0.92339535337E+01  0.16896334619E+02  0.51100000000E-03 0. -1.
        -11    1    3    3    0    0  0.15805733822E+02 -0.20334130223E+02 -0.47820017566E+01  0.26194763115E+02  0.51100000000E-03 0.  1.
        -12    1    3    3    0    0  0.13428363385E+02  0.25647711227E+02 -0.49496538509E+01  0.29370480208E+02  0.00000000000E+00 0.  1.
</event>
<event>
 7    1  0.2972263E-013  0.7246136E+02  0.7816164E-02  0.1226709E+00
        -11   -1    0    0    0    0  0.00000000000E+00  0.00000000000E+00  0.45593999997E+02  0.45594000000E+02  0.51100000000E-03 0.  1.
         11   -1    0    0    0    0 -0.00000000000E+00 -0.00000000000E+00 -0.45593999997E+02  0.45594000000E+02  0.51100000000E-03 0. -1.
    9900012    2    1    2    0    0  0.30357670425E+01  0.76189555582E+01  0.16835162176E+02  0.72461359863E+02  0.69999725874E+02 0.  0.
         12    1    1    2    0    0 -0.30357670425E+01 -0.76189555582E+01 -0.16835162176E+02  0.18726640137E+02  0.00000000000E+00 0. -1.
         11    1    3    3    0    0  0.13364172812E+02 -0.52491055208E+01  0.75208778030E+01  0.16208572636E+02  0.51100000000E-03 0. -1.
        -11    1    3    3    0    0 -0.48236754295E+01 -0.52948697049E+01  0.28428415940E+02  0.29316860728E+02  0.51100000000E-03 0.  1.
         12    1    3    3    0    0 -0.55047303398E+01  0.18162930784E+02 -0.19114131567E+02  0.26935926499E+02  0.00000000000E+00 0. -1.
</event>
<event>
 7    1  0.2972263E-013  0.7246156E+02  0.7816164E-02  0.1226708E+00
        -11   -1    0    0    0    0  0.00000000000E+00  0.00000000000E+00  0.45593999997E+02  0.45594000000E+02  0.51100000000E-03 0.  1.
         11   -1    0    0    0    0 -0.00000000000E+00 -0.00000000000E+00 -0.45593999997E+02  0.45594000000E+02  0.51100000000E-03 0. -1.
    9900012    2    1    2    0    0 -0.98259522679E+01  0.95488146077E+01  0.12765201601E+02  0.72461559593E+02  0.69999986060E+02 0.  0.
         12    1    1    2    0    0  0.98259522679E+01 -0.95488146077E+01 -0.12765201601E+02  0.18726440407E+02  0.00000000000E+00 0. -1.
         11    1    3    3    0    0  0.11210872969E+02  0.84968960315E+00 -0.13167542103E+02  0.17314439363E+02  0.51100000000E-03 0. -1.
        -11    1    3    3    0    0  0.16608213397E+01  0.47808363583E+01  0.31126638022E+02  0.31535413722E+02  0.51100000000E-03 0.  1.
        -12    1    3    3    0    0 -0.22697646577E+02  0.39182886462E+01 -0.51938943176E+01  0.23611706508E+02  0.00000000000E+00 0.  1.
</event>
<event>
 7    1  0.2972263E-013  0.7246157E+02  0.7816164E-02  0.1226708E+00
        -11   -1    0    0    0    0  0.00000000000E+00  0.00000000000E+00  0.45593999997E+02  0.45594000000E+02  0.51100000000E-03 0. -1.
         11   -1    0    0    0    0 -0.00000000000E+00 -0.00000000000E+00 -0.45593999997E+02  0.45594000000E+02  0.51100000000E-03 0.  1.
    9900012    2    1    2    0    0  0.12439269775E+02 -0.43800851390E+01 -0.13295065277E+02  0.72461565767E+02  0.69999994102E+02 0.  0.
         12    1    1    2    0    0 -0.12439269775E+02  0.43800851390E+01  0.13295065277E+02  0.18726434233E+02  0.00000000000E+00 0. -1.
         11    1    3    3    0    0  0.68072147252E+01  0.87550432484E+01  0.14607797241E+02  0.18340575102E+02  0.51100000000E-03 0. -1.
        -11    1    3    3    0    0  0.13279350332E+01  0.11219680473E+01  0.11690680053E+02  0.11819231113E+02  0.51100000000E-03 0.  1.
        -12    1    3    3    0    0  0.43041200164E+01 -0.14257096435E+02 -0.39593542571E+02  0.42301759552E+02  0.00000000000E+00 0.  1.
</event>
<event>
 7    1  0.2972263E-013  0.7246161E+02  0.7816164E-02  0.1226708E+00
        -11   -1    0    0    0    0  0.00000000000E+00  0.00000000000E+00  0.45593999997E+02  0.45594000000E+02  0.51100000000E-03 0.  1.
         11   -1    0    0    0    0 -0.00000000000E+00 -0.00000000000E+00 -0.45593999997E+02  0.45594000000E+02  0.51100000000E-03 0. -1.
    9900012    2    1    2    0    0 -0.93882698721E+01  0.62886405488E+01  0.14932880443E+02  0.72461614084E+02  0.70000057045E+02 0.  0.
         12    1    1    2    0    0  0.93882698721E+01 -0.62886405488E+01 -0.14932880443E+02  0.18726385916E+02  0.00000000000E+00 0. -1.
         11    1    3    3    0    0 -0.22617286542E+02  0.20909967984E+02  0.28381439904E+02  0.41884060726E+02  0.51100000000E-03 0.  1.
        -11    1    3    3    0    0  0.11973486745E+02 -0.95083826331E+01  0.87738388543E+00  0.15314814001E+02  0.51100000000E-03 0. -1.
        -12    1    3    3    0    0  0.12555299243E+01 -0.51129448022E+01 -0.14325943346E+02  0.15262739358E+02  0.00000000000E+00 0.  1.
</event>
<event>
 7    1  0.2972263E-013  0.7246157E+02  0.7816164E-02  0.1226708E+00
        -11   -1    0    0    0    0  0.00000000000E+00  0.00000000000E+00  0.45593999997E+02  0.45594000000E+02  0.51100000000E-03 0.  1.
         11   -1    0    0    0    0 -0.00000000000E+00 -0.00000000000E+00 -0.45593999997E+02  0.45594000000E+02  0.51100000000E-03 0. -1.
    9900012    2    1    2    0    0  0.17098418652E+02  0.76242772552E+01 -0.43996412503E+00  0.72461572351E+02  0.70000002679E+02 0.  0.
         12    1    1    2    0    0 -0.17098418652E+02 -0.76242772552E+01  0.43996412503E+00  0.18726427649E+02  0.00000000000E+00 0. -1.
         11    1    3    3    0    0 -0.99420295897E+00 -0.18671236753E+01 -0.10142566913E+02  0.10360803743E+02  0.51100000000E-03 0. -1.
        -11    1    3    3    0    0 -0.13285307484E+02 -0.15625305398E+02 -0.91339661632E+00  0.20530072025E+02  0.51100000000E-03 0.  1.
        -12    1    3    3    0    0  0.31377929095E+02  0.25116706328E+02  0.10615999404E+02  0.41570696583E+02  0.00000000000E+00 0.  1.
</event>
<event>
 7    1  0.2972263E-013  0.7246151E+02  0.7816164E-02  0.1226708E+00
        -11   -1    0    0    0    0  0.00000000000E+00  0.00000000000E+00  0.45593999997E+02  0.45594000000E+02  0.51100000000E-03 0.  1.
         11   -1    0    0    0    0 -0.00000000000E+00 -0.00000000000E+00 -0.45593999997E+02  0.45594000000E+02  0.51100000000E-03 0. -1.
    9900012    2    1    2    0    0  0.93127692054E+01 -0.45197439535E+01  0.15605309216E+02  0.72461509901E+02  0.69999921327E+02 0.  0.
         12    1    1    2    0    0 -0.93127692054E+01  0.45197439535E+01 -0.15605309216E+02  0.18726490099E+02  0.00000000000E+00 0. -1.
         11    1    3    3    0    0 -0.56000380431E+00  0.26690010463E+01  0.27445113444E+02  0.27580272353E+02  0.51100000000E-03 0. -1.
        -11    1    3    3    0    0  0.22350033709E+02 -0.98713185133E+01  0.37659463940E+01  0.24721433787E+02  0.51100000000E-03 0.  1.
         12    1    3    3    0    0 -0.12477260699E+02  0.26825735136E+01 -0.15605750622E+02  0.20159803761E+02  0.00000000000E+00 0. -1.
</event>
<event>
 7    1  0.2972263E-013  0.7246161E+02  0.7816164E-02  0.1226708E+00
        -11   -1    0    0    0    0  0.00000000000E+00  0.00000000000E+00  0.45593999997E+02  0.45594000000E+02  0.51100000000E-03 0.  1.
         11   -1    0    0    0    0 -0.00000000000E+00 -0.00000000000E+00 -0.45593999997E+02  0.45594000000E+02  0.51100000000E-03 0. -1.
    9900012    2    1    2    0    0 -0.87353979495E+01  0.64521568169E+01  0.15255829611E+02  0.72461605738E+02  0.70000046172E+02 0.  0.
         12    1    1    2    0    0  0.87353979495E+01 -0.64521568169E+01 -0.15255829611E+02  0.18726394262E+02  0.00000000000E+00 0. -1.
         11    1    3    3    0    0  0.17380125487E+02 -0.11361005403E+02  0.14738897743E+01  0.20816184978E+02  0.51100000000E-03 0. -1.
        -11    1    3    3    0    0 -0.10483740336E+02 -0.71348345645E+01  0.17880363496E+02  0.21920813732E+02  0.51100000000E-03 0.  1.
        -12    1    3    3    0    0 -0.15631783101E+02  0.24947996784E+02 -0.40984236584E+01  0.29724607027E+02  0.00000000000E+00 0.  1.
</event>
<event>
 7    1  0.2972263E-013  0.7246162E+02  0.7816164E-02  0.1226708E+00
        -11   -1    0    0    0    0  0.00000000000E+00  0.00000000000E+00  0.45593999997E+02  0.45594000000E+02  0.51100000000E-03 0.  1.
         11   -1    0    0    0    0 -0.00000000000E+00 -0.00000000000E+00 -0.45593999997E+02  0.45594000000E+02  0.51100000000E-03 0. -1.
    9900012    2    1    2    0    0  0.14808158289E+02  0.16538136355E+01  0.11342864957E+02  0.72461621896E+02  0.70000067221E+02 0.  0.
         12    1    1    2    0    0 -0.14808158289E+02 -0.16538136355E+01 -0.11342864957E+02  0.18726378104E+02  0.00000000000E+00 0. -1.
         11    1    3    3    0    0  0.50925118450E+00 -0.34118811894E+00  0.68724291745E+01  0.68997122491E+01  0.51100000000E-03 0. -1.
        -11    1    3    3    0    0  0.28427587438E+02  0.20676443157E+02  0.16946993249E+02  0.39023628862E+02  0.51100000000E-03 0.  1.
         12    1    3    3    0    0 -0.14128680333E+02 -0.18681441402E+02 -0.12476557466E+02  0.26538280785E+02  0.00000000000E+00 0. -1.
</event>
<event>
 7    1  0.2972263E-013  0.7246157E+02  0.7816164E-02  0.1226708E+00
        -11   -1    0    0    0    0  0.00000000000E+00  0.00000000000E+00  0.45593999997E+02  0.45594000000E+02  0.51100000000E-03 0.  1.
         11   -1    0    0    0    0 -0.00000000000E+00 -0.00000000000E+00 -0.45593999997E+02  0.45594000000E+02  0.51100000000E-03 0. -1.
    9900012    2    1    2    0    0  0.41431899936E+01  0.17910017508E+02 -0.35699394545E+01  0.72461568995E+02  0.69999998308E+02 0.  0.
         12    1    1    2    0    0 -0.41431899936E+01 -0.17910017508E+02  0.35699394545E+01  0.18726431005E+02  0.00000000000E+00 0. -1.
         11    1    3    3    0    0 -0.80735471176E+01 -0.13820854894E+02 -0.77942076658E+01  0.17803029699E+02  0.51100000000E-03 0. -1.
        -11    1    3    3    0    0 -0.13831629537E+02  0.62709175401E+01 -0.67466507403E+01  0.16617932450E+02  0.51100000000E-03 0.  1.
        -12    1    3    3    0    0  0.26048366648E+02  0.25459954862E+02  0.10970918952E+02  0.38040606846E+02  0.00000000000E+00 0.  1.
</event>
<event>
 7    1  0.2972263E-013  0.7246157E+02  0.7816164E-02  0.1226708E+00
        -11   -1    0    0    0    0  0.00000000000E+00  0.00000000000E+00  0.45593999997E+02  0.45594000000E+02  0.51100000000E-03 0. -1.
         11   -1    0    0    0    0 -0.00000000000E+00 -0.00000000000E+00 -0.45593999997E+02  0.45594000000E+02  0.51100000000E-03 0.  1.
    9900012    2    1    2    0    0 -0.59032918309E+01 -0.14582556906E+02 -0.10157728504E+02  0.72461567646E+02  0.69999996550E+02 0.  0.
         12    1    1    2    0    0  0.59032918309E+01  0.14582556906E+02  0.10157728504E+02  0.18726432354E+02  0.00000000000E+00 0. -1.
         11    1    3    3    0    0  0.75183602504E+00  0.51869598984E+01 -0.41050530294E+01  0.66574222512E+01  0.51100000000E-03 0. -1.
        -11    1    3    3    0    0  0.10707587727E+00  0.14650960978E+01 -0.31753216744E+02  0.31787178951E+02  0.51100000000E-03 0.  1.
         12    1    3    3    0    0 -0.67622037332E+01 -0.21234612902E+02  0.25700541270E+02  0.34016966443E+02  0.00000000000E+00 0. -1.
</event>
<event>
 7    1  0.2972263E-013  0.7246155E+02  0.7816164E-02  0.1226708E+00
        -11   -1    0    0    0    0  0.00000000000E+00  0.00000000000E+00  0.45593999997E+02  0.45594000000E+02  0.51100000000E-03 0.  1.
         11   -1    0    0    0    0 -0.00000000000E+00 -0.00000000000E+00 -0.45593999997E+02  0.45594000000E+02  0.51100000000E-03 0. -1.
    9900012    2    1    2    0    0 -0.20484775644E+01  0.16499067133E+02  0.86176823420E+01  0.72461550109E+02  0.69999973704E+02 0.  0.
         12    1    1    2    0    0  0.20484775644E+01 -0.16499067133E+02 -0.86176823420E+01  0.18726449891E+02  0.00000000000E+00 0. -1.
         11    1    3    3    0    0 -0.13866982090E+02 -0.18477347123E+02  0.66345156116E+01  0.24035855438E+02  0.51100000000E-03 0. -1.
        -11    1    3    3    0    0 -0.98809208604E+00 -0.28690920552E+01  0.75022386705E+01  0.80926880900E+01  0.51100000000E-03 0.  1.
         12    1    3    3    0    0  0.12806596611E+02  0.37845506311E+02 -0.55190719401E+01  0.40333006580E+02  0.00000000000E+00 0. -1.
</event>
<event>
 7    1  0.2972263E-013  0.7246157E+02  0.7816164E-02  0.1226708E+00
        -11   -1    0    0    0    0  0.00000000000E+00  0.00000000000E+00  0.45593999997E+02  0.45594000000E+02  0.51100000000E-03 0.  1.
         11   -1    0    0    0    0 -0.00000000000E+00 -0.00000000000E+00 -0.45593999997E+02  0.45594000000E+02  0.51100000000E-03 0. -1.
    9900012    2    1    2    0    0  0.10751527967E+02 -0.11333033486E+02 -0.10326966844E+02  0.72461568257E+02  0.69999997346E+02 0.  0.
         12    1    1    2    0    0 -0.10751527967E+02  0.11333033486E+02  0.10326966844E+02  0.18726431743E+02  0.00000000000E+00 0. -1.
         11    1    3    3    0    0  0.96267126695E+01 -0.11487705802E+02 -0.49142793688E+01  0.15773113941E+02  0.51100000000E-03 0. -1.
        -11    1    3    3    0    0  0.66377882168E+01 -0.23696507237E+02  0.11267830583E+02  0.27065636773E+02  0.51100000000E-03 0.  1.
         12    1    3    3    0    0 -0.55129729195E+01  0.23851179553E+02 -0.16680518059E+02  0.29622817543E+02  0.00000000000E+00 0. -1.
</event>
<event>
 7    1  0.2972263E-013  0.7246153E+02  0.7816164E-02  0.1226708E+00
        -11   -1    0    0    0    0  0.00000000000E+00  0.00000000000E+00  0.45593999997E+02  0.45594000000E+02  0.51100000000E-03 0.  1.
         11   -1    0    0    0    0 -0.00000000000E+00 -0.00000000000E+00 -0.45593999997E+02  0.45594000000E+02  0.51100000000E-03 0. -1.
    9900012    2    1    2    0    0  0.54853640888E+01  0.91221565063E+01  0.15407069865E+02  0.72461527819E+02  0.69999944668E+02 0.  0.
         12    1    1    2    0    0 -0.54853640888E+01 -0.91221565063E+01 -0.15407069865E+02  0.18726472181E+02  0.00000000000E+00 0. -1.
         11    1    3    3    0    0 -0.25036022158E+02  0.19524553733E+01  0.67273507941E+01  0.25997533276E+02  0.51100000000E-03 0. -1.
        -11    1    3    3    0    0  0.58224143187E+01 -0.67142547461E+01 -0.93344435005E+01  0.12888504996E+02  0.51100000000E-03 0.  1.
        -12    1    3    3    0    0  0.24698971928E+02  0.13883955879E+02  0.18014162572E+02  0.33575489547E+02  0.00000000000E+00 0.  1.
</event>
<event>
 7    1  0.2972263E-013  0.7246162E+02  0.7816164E-02  0.1226708E+00
        -11   -1    0    0    0    0  0.00000000000E+00  0.00000000000E+00  0.45593999997E+02  0.45594000000E+02  0.51100000000E-03 0. -1.
         11   -1    0    0    0    0 -0.00000000000E+00 -0.00000000000E+00 -0.45593999997E+02  0.45594000000E+02  0.51100000000E-03 0.  1.
    9900012    2    1    2    0    0 -0.16448305404E+02  0.86224659480E+01 -0.24049182790E+01  0.72461620168E+02  0.70000064970E+02 0.  0.
         12    1    1    2    0    0  0.16448305404E+02 -0.86224659480E+01  0.24049182790E+01  0.18726379832E+02  0.00000000000E+00 0. -1.
         11    1    3    3    0    0  0.51810596652E+01  0.14489253134E+02  0.13226459378E+01  0.15444456228E+02  0.51100000000E-03 0. -1.
        -11    1    3    3    0    0 -0.19355395460E+02  0.18544348933E+02 -0.14226839303E+02  0.30346781832E+02  0.51100000000E-03 0.  1.
         12    1    3    3    0    0 -0.22739696090E+01 -0.24411136120E+02  0.10499275086E+02  0.26670382108E+02  0.00000000000E+00 0. -1.
</event>
<event>
 7    1  0.2972263E-013  0.7246157E+02  0.7816164E-02  0.1226708E+00
        -11   -1    0    0    0    0  0.00000000000E+00  0.00000000000E+00  0.45593999997E+02  0.45594000000E+02  0.51100000000E-03 0.  1.
         11   -1    0    0    0    0 -0.00000000000E+00 -0.00000000000E+00 -0.45593999997E+02  0.45594000000E+02  0.51100000000E-03 0. -1.
    9900012    2    1    2    0    0  0.94708928522E+01 -0.12182012647E+02  0.10610372563E+02  0.72461568160E+02  0.69999997219E+02 0.  0.
         12    1    1    2    0    0 -0.94708928522E+01  0.12182012647E+02 -0.10610372563E+02  0.18726431840E+02  0.00000000000E+00 0. -1.
         11    1    3    3    0    0  0.10221591119E+02  0.45736730945E+01 -0.12124085433E+01  0.11263629314E+02  0.51100000000E-03 0. -1.
        -11    1    3    3    0    0  0.18602423164E+02 -0.65537518779E+01 -0.16286507815E+02  0.25578353120E+02  0.51100000000E-03 0.  1.
        -12    1    3    3    0    0 -0.19353121431E+02 -0.10201933864E+02  0.28109288921E+02  0.35619585726E+02  0.00000000000E+00 0.  1.
</event>
<event>
 7    1  0.2972263E-013  0.7246156E+02  0.7816164E-02  0.1226708E+00
        -11   -1    0    0    0    0  0.00000000000E+00  0.00000000000E+00  0.45593999997E+02  0.45594000000E+02  0.51100000000E-03 0.  1.
         11   -1    0    0    0    0 -0.00000000000E+00 -0.00000000000E+00 -0.45593999997E+02  0.45594000000E+02  0.51100000000E-03 0. -1.
    9900012    2    1    2    0    0 -0.14948030847E+02 -0.98242290977E+01  0.55426061329E+01  0.72461559166E+02  0.69999985503E+02 0.  0.
         12    1    1    2    0    0  0.14948030847E+02  0.98242290977E+01 -0.55426061329E+01  0.18726440834E+02  0.00000000000E+00 0. -1.
         11    1    3    3    0    0  0.16630284653E+02  0.55130548660E+01 -0.75595011086E+01  0.19081566991E+02  0.51100000000E-03 0. -1.
        -11    1    3    3    0    0 -0.88223078432E+01 -0.18792499299E+02  0.20527198788E+02  0.29195154322E+02  0.51100000000E-03 0.  1.
        -12    1    3    3    0    0 -0.22756007656E+02  0.34552153350E+01 -0.74250915463E+01  0.24184837852E+02  0.00000000000E+00 0.  1.
</event>
<event>
 7    1  0.2972263E-013  0.7246159E+02  0.7816164E-02  0.1226708E+00
        -11   -1    0    0    0    0  0.00000000000E+00  0.00000000000E+00  0.45593999997E+02  0.45594000000E+02  0.51100000000E-03 0. -1.
         11   -1    0    0    0    0 -0.00000000000E+00 -0.00000000000E+00 -0.45593999997E+02  0.45594000000E+02  0.51100000000E-03 0.  1.
    9900012    2    1    2    0    0  0.82237829913E+01 -0.10589479421E+02 -0.13073289542E+02  0.72461586020E+02  0.70000020486E+02 0.  0.
         12    1    1    2    0    0 -0.82237829913E+01  0.10589479421E+02  0.13073289542E+02  0.18726413980E+02  0.00000000000E+00 0. -1.
         11    1    3    3    0    0  0.22859763092E+02 -0.45380565489E+01 -0.15748113606E+02  0.28127669798E+02  0.51100000000E-03 0. -1.
        -11    1    3    3    0    0  0.86908937719E+01 -0.70549891125E+01  0.14373849440E+02  0.18218453664E+02  0.51100000000E-03 0.  1.
        -12    1    3    3    0    0 -0.23326873873E+02  0.10035662406E+01 -0.11699025376E+02  0.26115462558E+02  0.00000000000E+00 0.  1.
</event>
<event>
 7    1  0.2972263E-013  0.7246157E+02  0.7816164E-02  0.1226708E+00
        -11   -1    0    0    0    0  0.00000000000E+00  0.00000000000E+00  0.45593999997E+02  0.45594000000E+02  0.51100000000E-03 0. -1.
         11   -1    0    0    0    0 -0.00000000000E+00 -0.00000000000E+00 -0.45593999997E+02  0.45594000000E+02  0.51100000000E-03 0.  1.
    9900012    2    1    2    0    0  0.51120851156E+01 -0.15824128251E+02  0.86106261822E+01  0.72461565946E+02  0.69999994336E+02 0.  0.
         12    1    1    2    0    0 -0.51120851156E+01  0.15824128251E+02 -0.86106261822E+01  0.18726434054E+02  0.00000000000E+00 0. -1.
         11    1    3    3    0    0 -0.22811145625E+02  0.59951944397E+01 -0.71984708254E+01  0.24659860169E+02  0.51100000000E-03 0. -1.
        -11    1    3    3    0    0 -0.79826110276E+00 -0.11098662120E+02  0.12855923260E+02  0.17002714041E+02  0.51100000000E-03 0.  1.
        -12    1    3    3    0    0  0.28721491843E+02 -0.10720660571E+02  0.29531737477E+01  0.30798991736E+02  0.00000000000E+00 0.  1.
</event>
<event>
 7    1  0.2972263E-013  0.7246156E+02  0.7816164E-02  0.1226708E+00
        -11   -1    0    0    0    0  0.00000000000E+00  0.00000000000E+00  0.45593999997E+02  0.45594000000E+02  0.51100000000E-03 0.  1.
         11   -1    0    0    0    0 -0.00000000000E+00 -0.00000000000E+00 -0.45593999997E+02  0.45594000000E+02  0.51100000000E-03 0. -1.
    9900012    2    1    2    0    0 -0.85281445763E+01 -0.15149981392E+02  0.69590488462E+01  0.72461560217E+02  0.69999986873E+02 0.  0.
         12    1    1    2    0    0  0.85281445763E+01  0.15149981392E+02 -0.69590488462E+01  0.18726439783E+02  0.00000000000E+00 0. -1.
         11    1    3    3    0    0  0.50822643651E+01  0.77122245463E+00 -0.25609423049E+02  0.26120236299E+02  0.51100000000E-03 0. -1.
        -11    1    3    3    0    0 -0.96426476639E+01  0.14473090569E+01  0.63143826640E+00  0.97710834620E+01  0.51100000000E-03 0.  1.
        -12    1    3    3    0    0 -0.39677612775E+01 -0.17368512904E+02  0.31937033629E+02  0.36570240456E+02  0.00000000000E+00 0.  1.
</event>
<event>
 7    1  0.3216967E-013  0.7246154E+02  0.7816164E-02  0.1226708E+00
        -11   -1    0    0    0    0  0.00000000000E+00  0.00000000000E+00  0.45593999997E+02  0.45594000000E+02  0.51100000000E-03 0. -1.
         11   -1    0    0    0    0 -0.00000000000E+00 -0.00000000000E+00 -0.45593999997E+02  0.45594000000E+02  0.51100000000E-03 0.  1.
    9900012    2    1    2    0    0  0.41495881067E+01 -0.12028177355E+02 -0.13739869415E+02  0.72461544289E+02  0.69999966124E+02 0.  0.
         12    1    1    2    0    0 -0.41495881067E+01  0.12028177355E+02  0.13739869415E+02  0.18726455711E+02  0.00000000000E+00 0. -1.
         11    1    3    3    0    0  0.93751540675E+01 -0.12104014600E+02  0.14390200689E+02  0.21011391181E+02  0.51100000000E-03 0. -1.
        -11    1    3    3    0    0 -0.10430680581E+02  0.50444937152E+01  0.83406663793E+01  0.14276299595E+02  0.51100000000E-03 0.  1.
        -12    1    3    3    0    0  0.52051146203E+01 -0.49686564704E+01 -0.36470736483E+02  0.37173853513E+02  0.00000000000E+00 0.  1.
</event>
<event>
 7    1  0.2972263E-013  0.7246158E+02  0.7816164E-02  0.1226708E+00
        -11   -1    0    0    0    0  0.00000000000E+00  0.00000000000E+00  0.45593999997E+02  0.45594000000E+02  0.51100000000E-03 0. -1.
         11   -1    0    0    0    0 -0.00000000000E+00 -0.00000000000E+00 -0.45593999997E+02  0.45594000000E+02  0.51100000000E-03 0.  1.
    9900012    2    1    2    0    0 -0.52388633981E+00  0.11647540417E+02 -0.14653978524E+02  0.72461581730E+02  0.70000014896E+02 0.  0.
         12    1    1    2    0    0  0.52388633981E+00 -0.11647540417E+02  0.14653978524E+02  0.18726418270E+02  0.00000000000E+00 0. -1.
         11    1    3    3    0    0 -0.13163068164E+02  0.25436953422E+01 -0.19441222982E+02  0.23615628316E+02  0.51100000000E-03 0. -1.
        -11    1    3    3    0    0 -0.17449075042E+02  0.30786219899E+01  0.39256787945E+01  0.18148253013E+02  0.51100000000E-03 0.  1.
         12    1    3    3    0    0  0.30088256866E+02  0.60252230845E+01  0.86156566286E+00  0.30697700400E+02  0.00000000000E+00 0. -1.
</event>
<event>
 7    1  0.2972263E-013  0.7246160E+02  0.7816164E-02  0.1226708E+00
        -11   -1    0    0    0    0  0.00000000000E+00  0.00000000000E+00  0.45593999997E+02  0.45594000000E+02  0.51100000000E-03 0.  1.
         11   -1    0    0    0    0 -0.00000000000E+00 -0.00000000000E+00 -0.45593999997E+02  0.45594000000E+02  0.51100000000E-03 0. -1.
    9900012    2    1    2    0    0 -0.13836147792E+02  0.12612015681E+02  0.41971364321E+00  0.72461599256E+02  0.70000037728E+02 0.  0.
         12    1    1    2    0    0  0.13836147792E+02 -0.12612015681E+02 -0.41971364321E+00  0.18726400744E+02  0.00000000000E+00 0. -1.
         11    1    3    3    0    0  0.58752970016E+01  0.83674586695E+01 -0.10288212352E+01  0.10275794511E+02  0.51100000000E-03 0. -1.
        -11    1    3    3    0    0 -0.16464703548E+02  0.54057912220E+01  0.29343469905E+02  0.34078560239E+02  0.51100000000E-03 0.  1.
        -12    1    3    3    0    0 -0.32467412457E+01 -0.11612342102E+01 -0.27894935026E+02  0.28107244506E+02  0.00000000000E+00 0.  1.
</event>
<event>
 7    1  0.2972263E-013  0.7246160E+02  0.7816164E-02  0.1226708E+00
        -11   -1    0    0    0    0  0.00000000000E+00  0.00000000000E+00  0.45593999997E+02  0.45594000000E+02  0.51100000000E-03 0.  1.
         11   -1    0    0    0    0 -0.00000000000E+00 -0.00000000000E+00 -0.45593999997E+02  0.45594000000E+02  0.51100000000E-03 0. -1.
    9900012    2    1    2    0    0 -0.59757858065E+01 -0.80005008941E+01  0.15841722941E+02  0.72461595746E+02  0.70000033155E+02 0.  0.
         12    1    1    2    0    0  0.59757858065E+01  0.80005008941E+01 -0.15841722941E+02  0.18726404254E+02  0.00000000000E+00 0. -1.
         11    1    3    3    0    0  0.28652097792E+02 -0.18122599720E+01 -0.34676646210E+00  0.28711447914E+02  0.51100000000E-03 0. -1.
        -11    1    3    3    0    0 -0.11609121123E+02 -0.12213505946E+02  0.67524878564E+01  0.18153168133E+02  0.51100000000E-03 0.  1.
        -12    1    3    3    0    0 -0.23018762476E+02  0.60252650240E+01  0.94360015464E+01  0.25596979699E+02  0.00000000000E+00 0.  1.
</event>
<event>
 7    1  0.2972263E-013  0.7246158E+02  0.7816164E-02  0.1226708E+00
        -11   -1    0    0    0    0  0.00000000000E+00  0.00000000000E+00  0.45593999997E+02  0.45594000000E+02  0.51100000000E-03 0.  1.
         11   -1    0    0    0    0 -0.00000000000E+00 -0.00000000000E+00 -0.45593999997E+02  0.45594000000E+02  0.51100000000E-03 0. -1.
    9900012    2    1    2    0    0 -0.15363297137E+02 -0.10705704235E+02  0.18900147761E+00  0.72461582199E+02  0.70000015508E+02 0.  0.
         12    1    1    2    0    0  0.15363297137E+02  0.10705704235E+02 -0.18900147761E+00  0.18726417801E+02  0.00000000000E+00 0. -1.
         11    1    3    3    0    0  0.15049673422E+02  0.10905080829E+02  0.64143529980E+01  0.19661062602E+02  0.51100000000E-03 0. -1.
        -11    1    3    3    0    0 -0.24009083029E+01 -0.23206826687E+02  0.23831924967E+01  0.23452095265E+02  0.51100000000E-03 0.  1.
        -12    1    3    3    0    0 -0.28012062256E+02  0.15960416224E+01 -0.86085440172E+01  0.29348424332E+02  0.00000000000E+00 0.  1.
</event>
<event>
 7    1  0.2972263E-013  0.7246155E+02  0.7816164E-02  0.1226708E+00
        -11   -1    0    0    0    0  0.00000000000E+00  0.00000000000E+00  0.45593999997E+02  0.45594000000E+02  0.51100000000E-03 0.  1.
         11   -1    0    0    0    0 -0.00000000000E+00 -0.00000000000E+00 -0.45593999997E+02  0.45594000000E+02  0.51100000000E-03 0. -1.
    9900012    2    1    2    0    0 -0.67862864094E+00  0.15289881903E+02 -0.10790692411E+02  0.72461546300E+02  0.69999968743E+02 0.  0.
         12    1    1    2    0    0  0.67862864094E+00 -0.15289881903E+02  0.10790692411E+02  0.18726453700E+02  0.00000000000E+00 0. -1.
         11    1    3    3    0    0 -0.24472289829E+02 -0.69979282979E+01 -0.50579213277E+01  0.25950848509E+02  0.51100000000E-03 0. -1.
        -11    1    3    3    0    0 -0.78156365286E+01  0.38480095529E+01 -0.47063734990E+01  0.99015808657E+01  0.51100000000E-03 0.  1.
        -12    1    3    3    0    0  0.31609297716E+02  0.18439800648E+02 -0.10263975847E+01  0.36609116926E+02  0.00000000000E+00 0.  1.
</event>
<event>
 7    1  0.2972263E-013  0.7246157E+02  0.7816164E-02  0.1226708E+00
        -11   -1    0    0    0    0  0.00000000000E+00  0.00000000000E+00  0.45593999997E+02  0.45594000000E+02  0.51100000000E-03 0. -1.
         11   -1    0    0    0    0 -0.00000000000E+00 -0.00000000000E+00 -0.45593999997E+02  0.45594000000E+02  0.51100000000E-03 0.  1.
    9900012    2    1    2    0    0 -0.29553162267E+01  0.11405616651E+02 -0.14555312491E+02  0.72461571967E+02  0.70000002178E+02 0.  0.
         12    1    1    2    0    0  0.29553162267E+01 -0.11405616651E+02  0.14555312491E+02  0.18726428033E+02  0.00000000000E+00 0. -1.
         11    1    3    3    0    0  0.99903497435E+01  0.13006038215E+02 -0.26273015524E-01  0.16400146602E+02  0.51100000000E-03 0. -1.
        -11    1    3    3    0    0  0.12704206585E+02 -0.10836356067E+01 -0.25226302570E+02  0.28265482000E+02  0.51100000000E-03 0.  1.
         12    1    3    3    0    0 -0.25649872555E+02 -0.51678595710E+00  0.10697263095E+02  0.27795943365E+02  0.00000000000E+00 0. -1.
</event>
<event>
 7    1  0.2972263E-013  0.7246081E+02  0.7816164E-02  0.1226710E+00
        -11   -1    0    0    0    0  0.00000000000E+00  0.00000000000E+00  0.45593999997E+02  0.45594000000E+02  0.51100000000E-03 0. -1.
         11   -1    0    0    0    0 -0.00000000000E+00 -0.00000000000E+00 -0.45593999997E+02  0.45594000000E+02  0.51100000000E-03 0.  1.
    9900012    2    1    2    0    0  0.21656309632E+01 -0.17674004468E+02  0.58006287604E+01  0.72460808929E+02  0.69999008173E+02 0.  0.
         12    1    1    2    0    0 -0.21656309632E+01  0.17674004468E+02 -0.58006287604E+01  0.18727191071E+02  0.00000000000E+00 0. -1.
         11    1    3    3    0    0 -0.15524184109E+02  0.23612252545E+01  0.34132171076E+01  0.16069403482E+02  0.51100000000E-03 0. -1.
        -11    1    3    3    0    0 -0.10816643112E+02 -0.75455109877E+00 -0.14460464450E+02  0.18074129244E+02  0.51100000000E-03 0.  1.
         12    1    3    3    0    0  0.28506458185E+02 -0.19280678624E+02  0.16847876102E+02  0.38317276203E+02  0.00000000000E+00 0. -1.
</event>
<event>
 7    1  0.2972263E-013  0.7246164E+02  0.7816164E-02  0.1226708E+00
        -11   -1    0    0    0    0  0.00000000000E+00  0.00000000000E+00  0.45593999997E+02  0.45594000000E+02  0.51100000000E-03 0.  1.
         11   -1    0    0    0    0 -0.00000000000E+00 -0.00000000000E+00 -0.45593999997E+02  0.45594000000E+02  0.51100000000E-03 0. -1.
    9900012    2    1    2    0    0 -0.14075676924E+02  0.17574441635E+01  0.12225510767E+02  0.72461644125E+02  0.70000096178E+02 0.  0.
         12    1    1    2    0    0  0.14075676924E+02 -0.17574441635E+01 -0.12225510767E+02  0.18726355875E+02  0.00000000000E+00 0. -1.
         11    1    3    3    0    0 -0.22769589300E+01 -0.17896938717E+01 -0.20814072926E+02  0.21014594409E+02  0.51100000000E-03 0.  1.
        -11    1    3    3    0    0 -0.15617258969E+02  0.18292629645E+02  0.18004925494E+02  0.30044906712E+02  0.51100000000E-03 0. -1.
        -12    1    3    3    0    0  0.38185409757E+01 -0.14745491610E+02  0.15034658200E+02  0.21402143004E+02  0.00000000000E+00 0.  1.
</event>
<event>
 7    1  0.2972263E-013  0.7246158E+02  0.7816164E-02  0.1226708E+00
        -11   -1    0    0    0    0  0.00000000000E+00  0.00000000000E+00  0.45593999997E+02  0.45594000000E+02  0.51100000000E-03 0.  1.
         11   -1    0    0    0    0 -0.00000000000E+00 -0.00000000000E+00 -0.45593999997E+02  0.45594000000E+02  0.51100000000E-03 0. -1.
    9900012    2    1    2    0    0  0.66103127494E+01  0.39641798772E+01  0.17066567113E+02  0.72461583638E+02  0.70000017383E+02 0.  0.
         12    1    1    2    0    0 -0.66103127494E+01 -0.39641798772E+01 -0.17066567113E+02  0.18726416362E+02  0.00000000000E+00 0. -1.
         11    1    3    3    0    0  0.14862533095E+02 -0.21336271320E+01  0.12626204982E+02  0.19618060742E+02  0.51100000000E-03 0. -1.
        -11    1    3    3    0    0  0.20057923641E+02  0.12426307727E+02  0.81804399538E+00  0.23609375696E+02  0.51100000000E-03 0.  1.
         12    1    3    3    0    0 -0.28310143987E+02 -0.63285007178E+01  0.36223181349E+01  0.29234147201E+02  0.00000000000E+00 0. -1.
</event>
<event>
 7    1  0.2972263E-013  0.7246156E+02  0.7816164E-02  0.1226708E+00
        -11   -1    0    0    0    0  0.00000000000E+00  0.00000000000E+00  0.45593999997E+02  0.45594000000E+02  0.51100000000E-03 0.  1.
         11   -1    0    0    0    0 -0.00000000000E+00 -0.00000000000E+00 -0.45593999997E+02  0.45594000000E+02  0.51100000000E-03 0. -1.
    9900012    2    1    2    0    0  0.11580763813E+02 -0.12876481036E+02 -0.71247268919E+01  0.72461559130E+02  0.69999985456E+02 0.  0.
         12    1    1    2    0    0 -0.11580763813E+02  0.12876481036E+02  0.71247268919E+01  0.18726440870E+02  0.00000000000E+00 0. -1.
         11    1    3    3    0    0  0.63753887757E+00  0.13722951062E+02  0.12507018019E+02  0.18578249154E+02  0.51100000000E-03 0. -1.
        -11    1    3    3    0    0 -0.15150270127E+02 -0.42454259909E+01 -0.76463146836E+01  0.17493440350E+02  0.51100000000E-03 0.  1.
         12    1    3    3    0    0  0.26093495063E+02 -0.22354006107E+02 -0.11985430227E+02  0.36389869626E+02  0.00000000000E+00 0. -1.
</event>
<event>
 7    1  0.2972263E-013  0.7246170E+02  0.7816164E-02  0.1226708E+00
        -11   -1    0    0    0    0  0.00000000000E+00  0.00000000000E+00  0.45593999997E+02  0.45594000000E+02  0.51100000000E-03 0. -1.
         11   -1    0    0    0    0 -0.00000000000E+00 -0.00000000000E+00 -0.45593999997E+02  0.45594000000E+02  0.51100000000E-03 0.  1.
    9900012    2    1    2    0    0  0.11447694454E+02 -0.90824142959E+01 -0.11710441393E+02  0.72461697766E+02  0.70000166055E+02 0.  0.
         12    1    1    2    0    0 -0.11447694454E+02  0.90824142959E+01  0.11710441393E+02  0.18726302234E+02  0.00000000000E+00 0. -1.
         11    1    3    3    0    0  0.80035445836E+01  0.38076932260E+01  0.16091311263E+01  0.90080273561E+01  0.51100000000E-03 0. -1.
        -11    1    3    3    0    0  0.26250496319E+02 -0.10368759566E+02 -0.25002103354E+02  0.37705502308E+02  0.51100000000E-03 0.  1.
         12    1    3    3    0    0 -0.22806346449E+02 -0.25213479558E+01  0.11682530835E+02  0.25748168101E+02  0.00000000000E+00 0. -1.
</event>
<event>
 7    1  0.2972263E-013  0.7246142E+02  0.7816164E-02  0.1226708E+00
        -11   -1    0    0    0    0  0.00000000000E+00  0.00000000000E+00  0.45593999997E+02  0.45594000000E+02  0.51100000000E-03 0.  1.
         11   -1    0    0    0    0 -0.00000000000E+00 -0.00000000000E+00 -0.45593999997E+02  0.45594000000E+02  0.51100000000E-03 0. -1.
    9900012    2    1    2    0    0 -0.93514838753E+00  0.10930049039E+01  0.18671252401E+02  0.72461419200E+02  0.69999803172E+02 0.  0.
         12    1    1    2    0    0  0.93514838753E+00 -0.10930049039E+01 -0.18671252401E+02  0.18726580800E+02  0.00000000000E+00 0. -1.
         11    1    3    3    0    0 -0.10544939341E+02  0.62568247019E+01 -0.11878685340E+02  0.17071812052E+02  0.51100000000E-03 0. -1.
        -11    1    3    3    0    0 -0.12223162717E+02 -0.15960373980E+02  0.64184250164E+01  0.21102971931E+02  0.51100000000E-03 0.  1.
         12    1    3    3    0    0  0.21832953670E+02  0.10796554182E+02  0.24131512725E+02  0.34286635218E+02  0.00000000000E+00 0. -1.
</event>
<event>
 7    1  0.2972263E-013  0.7246154E+02  0.7816164E-02  0.1226708E+00
        -11   -1    0    0    0    0  0.00000000000E+00  0.00000000000E+00  0.45593999997E+02  0.45594000000E+02  0.51100000000E-03 0. -1.
         11   -1    0    0    0    0 -0.00000000000E+00 -0.00000000000E+00 -0.45593999997E+02  0.45594000000E+02  0.51100000000E-03 0.  1.
    9900012    2    1    2    0    0  0.15057630636E+02  0.33747452830E+01  0.10609394786E+02  0.72461537338E+02  0.69999957069E+02 0.  0.
         12    1    1    2    0    0 -0.15057630636E+02 -0.33747452830E+01 -0.10609394786E+02  0.18726462662E+02  0.00000000000E+00 0. -1.
         11    1    3    3    0    0  0.13602490429E+02  0.26482746900E+02 -0.83051091029E+01  0.30908550059E+02  0.51100000000E-03 0. -1.
        -11    1    3    3    0    0  0.11000538014E+02 -0.22781972489E+01 -0.88765773772E+00  0.11268982023E+02  0.51100000000E-03 0.  1.
        -12    1    3    3    0    0 -0.95453978075E+01 -0.20829804368E+02  0.19802161627E+02  0.30284005257E+02  0.00000000000E+00 0.  1.
</event>
<event>
 7    1  0.2972263E-013  0.7246153E+02  0.7816164E-02  0.1226708E+00
        -11   -1    0    0    0    0  0.00000000000E+00  0.00000000000E+00  0.45593999997E+02  0.45594000000E+02  0.51100000000E-03 0.  1.
         11   -1    0    0    0    0 -0.00000000000E+00 -0.00000000000E+00 -0.45593999997E+02  0.45594000000E+02  0.51100000000E-03 0. -1.
    9900012    2    1    2    0    0  0.67610187028E+01  0.54873871038E+01  0.16578840064E+02  0.72461528656E+02  0.69999945758E+02 0.  0.
         12    1    1    2    0    0 -0.67610187028E+01 -0.54873871038E+01 -0.16578840064E+02  0.18726471344E+02  0.00000000000E+00 0. -1.
         11    1    3    3    0    0  0.81262197243E+01 -0.27793933917E+01  0.63016986147E+01  0.10652318073E+02  0.51100000000E-03 0. -1.
        -11    1    3    3    0    0 -0.18624152562E+02 -0.11290850024E+01  0.29119540225E+02  0.34584411441E+02  0.51100000000E-03 0.  1.
         12    1    3    3    0    0  0.17258951540E+02  0.93958654979E+01 -0.18842398775E+02  0.27224799142E+02  0.00000000000E+00 0. -1.
</event>
<event>
 7    1  0.2972263E-013  0.7246166E+02  0.7816164E-02  0.1226708E+00
        -11   -1    0    0    0    0  0.00000000000E+00  0.00000000000E+00  0.45593999997E+02  0.45594000000E+02  0.51100000000E-03 0. -1.
         11   -1    0    0    0    0 -0.00000000000E+00 -0.00000000000E+00 -0.45593999997E+02  0.45594000000E+02  0.51100000000E-03 0.  1.
    9900012    2    1    2    0    0 -0.28546033976E+01  0.10425486238E+02 -0.15291709026E+02  0.72461657891E+02  0.70000114110E+02 0.  0.
         12    1    1    2    0    0  0.28546033976E+01 -0.10425486238E+02  0.15291709026E+02  0.18726342109E+02  0.00000000000E+00 0. -1.
         11    1    3    3    0    0  0.18017293933E+02 -0.34793796448E+01  0.96863363676E+01  0.20749797008E+02  0.51100000000E-03 0. -1.
        -11    1    3    3    0    0 -0.67254004854E+01  0.63749955843E+00  0.97933377006E+01  0.11897347644E+02  0.51100000000E-03 0.  1.
        -12    1    3    3    0    0 -0.14146496845E+02  0.13267366324E+02 -0.34771383095E+02  0.39814513239E+02  0.00000000000E+00 0.  1.
</event>
<event>
 7    1  0.2972263E-013  0.7246155E+02  0.7816164E-02  0.1226708E+00
        -11   -1    0    0    0    0  0.00000000000E+00  0.00000000000E+00  0.45593999997E+02  0.45594000000E+02  0.51100000000E-03 0. -1.
         11   -1    0    0    0    0 -0.00000000000E+00 -0.00000000000E+00 -0.45593999997E+02  0.45594000000E+02  0.51100000000E-03 0.  1.
    9900012    2    1    2    0    0  0.66774527633E+01 -0.81106648104E+01 -0.15501893681E+02  0.72461549008E+02  0.69999972271E+02 0.  0.
         12    1    1    2    0    0 -0.66774527633E+01  0.81106648104E+01  0.15501893681E+02  0.18726450992E+02  0.00000000000E+00 0. -1.
         11    1    3    3    0    0 -0.33243804428E+01 -0.23450574358E+01  0.32355592038E+01  0.51980422592E+01  0.51100000000E-03 0. -1.
        -11    1    3    3    0    0 -0.19411141978E+02  0.18062617238E+02 -0.49260040846E+01  0.26968798469E+02  0.51100000000E-03 0.  1.
         12    1    3    3    0    0  0.29412975184E+02 -0.23828224612E+02 -0.13811448800E+02  0.40294708279E+02  0.00000000000E+00 0. -1.
</event>
<event>
 7    1  0.2972263E-013  0.7246151E+02  0.7816164E-02  0.1226708E+00
        -11   -1    0    0    0    0  0.00000000000E+00  0.00000000000E+00  0.45593999997E+02  0.45594000000E+02  0.51100000000E-03 0. -1.
         11   -1    0    0    0    0 -0.00000000000E+00 -0.00000000000E+00 -0.45593999997E+02  0.45594000000E+02  0.51100000000E-03 0.  1.
    9900012    2    1    2    0    0 -0.81904871755E+01 -0.44168985833E+01 -0.16250792161E+02  0.72461512899E+02  0.69999925232E+02 0.  0.
         12    1    1    2    0    0  0.81904871755E+01  0.44168985833E+01  0.16250792161E+02  0.18726487101E+02  0.00000000000E+00 0. -1.
         11    1    3    3    0    0 -0.86017435143E+01 -0.35811432217E+01  0.65616321534E+01  0.11396034180E+02  0.51100000000E-03 0. -1.
        -11    1    3    3    0    0  0.49519838610E+01 -0.20547283245E+02 -0.32397074270E+02  0.38681822791E+02  0.51100000000E-03 0.  1.
         12    1    3    3    0    0 -0.45407275221E+01  0.19711527884E+02  0.95846499549E+01  0.22383655928E+02  0.00000000000E+00 0. -1.
</event>
<event>
 7    1  0.2972263E-013  0.7246159E+02  0.7816164E-02  0.1226708E+00
        -11   -1    0    0    0    0  0.00000000000E+00  0.00000000000E+00  0.45593999997E+02  0.45594000000E+02  0.51100000000E-03 0. -1.
         11   -1    0    0    0    0 -0.00000000000E+00 -0.00000000000E+00 -0.45593999997E+02  0.45594000000E+02  0.51100000000E-03 0.  1.
    9900012    2    1    2    0    0 -0.92716233377E+01 -0.16167390907E+02  0.18251118942E+01  0.72461586529E+02  0.70000021149E+02 0.  0.
         12    1    1    2    0    0  0.92716233377E+01  0.16167390907E+02 -0.18251118942E+01  0.18726413471E+02  0.00000000000E+00 0. -1.
         11    1    3    3    0    0 -0.57364080380E+01  0.92057064957E+01  0.25708583387E+01  0.11147229347E+02  0.51100000000E-03 0.  1.
        -11    1    3    3    0    0 -0.24848360222E+02 -0.30499361714E+02  0.69197432269E+00  0.39346294608E+02  0.51100000000E-03 0. -1.
         12    1    3    3    0    0  0.21313144922E+02  0.51262643108E+01 -0.14377207672E+01  0.21968062574E+02  0.00000000000E+00 0. -1.
</event>
<event>
 7    1  0.2972263E-013  0.7246161E+02  0.7816164E-02  0.1226708E+00
        -11   -1    0    0    0    0  0.00000000000E+00  0.00000000000E+00  0.45593999997E+02  0.45594000000E+02  0.51100000000E-03 0. -1.
         11   -1    0    0    0    0 -0.00000000000E+00 -0.00000000000E+00 -0.45593999997E+02  0.45594000000E+02  0.51100000000E-03 0.  1.
    9900012    2    1    2    0    0  0.18480913051E+02 -0.79534749316E-01  0.30211409439E+01  0.72461607780E+02  0.70000048832E+02 0.  0.
         12    1    1    2    0    0 -0.18480913051E+02  0.79534749316E-01 -0.30211409439E+01  0.18726392220E+02  0.00000000000E+00 0. -1.
         11    1    3    3    0    0  0.17283954937E+02  0.11001655643E+02  0.21852511515E+02  0.29955029376E+02  0.51100000000E-03 0. -1.
        -11    1    3    3    0    0 -0.24628655344E+01  0.10741601326E+02  0.30008810100E+01  0.11421602024E+02  0.51100000000E-03 0.  1.
        -12    1    3    3    0    0  0.36598236477E+01 -0.21822791718E+02 -0.21832251581E+02  0.31084976381E+02  0.00000000000E+00 0.  1.
</event>
<event>
 7    1  0.2972263E-013  0.7246156E+02  0.7816164E-02  0.1226708E+00
        -11   -1    0    0    0    0  0.00000000000E+00  0.00000000000E+00  0.45593999997E+02  0.45594000000E+02  0.51100000000E-03 0. -1.
         11   -1    0    0    0    0 -0.00000000000E+00 -0.00000000000E+00 -0.45593999997E+02  0.45594000000E+02  0.51100000000E-03 0.  1.
    9900012    2    1    2    0    0  0.15474639857E+02  0.10398758929E+02  0.17551954107E+01  0.72461564758E+02  0.69999992788E+02 0.  0.
         12    1    1    2    0    0 -0.15474639857E+02 -0.10398758929E+02 -0.17551954107E+01  0.18726435242E+02  0.00000000000E+00 0. -1.
         11    1    3    3    0    0  0.28146813886E+02 -0.38396184795E+00  0.14522450642E+02  0.31674787001E+02  0.51100000000E-03 0. -1.
        -11    1    3    3    0    0  0.15959992420E+01  0.56852225902E+01  0.11067283038E+02  0.12544071252E+02  0.51100000000E-03 0.  1.
        -12    1    3    3    0    0 -0.14268173271E+02  0.50974981865E+01 -0.23834538269E+02  0.28242706505E+02  0.00000000000E+00 0.  1.
</event>
<event>
 7    1  0.2972263E-013  0.7246142E+02  0.7816164E-02  0.1226708E+00
        -11   -1    0    0    0    0  0.00000000000E+00  0.00000000000E+00  0.45593999997E+02  0.45594000000E+02  0.51100000000E-03 0.  1.
         11   -1    0    0    0    0 -0.00000000000E+00 -0.00000000000E+00 -0.45593999997E+02  0.45594000000E+02  0.51100000000E-03 0. -1.
    9900012    2    1    2    0    0 -0.86769107837E+01  0.16341502378E+02  0.28898724512E+01  0.72461418798E+02  0.69999802648E+02 0.  0.
         12    1    1    2    0    0  0.86769107837E+01 -0.16341502378E+02 -0.28898724512E+01  0.18726581202E+02  0.00000000000E+00 0. -1.
         11    1    3    3    0    0 -0.18849773161E+02  0.80835508560E+01 -0.23028885169E+02  0.30838081896E+02  0.51100000000E-03 0. -1.
        -11    1    3    3    0    0 -0.38573406799E+01 -0.88018728913E+01  0.12542021818E+02  0.15800454267E+02  0.51100000000E-03 0.  1.
        -12    1    3    3    0    0  0.14030203057E+02  0.17059824413E+02  0.13376735802E+02  0.25822882635E+02  0.00000000000E+00 0.  1.
</event>
<event>
 7    1  0.2972263E-013  0.7246152E+02  0.7816164E-02  0.1226708E+00
        -11   -1    0    0    0    0  0.00000000000E+00  0.00000000000E+00  0.45593999997E+02  0.45594000000E+02  0.51100000000E-03 0.  1.
         11   -1    0    0    0    0 -0.00000000000E+00 -0.00000000000E+00 -0.45593999997E+02  0.45594000000E+02  0.51100000000E-03 0. -1.
    9900012    2    1    2    0    0 -0.24551222147E+01 -0.18396589822E+02  0.24938015716E+01  0.72461516388E+02  0.69999929777E+02 0.  0.
         12    1    1    2    0    0  0.24551222147E+01  0.18396589822E+02 -0.24938015716E+01  0.18726483612E+02  0.00000000000E+00 0. -1.
         11    1    3    3    0    0  0.12888939772E+01  0.21515330120E+02 -0.36131510333E+01  0.21854645696E+02  0.51100000000E-03 0. -1.
        -11    1    3    3    0    0 -0.13539750689E+02 -0.12782009295E+02 -0.56503937037E+01  0.19458457278E+02  0.51100000000E-03 0.  1.
        -12    1    3    3    0    0  0.97957344972E+01 -0.27129910647E+02  0.11757346309E+02  0.31148413415E+02  0.00000000000E+00 0.  1.
</event>
<event>
 7    1  0.2972263E-013  0.7246152E+02  0.7816164E-02  0.1226708E+00
        -11   -1    0    0    0    0  0.00000000000E+00  0.00000000000E+00  0.45593999997E+02  0.45594000000E+02  0.51100000000E-03 0. -1.
         11   -1    0    0    0    0 -0.00000000000E+00 -0.00000000000E+00 -0.45593999997E+02  0.45594000000E+02  0.51100000000E-03 0.  1.
    9900012    2    1    2    0    0  0.85451560136E+01 -0.36889526280E+01 -0.16249703760E+02  0.72461523154E+02  0.69999938591E+02 0.  0.
         12    1    1    2    0    0 -0.85451560136E+01  0.36889526280E+01  0.16249703760E+02  0.18726476846E+02  0.00000000000E+00 0. -1.
         11    1    3    3    0    0  0.12369179504E+02 -0.69791173441E+01 -0.22593744001E+01  0.14380871095E+02  0.51100000000E-03 0. -1.
        -11    1    3    3    0    0  0.13783672674E+02  0.22136083727E+02 -0.18400150364E+02  0.31914908253E+02  0.51100000000E-03 0.  1.
         12    1    3    3    0    0 -0.17607696165E+02 -0.18845919011E+02  0.44098210040E+01  0.26165743805E+02  0.00000000000E+00 0. -1.
</event>
<event>
 7    1  0.2972263E-013  0.7246158E+02  0.7816164E-02  0.1226708E+00
        -11   -1    0    0    0    0  0.00000000000E+00  0.00000000000E+00  0.45593999997E+02  0.45594000000E+02  0.51100000000E-03 0. -1.
         11   -1    0    0    0    0 -0.00000000000E+00 -0.00000000000E+00 -0.45593999997E+02  0.45594000000E+02  0.51100000000E-03 0.  1.
    9900012    2    1    2    0    0 -0.92264272501E+01 -0.15588314471E+02 -0.47493625379E+01  0.72461576093E+02  0.70000007553E+02 0.  0.
         12    1    1    2    0    0  0.92264272501E+01  0.15588314471E+02  0.47493625379E+01  0.18726423907E+02  0.00000000000E+00 0. -1.
         11    1    3    3    0    0 -0.15669473874E+01 -0.25132805785E+02 -0.99554315391E+01  0.27078106805E+02  0.51100000000E-03 0. -1.
        -11    1    3    3    0    0 -0.20377003995E+02 -0.69651218660E+01 -0.51062947966E+01  0.22131639371E+02  0.51100000000E-03 0.  1.
        -12    1    3    3    0    0  0.12717524132E+02  0.16509613180E+02  0.10312363798E+02  0.23251829917E+02  0.00000000000E+00 0.  1.
</event>
<event>
 7    1  0.2972263E-013  0.7246160E+02  0.7816164E-02  0.1226708E+00
        -11   -1    0    0    0    0  0.00000000000E+00  0.00000000000E+00  0.45593999997E+02  0.45594000000E+02  0.51100000000E-03 0. -1.
         11   -1    0    0    0    0 -0.00000000000E+00 -0.00000000000E+00 -0.45593999997E+02  0.45594000000E+02  0.51100000000E-03 0.  1.
    9900012    2    1    2    0    0  0.11271239946E+02  0.46388021781E+01 -0.14216847017E+02  0.72461599527E+02  0.70000038081E+02 0.  0.
         12    1    1    2    0    0 -0.11271239946E+02 -0.46388021781E+01  0.14216847017E+02  0.18726400473E+02  0.00000000000E+00 0. -1.
         11    1    3    3    0    0  0.13506090261E+02 -0.11997594388E+02 -0.61629121000E+01  0.19087646032E+02  0.51100000000E-03 0. -1.
        -11    1    3    3    0    0 -0.16541939997E+02 -0.20310826502E+01 -0.20775600203E+02  0.26634313200E+02  0.51100000000E-03 0.  1.
         12    1    3    3    0    0  0.14307089681E+02  0.18667479217E+02  0.12721665285E+02  0.26739640295E+02  0.00000000000E+00 0. -1.
</event>
<event>
 7    1  0.2972263E-013  0.7246143E+02  0.7816164E-02  0.1226708E+00
        -11   -1    0    0    0    0  0.00000000000E+00  0.00000000000E+00  0.45593999997E+02  0.45594000000E+02  0.51100000000E-03 0.  1.
         11   -1    0    0    0    0 -0.00000000000E+00 -0.00000000000E+00 -0.45593999997E+02  0.45594000000E+02  0.51100000000E-03 0. -1.
    9900012    2    1    2    0    0 -0.13115223140E+02 -0.13203449858E+02  0.20842820878E+01  0.72461430693E+02  0.69999818143E+02 0.  0.
         12    1    1    2    0    0  0.13115223140E+02  0.13203449858E+02 -0.20842820878E+01  0.18726569307E+02  0.00000000000E+00 0. -1.
         11    1    3    3    0    0 -0.98038363037E+01  0.67805266997E+01  0.11479509712E+02  0.16549014837E+02  0.51100000000E-03 0. -1.
        -11    1    3    3    0    0 -0.52686555074E+01  0.17127256288E+02 -0.39957420068E+01  0.18359400678E+02  0.51100000000E-03 0.  1.
         12    1    3    3    0    0  0.19572686707E+01 -0.37111232846E+02 -0.53994856176E+01  0.37553015178E+02  0.00000000000E+00 0. -1.
</event>
<event>
 7    1  0.2972263E-013  0.7246156E+02  0.7816164E-02  0.1226708E+00
        -11   -1    0    0    0    0  0.00000000000E+00  0.00000000000E+00  0.45593999997E+02  0.45594000000E+02  0.51100000000E-03 0. -1.
         11   -1    0    0    0    0 -0.00000000000E+00 -0.00000000000E+00 -0.45593999997E+02  0.45594000000E+02  0.51100000000E-03 0.  1.
    9900012    2    1    2    0    0  0.24252847033E+00 -0.18446251809E+02 -0.32181843960E+01  0.72461555151E+02  0.69999980273E+02 0.  0.
         12    1    1    2    0    0 -0.24252847033E+00  0.18446251809E+02  0.32181843960E+01  0.18726444849E+02  0.00000000000E+00 0. -1.
         11    1    3    3    0    0 -0.13504944614E+02  0.12488181936E+02  0.68068619316E+01  0.19613046339E+02  0.51100000000E-03 0. -1.
        -11    1    3    3    0    0  0.57601070071E+01 -0.12712025946E+02  0.15256500563E+02  0.20676925450E+02  0.51100000000E-03 0.  1.
        -12    1    3    3    0    0  0.79873660774E+01 -0.18222407799E+02 -0.25281546890E+02  0.32171583362E+02  0.00000000000E+00 0.  1.
</event>
<event>
 7    1  0.2972263E-013  0.7246150E+02  0.7816164E-02  0.1226708E+00
        -11   -1    0    0    0    0  0.00000000000E+00  0.00000000000E+00  0.45593999997E+02  0.45594000000E+02  0.51100000000E-03 0.  1.
         11   -1    0    0    0    0 -0.00000000000E+00 -0.00000000000E+00 -0.45593999997E+02  0.45594000000E+02  0.51100000000E-03 0. -1.
    9900012    2    1    2    0    0 -0.16495013598E+02  0.12812743528E+01 -0.87723702988E+01  0.72461504914E+02  0.69999914830E+02 0.  0.
         12    1    1    2    0    0  0.16495013598E+02 -0.12812743528E+01  0.87723702988E+01  0.18726495086E+02  0.00000000000E+00 0. -1.
         11    1    3    3    0    0 -0.21535487187E+02  0.93049323372E+01  0.15291402977E+02  0.28003320865E+02  0.51100000000E-03 0. -1.
        -11    1    3    3    0    0  0.82976145477E+01 -0.15637413615E+02  0.13259195592E+01  0.17752103388E+02  0.51100000000E-03 0.  1.
         12    1    3    3    0    0 -0.32571409582E+01  0.76137556311E+01 -0.25389692835E+02  0.26706080661E+02  0.00000000000E+00 0. -1.
</event>
<event>
 7    1  0.2972263E-013  0.7246153E+02  0.7816164E-02  0.1226708E+00
        -11   -1    0    0    0    0  0.00000000000E+00  0.00000000000E+00  0.45593999997E+02  0.45594000000E+02  0.51100000000E-03 0.  1.
         11   -1    0    0    0    0 -0.00000000000E+00 -0.00000000000E+00 -0.45593999997E+02  0.45594000000E+02  0.51100000000E-03 0. -1.
    9900012    2    1    2    0    0 -0.18115930845E+02 -0.46120316726E+01  0.11058278439E+01  0.72461530986E+02  0.69999948793E+02 0.  0.
         12    1    1    2    0    0  0.18115930845E+02  0.46120316726E+01 -0.11058278439E+01  0.18726469014E+02  0.00000000000E+00 0. -1.
         11    1    3    3    0    0 -0.18367036581E+01 -0.13433701141E+02 -0.23716863281E+02  0.27318993591E+02  0.51100000000E-03 0. -1.
        -11    1    3    3    0    0 -0.16358846700E+02 -0.75317965113E+01  0.36265666130E+01  0.18370950158E+02  0.51100000000E-03 0.  1.
        -12    1    3    3    0    0  0.79619513665E-01  0.16353465980E+02  0.21196124512E+02  0.26771587236E+02  0.00000000000E+00 0.  1.
</event>
<event>
 7    1  0.2972263E-013  0.7246155E+02  0.7816164E-02  0.1226708E+00
        -11   -1    0    0    0    0  0.00000000000E+00  0.00000000000E+00  0.45593999997E+02  0.45594000000E+02  0.51100000000E-03 0. -1.
         11   -1    0    0    0    0 -0.00000000000E+00 -0.00000000000E+00 -0.45593999997E+02  0.45594000000E+02  0.51100000000E-03 0.  1.
    9900012    2    1    2    0    0  0.98725408663E+01  0.39590553080E-01 -0.15912619279E+02  0.72461545908E+02  0.69999968232E+02 0.  0.
         12    1    1    2    0    0 -0.98725408663E+01 -0.39590553080E-01  0.15912619279E+02  0.18726454092E+02  0.00000000000E+00 0. -1.
         11    1    3    3    0    0 -0.84388785107E+01 -0.38105590629E+01 -0.38076455620E+01  0.10011653004E+02  0.51100000000E-03 0. -1.
        -11    1    3    3    0    0  0.19978600353E+02 -0.15588405871E+02 -0.27649058101E+02  0.37504843471E+02  0.51100000000E-03 0.  1.
         12    1    3    3    0    0 -0.16671809760E+01  0.19438555487E+02  0.15544084384E+02  0.24945049432E+02  0.00000000000E+00 0. -1.
</event>
<event>
 7    1  0.2972263E-013  0.7246159E+02  0.7816164E-02  0.1226708E+00
        -11   -1    0    0    0    0  0.00000000000E+00  0.00000000000E+00  0.45593999997E+02  0.45594000000E+02  0.51100000000E-03 0.  1.
         11   -1    0    0    0    0 -0.00000000000E+00 -0.00000000000E+00 -0.45593999997E+02  0.45594000000E+02  0.51100000000E-03 0. -1.
    9900012    2    1    2    0    0 -0.10965390509E+02 -0.63901194741E+01  0.13769713814E+02  0.72461589921E+02  0.70000025567E+02 0.  0.
         12    1    1    2    0    0  0.10965390509E+02  0.63901194741E+01 -0.13769713814E+02  0.18726410079E+02  0.00000000000E+00 0. -1.
         11    1    3    3    0    0  0.16552750735E+02 -0.75105236674E+01 -0.38784777345E+01  0.18586126882E+02  0.51100000000E-03 0. -1.
        -11    1    3    3    0    0 -0.69283494010E+01  0.16113883228E+02 -0.65688740248E+01  0.18729905614E+02  0.51100000000E-03 0.  1.
        -12    1    3    3    0    0 -0.20589791844E+02 -0.14993479035E+02  0.24217065574E+02  0.35145557425E+02  0.00000000000E+00 0.  1.
</event>
<event>
 7    1  0.2972263E-013  0.7246157E+02  0.7816164E-02  0.1226708E+00
        -11   -1    0    0    0    0  0.00000000000E+00  0.00000000000E+00  0.45593999997E+02  0.45594000000E+02  0.51100000000E-03 0.  1.
         11   -1    0    0    0    0 -0.00000000000E+00 -0.00000000000E+00 -0.45593999997E+02  0.45594000000E+02  0.51100000000E-03 0. -1.
    9900012    2    1    2    0    0 -0.45252537004E+01 -0.65778562293E+01  0.16939093838E+02  0.72461574455E+02  0.70000005420E+02 0.  0.
         12    1    1    2    0    0  0.45252537004E+01  0.65778562293E+01 -0.16939093838E+02  0.18726425545E+02  0.00000000000E+00 0. -1.
         11    1    3    3    0    0 -0.82017302283E+01 -0.15706718685E+02  0.13588586981E+02  0.22329780273E+02  0.51100000000E-03 0. -1.
        -11    1    3    3    0    0 -0.86777926642E+01  0.19821086977E+02  0.18031846725E+02  0.28166062399E+02  0.51100000000E-03 0.  1.
         12    1    3    3    0    0  0.12354269192E+02 -0.10692224521E+02 -0.14681339868E+02  0.21965731784E+02  0.00000000000E+00 0. -1.
</event>
<event>
 7    1  0.2972263E-013  0.7246150E+02  0.7816164E-02  0.1226708E+00
        -11   -1    0    0    0    0  0.00000000000E+00  0.00000000000E+00  0.45593999997E+02  0.45594000000E+02  0.51100000000E-03 0. -1.
         11   -1    0    0    0    0 -0.00000000000E+00 -0.00000000000E+00 -0.45593999997E+02  0.45594000000E+02  0.51100000000E-03 0.  1.
    9900012    2    1    2    0    0 -0.40603262423E+01  0.11796231210E+02 -0.13965837282E+02  0.72461496564E+02  0.69999903952E+02 0.  0.
         12    1    1    2    0    0  0.40603262423E+01 -0.11796231210E+02  0.13965837282E+02  0.18726503436E+02  0.00000000000E+00 0. -1.
         11    1    3    3    0    0 -0.46836781118E+01  0.73421759147E+01 -0.37603824579E+01  0.94860352259E+01  0.51100000000E-03 0. -1.
        -11    1    3    3    0    0  0.67187041871E+00 -0.19082787493E+02 -0.27703740994E+02  0.33646715348E+02  0.51100000000E-03 0.  1.
         12    1    3    3    0    0 -0.48518549227E-01  0.23536842788E+02  0.17498286169E+02  0.29328745990E+02  0.00000000000E+00 0. -1.
</event>
<event>
 7    1  0.2972263E-013  0.7246158E+02  0.7816164E-02  0.1226708E+00
        -11   -1    0    0    0    0  0.00000000000E+00  0.00000000000E+00  0.45593999997E+02  0.45594000000E+02  0.51100000000E-03 0. -1.
         11   -1    0    0    0    0 -0.00000000000E+00 -0.00000000000E+00 -0.45593999997E+02  0.45594000000E+02  0.51100000000E-03 0.  1.
    9900012    2    1    2    0    0 -0.85533294496E+01 -0.93155112403E+01 -0.13810884194E+02  0.72461582389E+02  0.70000015755E+02 0.  0.
         12    1    1    2    0    0  0.85533294496E+01  0.93155112403E+01  0.13810884194E+02  0.18726417611E+02  0.00000000000E+00 0. -1.
         11    1    3    3    0    0  0.22273263134E+01 -0.84941119973E+01  0.71233270243E+01  0.11307197234E+02  0.51100000000E-03 0. -1.
        -11    1    3    3    0    0  0.21939615760E+02 -0.12951833733E+01  0.59113410452E+00  0.21985760834E+02  0.51100000000E-03 0.  1.
        -12    1    3    3    0    0 -0.32720271523E+02  0.47378413030E+00 -0.21525345322E+02  0.39168624321E+02  0.00000000000E+00 0.  1.
</event>
<event>
 7    1  0.2972263E-013  0.7246158E+02  0.7816164E-02  0.1226708E+00
        -11   -1    0    0    0    0  0.00000000000E+00  0.00000000000E+00  0.45593999997E+02  0.45594000000E+02  0.51100000000E-03 0. -1.
         11   -1    0    0    0    0 -0.00000000000E+00 -0.00000000000E+00 -0.45593999997E+02  0.45594000000E+02  0.51100000000E-03 0.  1.
    9900012    2    1    2    0    0  0.10561608050E+02  0.16822219003E+01 -0.15372092102E+02  0.72461584146E+02  0.70000018045E+02 0.  0.
         12    1    1    2    0    0 -0.10561608050E+02 -0.16822219003E+01  0.15372092102E+02  0.18726415854E+02  0.00000000000E+00 0. -1.
         11    1    3    3    0    0  0.12907908936E+02  0.59641147328E+01 -0.25624801506E+02  0.29305549477E+02  0.51100000000E-03 0. -1.
        -11    1    3    3    0    0  0.11964352495E+02 -0.25466774118E+01 -0.11678014569E+02  0.16911750974E+02  0.51100000000E-03 0.  1.
         12    1    3    3    0    0 -0.14310653381E+02 -0.17352154208E+01  0.21930723973E+02  0.26244283696E+02  0.00000000000E+00 0. -1.
</event>
<event>
 7    1  0.2972263E-013  0.7246151E+02  0.7816164E-02  0.1226708E+00
        -11   -1    0    0    0    0  0.00000000000E+00  0.00000000000E+00  0.45593999997E+02  0.45594000000E+02  0.51100000000E-03 0.  1.
         11   -1    0    0    0    0 -0.00000000000E+00 -0.00000000000E+00 -0.45593999997E+02  0.45594000000E+02  0.51100000000E-03 0. -1.
    9900012    2    1    2    0    0  0.23193209548E+01  0.18542667905E+02 -0.12130999265E+01  0.72461510897E+02  0.69999922623E+02 0.  0.
         12    1    1    2    0    0 -0.23193209548E+01 -0.18542667905E+02  0.12130999265E+01  0.18726489103E+02  0.00000000000E+00 0. -1.
         11    1    3    3    0    0  0.66680626451E+00  0.16907893170E+02 -0.12610047162E+02  0.21102956469E+02  0.51100000000E-03 0. -1.
        -11    1    3    3    0    0  0.18092877508E+02  0.76320830250E+01 -0.11332887007E+02  0.22672345181E+02  0.51100000000E-03 0.  1.
        -12    1    3    3    0    0 -0.16440362817E+02 -0.59973082901E+01  0.22729834243E+02  0.28686209247E+02  0.00000000000E+00 0.  1.
</event>
<event>
 7    1  0.2972263E-013  0.7246147E+02  0.7816164E-02  0.1226708E+00
        -11   -1    0    0    0    0  0.00000000000E+00  0.00000000000E+00  0.45593999997E+02  0.45594000000E+02  0.51100000000E-03 0. -1.
         11   -1    0    0    0    0 -0.00000000000E+00 -0.00000000000E+00 -0.45593999997E+02  0.45594000000E+02  0.51100000000E-03 0.  1.
    9900012    2    1    2    0    0 -0.79612576747E+01 -0.11828022587E+02  0.12140802794E+02  0.72461472437E+02  0.69999872522E+02 0.  0.
         12    1    1    2    0    0  0.79612576747E+01  0.11828022587E+02 -0.12140802794E+02  0.18726527563E+02  0.00000000000E+00 0. -1.
         11    1    3    3    0    0 -0.16019841120E+02 -0.30836290461E+02  0.55521030313E+01  0.35190026531E+02  0.51100000000E-03 0. -1.
        -11    1    3    3    0    0  0.10002177354E+01 -0.80949565024E+01  0.41681196831E+01  0.91598023039E+01  0.51100000000E-03 0.  1.
        -12    1    3    3    0    0  0.70583657096E+01  0.27103224376E+02  0.24205800797E+01  0.28111643602E+02  0.00000000000E+00 0.  1.
</event>
<event>
 7    1  0.2972263E-013  0.7246158E+02  0.7816164E-02  0.1226708E+00
        -11   -1    0    0    0    0  0.00000000000E+00  0.00000000000E+00  0.45593999997E+02  0.45594000000E+02  0.51100000000E-03 0. -1.
         11   -1    0    0    0    0 -0.00000000000E+00 -0.00000000000E+00 -0.45593999997E+02  0.45594000000E+02  0.51100000000E-03 0.  1.
    9900012    2    1    2    0    0 -0.36903809209E+01  0.12639852887E+02  0.13315178613E+02  0.72461580859E+02  0.70000013762E+02 0.  0.
         12    1    1    2    0    0  0.36903809209E+01 -0.12639852887E+02 -0.13315178613E+02  0.18726419141E+02  0.00000000000E+00 0. -1.
         11    1    3    3    0    0  0.58557755186E+01 -0.93529650783E+01  0.54880042444E+01  0.12324214114E+02  0.51100000000E-03 0. -1.
        -11    1    3    3    0    0 -0.84460680320E+00 -0.16457421384E+02 -0.71530308801E+01  0.17964574314E+02  0.51100000000E-03 0.  1.
        -12    1    3    3    0    0 -0.87015496363E+01  0.38450239349E+02  0.14980205249E+02  0.42172792431E+02  0.00000000000E+00 0.  1.
</event>
<event>
 7    1  0.2972263E-013  0.7246155E+02  0.7816164E-02  0.1226708E+00
        -11   -1    0    0    0    0  0.00000000000E+00  0.00000000000E+00  0.45593999997E+02  0.45594000000E+02  0.51100000000E-03 0. -1.
         11   -1    0    0    0    0 -0.00000000000E+00 -0.00000000000E+00 -0.45593999997E+02  0.45594000000E+02  0.51100000000E-03 0.  1.
    9900012    2    1    2    0    0  0.18114764528E+02  0.88534250839E+00 -0.46638524999E+01  0.72461546908E+02  0.69999969535E+02 0.  0.
         12    1    1    2    0    0 -0.18114764528E+02 -0.88534250839E+00  0.46638524999E+01  0.18726453092E+02  0.00000000000E+00 0. -1.
         11    1    3    3    0    0  0.93463017830E+01 -0.92697571868E+01 -0.50537027381E+01  0.14100413715E+02  0.51100000000E-03 0. -1.
        -11    1    3    3    0    0 -0.36209857462E+01  0.11497763093E+02 -0.26285836469E+02  0.28918079000E+02  0.51100000000E-03 0.  1.
         12    1    3    3    0    0  0.12389448491E+02 -0.13426633981E+01  0.26675686707E+02  0.29443054193E+02  0.00000000000E+00 0. -1.
</event>
<event>
 7    1  0.2972263E-013  0.7246162E+02  0.7816164E-02  0.1226708E+00
        -11   -1    0    0    0    0  0.00000000000E+00  0.00000000000E+00  0.45593999997E+02  0.45594000000E+02  0.51100000000E-03 0. -1.
         11   -1    0    0    0    0 -0.00000000000E+00 -0.00000000000E+00 -0.45593999997E+02  0.45594000000E+02  0.51100000000E-03 0.  1.
    9900012    2    1    2    0    0 -0.30230204172E+01 -0.16475857567E+02 -0.83716739768E+01  0.72461615934E+02  0.70000059454E+02 0.  0.
         12    1    1    2    0    0  0.30230204172E+01  0.16475857567E+02  0.83716739768E+01  0.18726384066E+02  0.00000000000E+00 0. -1.
         11    1    3    3    0    0  0.10499525868E+02  0.90055533920E+00  0.28424731555E+01  0.10914700971E+02  0.51100000000E-03 0. -1.
        -11    1    3    3    0    0  0.12935416197E+02  0.79184091813E+01 -0.18810287657E+02  0.24163052749E+02  0.51100000000E-03 0.  1.
         12    1    3    3    0    0 -0.26457962483E+02 -0.25294822087E+02  0.75961405249E+01  0.37383862214E+02  0.00000000000E+00 0. -1.
</event>
<event>
 7    1  0.2972263E-013  0.7246155E+02  0.7816164E-02  0.1226708E+00
        -11   -1    0    0    0    0  0.00000000000E+00  0.00000000000E+00  0.45593999997E+02  0.45594000000E+02  0.51100000000E-03 0.  1.
         11   -1    0    0    0    0 -0.00000000000E+00 -0.00000000000E+00 -0.45593999997E+02  0.45594000000E+02  0.51100000000E-03 0. -1.
    9900012    2    1    2    0    0 -0.14543354750E+02  0.10590334724E+02 -0.51976535721E+01  0.72461549199E+02  0.69999972520E+02 0.  0.
         12    1    1    2    0    0  0.14543354750E+02 -0.10590334724E+02  0.51976535721E+01  0.18726450801E+02  0.00000000000E+00 0. -1.
         11    1    3    3    0    0 -0.13436211812E+02 -0.28491016931E+01 -0.19567532416E+02  0.23906850345E+02  0.51100000000E-03 0. -1.
        -11    1    3    3    0    0  0.14348332105E+02 -0.92023771316E+01 -0.10925292965E+01  0.17080749386E+02  0.51100000000E-03 0.  1.
        -12    1    3    3    0    0 -0.15455475044E+02  0.22641813548E+02  0.15462408140E+02  0.31473949468E+02  0.00000000000E+00 0.  1.
</event>
<event>
 7    1  0.2972263E-013  0.7246159E+02  0.7816164E-02  0.1226708E+00
        -11   -1    0    0    0    0  0.00000000000E+00  0.00000000000E+00  0.45593999997E+02  0.45594000000E+02  0.51100000000E-03 0.  1.
         11   -1    0    0    0    0 -0.00000000000E+00 -0.00000000000E+00 -0.45593999997E+02  0.45594000000E+02  0.51100000000E-03 0. -1.
    9900012    2    1    2    0    0 -0.74101100524E+01 -0.54132001527E+00  0.17189407398E+02  0.72461588570E+02  0.70000023808E+02 0.  0.
         12    1    1    2    0    0  0.74101100524E+01  0.54132001527E+00 -0.17189407398E+02  0.18726411430E+02  0.00000000000E+00 0. -1.
         11    1    3    3    0    0  0.59143187324E+01 -0.11413931213E+02 -0.19648878086E+02  0.23480532406E+02  0.51100000000E-03 0. -1.
        -11    1    3    3    0    0  0.42298749841E+01  0.12213330598E+02  0.23765316913E+02  0.27052681474E+02  0.51100000000E-03 0.  1.
        -12    1    3    3    0    0 -0.17554303769E+02 -0.13407194003E+01  0.13072968570E+02  0.21928374690E+02  0.00000000000E+00 0.  1.
</event>
<event>
 7    1  0.2972263E-013  0.7246154E+02  0.7816164E-02  0.1226708E+00
        -11   -1    0    0    0    0  0.00000000000E+00  0.00000000000E+00  0.45593999997E+02  0.45594000000E+02  0.51100000000E-03 0.  1.
         11   -1    0    0    0    0 -0.00000000000E+00 -0.00000000000E+00 -0.45593999997E+02  0.45594000000E+02  0.51100000000E-03 0. -1.
    9900012    2    1    2    0    0  0.18705425418E+02  0.59034298579E-01 -0.88536518907E+00  0.72461540201E+02  0.69999960797E+02 0.  0.
         12    1    1    2    0    0 -0.18705425418E+02 -0.59034298579E-01  0.88536518907E+00  0.18726459799E+02  0.00000000000E+00 0. -1.
         11    1    3    3    0    0 -0.40761534657E+01  0.13461812232E+02 -0.13194851151E+02  0.19285733400E+02  0.51100000000E-03 0. -1.
        -11    1    3    3    0    0 -0.21571717996E+01 -0.35627072168E+00  0.22974065620E+02  0.23077868410E+02  0.51100000000E-03 0.  1.
         12    1    3    3    0    0  0.24938750683E+02 -0.13046507212E+02 -0.10664579658E+02  0.30097938390E+02  0.00000000000E+00 0. -1.
</event>
<event>
 7    1  0.2972263E-013  0.7246158E+02  0.7816164E-02  0.1226708E+00
        -11   -1    0    0    0    0  0.00000000000E+00  0.00000000000E+00  0.45593999997E+02  0.45594000000E+02  0.51100000000E-03 0. -1.
         11   -1    0    0    0    0 -0.00000000000E+00 -0.00000000000E+00 -0.45593999997E+02  0.45594000000E+02  0.51100000000E-03 0.  1.
    9900012    2    1    2    0    0  0.87636536381E+01 -0.48571269085E+01 -0.15820412671E+02  0.72461581123E+02  0.70000014106E+02 0.  0.
         12    1    1    2    0    0 -0.87636536381E+01  0.48571269085E+01  0.15820412671E+02  0.18726418877E+02  0.00000000000E+00 0. -1.
         11    1    3    3    0    0 -0.48342964479E+01 -0.25501818681E+02 -0.22742297848E+02  0.34509785422E+02  0.51100000000E-03 0. -1.
        -11    1    3    3    0    0 -0.28700940209E+01  0.14463304757E+01 -0.79742852854E+01  0.85975890578E+01  0.51100000000E-03 0.  1.
        -12    1    3    3    0    0  0.16468044107E+02  0.19198361297E+02  0.14896170462E+02  0.29354206643E+02  0.00000000000E+00 0.  1.
</event>
<event>
 7    1  0.2972263E-013  0.7246108E+02  0.7816164E-02  0.1226709E+00
        -11   -1    0    0    0    0  0.00000000000E+00  0.00000000000E+00  0.45593999997E+02  0.45594000000E+02  0.51100000000E-03 0.  1.
         11   -1    0    0    0    0 -0.00000000000E+00 -0.00000000000E+00 -0.45593999997E+02  0.45594000000E+02  0.51100000000E-03 0. -1.
    9900012    2    1    2    0    0 -0.80390777197E+01 -0.13487030932E+02 -0.10206403477E+02  0.72461082318E+02  0.69999364317E+02 0.  0.
         12    1    1    2    0    0  0.80390777197E+01  0.13487030932E+02  0.10206403477E+02  0.18726917682E+02  0.00000000000E+00 0. -1.
         11    1    3    3    0    0  0.72019128486E+00  0.37457693185E+01 -0.11964172709E+02  0.12557503420E+02  0.51100000000E-03 0. -1.
        -11    1    3    3    0    0 -0.43854139709E+01  0.17620398647E+02  0.13760519317E+02  0.22782936516E+02  0.51100000000E-03 0.  1.
         12    1    3    3    0    0 -0.43738550337E+01 -0.34853198897E+02 -0.12002750085E+02  0.37120642381E+02  0.00000000000E+00 0. -1.
</event>
<event>
 7    1  0.2972263E-013  0.7246158E+02  0.7816164E-02  0.1226708E+00
        -11   -1    0    0    0    0  0.00000000000E+00  0.00000000000E+00  0.45593999997E+02  0.45594000000E+02  0.51100000000E-03 0.  1.
         11   -1    0    0    0    0 -0.00000000000E+00 -0.00000000000E+00 -0.45593999997E+02  0.45594000000E+02  0.51100000000E-03 0. -1.
    9900012    2    1    2    0    0  0.87414127971E+01 -0.38061359702E+01  0.16117691782E+02  0.72461575966E+02  0.70000007389E+02 0.  0.
         12    1    1    2    0    0 -0.87414127971E+01  0.38061359702E+01 -0.16117691782E+02  0.18726424034E+02  0.00000000000E+00 0. -1.
         11    1    3    3    0    0 -0.11909776158E+01  0.23908509261E+02  0.17321266768E+00  0.23938781207E+02  0.51100000000E-03 0. -1.
        -11    1    3    3    0    0 -0.55185017307E+01  0.19976093224E+01  0.13763229341E+02  0.14962312205E+02  0.51100000000E-03 0.  1.
        -12    1    3    3    0    0  0.15450892144E+02 -0.29712254554E+02  0.21812497733E+01  0.33560482554E+02  0.00000000000E+00 0.  1.
</event>
<event>
 7    1  0.2972263E-013  0.7246098E+02  0.7816164E-02  0.1226710E+00
        -11   -1    0    0    0    0  0.00000000000E+00  0.00000000000E+00  0.45593999997E+02  0.45594000000E+02  0.51100000000E-03 0.  1.
         11   -1    0    0    0    0 -0.00000000000E+00 -0.00000000000E+00 -0.45593999997E+02  0.45594000000E+02  0.51100000000E-03 0. -1.
    9900012    2    1    2    0    0  0.15454462713E+02  0.10316677682E+02  0.23296341366E+01  0.72460975374E+02  0.69999225002E+02 0.  0.
         12    1    1    2    0    0 -0.15454462713E+02 -0.10316677682E+02 -0.23296341366E+01  0.18727024626E+02  0.00000000000E+00 0. -1.
         11    1    3    3    0    0  0.14448789591E+01  0.79538771989E+01 -0.13611942587E+02  0.15831513477E+02  0.51100000000E-03 0.  1.
        -11    1    3    3    0    0  0.27473754858E+02  0.82082863375E+01 -0.68869202954E+01  0.29489198734E+02  0.51100000000E-03 0. -1.
        -12    1    3    3    0    0 -0.13464171104E+02 -0.58454858545E+01  0.22828497019E+02  0.27140263163E+02  0.00000000000E+00 0.  1.
</event>
<event>
 7    1  0.2972263E-013  0.7246146E+02  0.7816164E-02  0.1226708E+00
        -11   -1    0    0    0    0  0.00000000000E+00  0.00000000000E+00  0.45593999997E+02  0.45594000000E+02  0.51100000000E-03 0.  1.
         11   -1    0    0    0    0 -0.00000000000E+00 -0.00000000000E+00 -0.45593999997E+02  0.45594000000E+02  0.51100000000E-03 0. -1.
    9900012    2    1    2    0    0  0.17009580651E+02  0.47946443854E+01  0.61942465607E+01  0.72461464304E+02  0.69999861928E+02 0.  0.
         12    1    1    2    0    0 -0.17009580651E+02 -0.47946443854E+01 -0.61942465607E+01  0.18726535696E+02  0.00000000000E+00 0. -1.
         11    1    3    3    0    0  0.18026616062E+02 -0.72733030340E+01 -0.12774278097E+02  0.23260309646E+02  0.51100000000E-03 0. -1.
        -11    1    3    3    0    0  0.21131087482E+02  0.59652790127E+01  0.12793538999E+02  0.25412242173E+02  0.51100000000E-03 0.  1.
        -12    1    3    3    0    0 -0.22148122893E+02  0.61026684067E+01  0.61749856584E+01  0.23788912485E+02  0.00000000000E+00 0.  1.
</event>
<event>
 7    1  0.2972263E-013  0.7246158E+02  0.7816164E-02  0.1226708E+00
        -11   -1    0    0    0    0  0.00000000000E+00  0.00000000000E+00  0.45593999997E+02  0.45594000000E+02  0.51100000000E-03 0.  1.
         11   -1    0    0    0    0 -0.00000000000E+00 -0.00000000000E+00 -0.45593999997E+02  0.45594000000E+02  0.51100000000E-03 0. -1.
    9900012    2    1    2    0    0  0.47612017524E+01  0.16153460237E+02  0.81899528834E+01  0.72461584219E+02  0.70000018140E+02 0.  0.
         12    1    1    2    0    0 -0.47612017524E+01 -0.16153460237E+02 -0.81899528834E+01  0.18726415781E+02  0.00000000000E+00 0. -1.
         11    1    3    3    0    0  0.20016794163E+02  0.88230646293E+01 -0.21540516864E+02  0.30700364576E+02  0.51100000000E-03 0. -1.
        -11    1    3    3    0    0  0.60979790797E+01  0.32158413607E+01  0.36388541020E+01  0.77953988962E+01  0.51100000000E-03 0.  1.
        -12    1    3    3    0    0 -0.21353571490E+02  0.41145542470E+01  0.26091615646E+02  0.33965820748E+02  0.00000000000E+00 0.  1.
</event>
<event>
 7    1  0.2972263E-013  0.7246157E+02  0.7816164E-02  0.1226708E+00
        -11   -1    0    0    0    0  0.00000000000E+00  0.00000000000E+00  0.45593999997E+02  0.45594000000E+02  0.51100000000E-03 0.  1.
         11   -1    0    0    0    0 -0.00000000000E+00 -0.00000000000E+00 -0.45593999997E+02  0.45594000000E+02  0.51100000000E-03 0. -1.
    9900012    2    1    2    0    0 -0.16961657577E+02  0.53382865123E+01  0.58723147068E+01  0.72461569195E+02  0.69999998568E+02 0.  0.
         12    1    1    2    0    0  0.16961657577E+02 -0.53382865123E+01 -0.58723147068E+01  0.18726430805E+02  0.00000000000E+00 0. -1.
         11    1    3    3    0    0 -0.15248373444E+02 -0.21427390802E+02 -0.91340029176E+01  0.27840186401E+02  0.51100000000E-03 0. -1.
        -11    1    3    3    0    0  0.11984706710E+02  0.78672171983E+00  0.91093165590E+00  0.12044995755E+02  0.51100000000E-03 0.  1.
        -12    1    3    3    0    0 -0.13697990843E+02  0.25978955595E+02  0.14095385969E+02  0.32576387039E+02  0.00000000000E+00 0.  1.
</event>
<event>
 7    1  0.2972263E-013  0.7246147E+02  0.7816164E-02  0.1226708E+00
        -11   -1    0    0    0    0  0.00000000000E+00  0.00000000000E+00  0.45593999997E+02  0.45594000000E+02  0.51100000000E-03 0. -1.
         11   -1    0    0    0    0 -0.00000000000E+00 -0.00000000000E+00 -0.45593999997E+02  0.45594000000E+02  0.51100000000E-03 0.  1.
    9900012    2    1    2    0    0 -0.15355020277E+02  0.91498162515E+01 -0.55845457493E+01  0.72461469719E+02  0.69999868982E+02 0.  0.
         12    1    1    2    0    0  0.15355020277E+02 -0.91498162515E+01  0.55845457493E+01  0.18726530281E+02  0.00000000000E+00 0. -1.
         11    1    3    3    0    0  0.49300833530E+01 -0.91693067063E+01  0.11089362721E+02  0.15210387016E+02  0.51100000000E-03 0. -1.
        -11    1    3    3    0    0 -0.17146259159E+02 -0.13393804630E+02 -0.11103571996E+01  0.21785800399E+02  0.51100000000E-03 0.  1.
        -12    1    3    3    0    0 -0.31388444706E+01  0.31712927588E+02 -0.15563551271E+02  0.35465282305E+02  0.00000000000E+00 0.  1.
</event>
<event>
 7    1  0.2972263E-013  0.7246159E+02  0.7816164E-02  0.1226708E+00
        -11   -1    0    0    0    0  0.00000000000E+00  0.00000000000E+00  0.45593999997E+02  0.45594000000E+02  0.51100000000E-03 0.  1.
         11   -1    0    0    0    0 -0.00000000000E+00 -0.00000000000E+00 -0.45593999997E+02  0.45594000000E+02  0.51100000000E-03 0. -1.
    9900012    2    1    2    0    0 -0.99952761663E+01 -0.13254834379E+02 -0.86649941335E+01  0.72461593420E+02  0.70000030126E+02 0.  0.
         12    1    1    2    0    0  0.99952761663E+01  0.13254834379E+02  0.86649941335E+01  0.18726406580E+02  0.00000000000E+00 0. -1.
         11    1    3    3    0    0  0.52156569573E+01  0.14014856336E+01 -0.13983372936E+01  0.55787621320E+01  0.51100000000E-03 0. -1.
        -11    1    3    3    0    0  0.15514251509E+02 -0.28275267990E+02  0.10203112412E+01  0.32267999862E+02  0.51100000000E-03 0.  1.
        -12    1    3    3    0    0 -0.30725184633E+02  0.13618947978E+02 -0.82869680812E+01  0.34614831427E+02  0.00000000000E+00 0.  1.
</event>
<event>
 7    1  0.2972263E-013  0.7246154E+02  0.7816164E-02  0.1226708E+00
        -11   -1    0    0    0    0  0.00000000000E+00  0.00000000000E+00  0.45593999997E+02  0.45594000000E+02  0.51100000000E-03 0.  1.
         11   -1    0    0    0    0 -0.00000000000E+00 -0.00000000000E+00 -0.45593999997E+02  0.45594000000E+02  0.51100000000E-03 0. -1.
    9900012    2    1    2    0    0  0.14198266999E+02  0.15805369278E+01  0.12107490526E+02  0.72461542524E+02  0.69999963824E+02 0.  0.
         12    1    1    2    0    0 -0.14198266999E+02 -0.15805369278E+01 -0.12107490526E+02  0.18726457476E+02  0.00000000000E+00 0. -1.
         11    1    3    3    0    0  0.91398022231E+01  0.13271759312E+02 -0.79638896401E+01  0.17974958091E+02  0.51100000000E-03 0. -1.
        -11    1    3    3    0    0  0.26819754316E+02 -0.64153388159E+01  0.15496787032E+02  0.31632360049E+02  0.51100000000E-03 0.  1.
         12    1    3    3    0    0 -0.21761289540E+02 -0.52758835680E+01  0.45745931341E+01  0.22854224384E+02  0.00000000000E+00 0. -1.
</event>
<event>
 7    1  0.2972263E-013  0.7246149E+02  0.7816164E-02  0.1226708E+00
        -11   -1    0    0    0    0  0.00000000000E+00  0.00000000000E+00  0.45593999997E+02  0.45594000000E+02  0.51100000000E-03 0. -1.
         11   -1    0    0    0    0 -0.00000000000E+00 -0.00000000000E+00 -0.45593999997E+02  0.45594000000E+02  0.51100000000E-03 0.  1.
    9900012    2    1    2    0    0 -0.10210254708E+02  0.14772908298E+02  0.53098078552E+01  0.72461489907E+02  0.69999895280E+02 0.  0.
         12    1    1    2    0    0  0.10210254708E+02 -0.14772908298E+02 -0.53098078552E+01  0.18726510093E+02  0.00000000000E+00 0. -1.
         11    1    3    3    0    0 -0.31019988273E+01 -0.14819725265E+01 -0.15706870483E+02  0.16078694596E+02  0.51100000000E-03 0. -1.
        -11    1    3    3    0    0  0.13301325450E+02  0.20330159356E+02 -0.31400625855E+01  0.24496951473E+02  0.51100000000E-03 0.  1.
         12    1    3    3    0    0 -0.20409581331E+02 -0.40752785309E+01  0.24156740924E+02  0.31885843838E+02  0.00000000000E+00 0. -1.
</event>
<event>
 7    1  0.2972263E-013  0.7246153E+02  0.7816164E-02  0.1226708E+00
        -11   -1    0    0    0    0  0.00000000000E+00  0.00000000000E+00  0.45593999997E+02  0.45594000000E+02  0.51100000000E-03 0. -1.
         11   -1    0    0    0    0 -0.00000000000E+00 -0.00000000000E+00 -0.45593999997E+02  0.45594000000E+02  0.51100000000E-03 0.  1.
    9900012    2    1    2    0    0  0.99379353143E+01 -0.14376565594E+02  0.67255025368E+01  0.72461532609E+02  0.69999950908E+02 0.  0.
         12    1    1    2    0    0 -0.99379353143E+01  0.14376565594E+02 -0.67255025368E+01  0.18726467391E+02  0.00000000000E+00 0. -1.
         11    1    3    3    0    0  0.35108332671E+01 -0.54255165002E+01 -0.66621209568E+01  0.92814888583E+01  0.51100000000E-03 0.  1.
        -11    1    3    3    0    0  0.13525792947E+02 -0.30399986643E+02 -0.55089845042E+01  0.33726179346E+02  0.51100000000E-03 0. -1.
         12    1    3    3    0    0 -0.70986908999E+01  0.21448937550E+02  0.18896607998E+02  0.29453864404E+02  0.00000000000E+00 0. -1.
</event>
<event>
 7    1  0.2972263E-013  0.7246157E+02  0.7816164E-02  0.1226708E+00
        -11   -1    0    0    0    0  0.00000000000E+00  0.00000000000E+00  0.45593999997E+02  0.45594000000E+02  0.51100000000E-03 0. -1.
         11   -1    0    0    0    0 -0.00000000000E+00 -0.00000000000E+00 -0.45593999997E+02  0.45594000000E+02  0.51100000000E-03 0.  1.
    9900012    2    1    2    0    0 -0.10992011073E+02 -0.37248853697E+00 -0.15156390150E+02  0.72461569013E+02  0.69999998331E+02 0.  0.
         12    1    1    2    0    0  0.10992011073E+02  0.37248853697E+00  0.15156390150E+02  0.18726430987E+02  0.00000000000E+00 0. -1.
         11    1    3    3    0    0 -0.31056136664E+02  0.13426705686E+02 -0.57472953591E+01  0.34318966393E+02  0.51100000000E-03 0. -1.
        -11    1    3    3    0    0  0.75720960849E+01  0.73803084980E+01 -0.84489769105E+01  0.13534799730E+02  0.51100000000E-03 0.  1.
        -12    1    3    3    0    0  0.12492029506E+02 -0.21179502721E+02 -0.96011788005E+00  0.24607802889E+02  0.00000000000E+00 0.  1.
</event>
<event>
 7    1  0.2972263E-013  0.7246140E+02  0.7816164E-02  0.1226708E+00
        -11   -1    0    0    0    0  0.00000000000E+00  0.00000000000E+00  0.45593999997E+02  0.45594000000E+02  0.51100000000E-03 0.  1.
         11   -1    0    0    0    0 -0.00000000000E+00 -0.00000000000E+00 -0.45593999997E+02  0.45594000000E+02  0.51100000000E-03 0. -1.
    9900012    2    1    2    0    0 -0.99154665357E+01  0.10226204817E+02  0.12157047353E+02  0.72461400150E+02  0.69999778355E+02 0.  0.
         12    1    1    2    0    0  0.99154665357E+01 -0.10226204817E+02 -0.12157047353E+02  0.18726599850E+02  0.00000000000E+00 0. -1.
         11    1    3    3    0    0 -0.12451303176E+01 -0.46489613154E+01  0.97071418330E+01  0.10834749358E+02  0.51100000000E-03 0. -1.
        -11    1    3    3    0    0 -0.17850662583E+01  0.25033127085E+02  0.25333753114E+02  0.35660103201E+02  0.51100000000E-03 0.  1.
         12    1    3    3    0    0 -0.68852699599E+01 -0.10157960953E+02 -0.22883847593E+02  0.25966547591E+02  0.00000000000E+00 0. -1.
</event>
<event>
 7    1  0.2972263E-013  0.7246159E+02  0.7816164E-02  0.1226708E+00
        -11   -1    0    0    0    0  0.00000000000E+00  0.00000000000E+00  0.45593999997E+02  0.45594000000E+02  0.51100000000E-03 0.  1.
         11   -1    0    0    0    0 -0.00000000000E+00 -0.00000000000E+00 -0.45593999997E+02  0.45594000000E+02  0.51100000000E-03 0. -1.
    9900012    2    1    2    0    0  0.73687946525E+01 -0.16623741354E+02  0.44755518949E+01  0.72461588812E+02  0.70000024122E+02 0.  0.
         12    1    1    2    0    0 -0.73687946525E+01  0.16623741354E+02 -0.44755518949E+01  0.18726411188E+02  0.00000000000E+00 0. -1.
         11    1    3    3    0    0 -0.94968538276E+01  0.10156142187E+02  0.56562465162E+01  0.15011015344E+02  0.51100000000E-03 0. -1.
        -11    1    3    3    0    0  0.10082438549E+02 -0.41453149312E+01  0.21872543592E+02  0.24438644938E+02  0.51100000000E-03 0.  1.
        -12    1    3    3    0    0  0.67832099313E+01 -0.22634568609E+02 -0.23053238214E+02  0.33011928529E+02  0.00000000000E+00 0.  1.
</event>
<event>
 7    1  0.2972263E-013  0.7246127E+02  0.7816164E-02  0.1226709E+00
        -11   -1    0    0    0    0  0.00000000000E+00  0.00000000000E+00  0.45593999997E+02  0.45594000000E+02  0.51100000000E-03 0.  1.
         11   -1    0    0    0    0 -0.00000000000E+00 -0.00000000000E+00 -0.45593999997E+02  0.45594000000E+02  0.51100000000E-03 0. -1.
    9900012    2    1    2    0    0  0.96589456934E+01  0.13833466328E+02 -0.81259011004E+01  0.72461273344E+02  0.69999613165E+02 0.  0.
         12    1    1    2    0    0 -0.96589456934E+01 -0.13833466328E+02  0.81259011004E+01  0.18726726656E+02  0.00000000000E+00 0. -1.
         11    1    3    3    0    0 -0.69004194879E+01  0.56229249292E+01 -0.16566960162E+01  0.90541546165E+01  0.51100000000E-03 0. -1.
        -11    1    3    3    0    0  0.85332100225E+01  0.34462198188E+02 -0.16911874815E+01  0.35543197557E+02  0.51100000000E-03 0.  1.
         12    1    3    3    0    0  0.80261551588E+01 -0.26251656788E+02 -0.47780176027E+01  0.27863921170E+02  0.00000000000E+00 0. -1.
</event>
<event>
 7    1  0.2972263E-013  0.7246159E+02  0.7816164E-02  0.1226708E+00
        -11   -1    0    0    0    0  0.00000000000E+00  0.00000000000E+00  0.45593999997E+02  0.45594000000E+02  0.51100000000E-03 0.  1.
         11   -1    0    0    0    0 -0.00000000000E+00 -0.00000000000E+00 -0.45593999997E+02  0.45594000000E+02  0.51100000000E-03 0. -1.
    9900012    2    1    2    0    0  0.39885096444E+01 -0.11040719637E+02  0.14590152520E+02  0.72461594849E+02  0.70000031987E+02 0.  0.
         12    1    1    2    0    0 -0.39885096444E+01  0.11040719637E+02 -0.14590152520E+02  0.18726405151E+02  0.00000000000E+00 0. -1.
         11    1    3    3    0    0 -0.26201907590E+02 -0.10892178887E+01  0.16345846433E+02  0.30901667476E+02  0.51100000000E-03 0. -1.
        -11    1    3    3    0    0  0.34433632308E+01  0.69330413849E+01 -0.57986465482E+01  0.96720274625E+01  0.51100000000E-03 0.  1.
         12    1    3    3    0    0  0.26747054003E+02 -0.16884543134E+02  0.40429526356E+01  0.31887899910E+02  0.00000000000E+00 0. -1.
</event>
<event>
 7    1  0.2972263E-013  0.7246153E+02  0.7816164E-02  0.1226708E+00
        -11   -1    0    0    0    0  0.00000000000E+00  0.00000000000E+00  0.45593999997E+02  0.45594000000E+02  0.51100000000E-03 0.  1.
         11   -1    0    0    0    0 -0.00000000000E+00 -0.00000000000E+00 -0.45593999997E+02  0.45594000000E+02  0.51100000000E-03 0. -1.
    9900012    2    1    2    0    0  0.64725643795E+01 -0.72237980964E+01  0.16018844057E+02  0.72461529070E+02  0.69999946297E+02 0.  0.
         12    1    1    2    0    0 -0.64725643795E+01  0.72237980964E+01 -0.16018844057E+02  0.18726470930E+02  0.00000000000E+00 0. -1.
         11    1    3    3    0    0 -0.18620588224E+01 -0.21257181996E+01  0.10812342171E+01  0.30257244778E+01  0.51100000000E-03 0. -1.
        -11    1    3    3    0    0 -0.10664841503E+02 -0.83347839643E+00  0.37869822075E+02  0.39351708410E+02  0.51100000000E-03 0.  1.
         12    1    3    3    0    0  0.18999464705E+02 -0.42646015003E+01 -0.22932212236E+02  0.30084096182E+02  0.00000000000E+00 0. -1.
</event>
<event>
 7    1  0.2972263E-013  0.7246152E+02  0.7816164E-02  0.1226708E+00
        -11   -1    0    0    0    0  0.00000000000E+00  0.00000000000E+00  0.45593999997E+02  0.45594000000E+02  0.51100000000E-03 0.  1.
         11   -1    0    0    0    0 -0.00000000000E+00 -0.00000000000E+00 -0.45593999997E+02  0.45594000000E+02  0.51100000000E-03 0. -1.
    9900012    2    1    2    0    0  0.41354011165E+01  0.74440190955E+01  0.16678314668E+02  0.72461517606E+02  0.69999931363E+02 0.  0.
         12    1    1    2    0    0 -0.41354011165E+01 -0.74440190955E+01 -0.16678314668E+02  0.18726482394E+02  0.00000000000E+00 0. -1.
         11    1    3    3    0    0  0.51280381727E+01 -0.25496351004E+01  0.11454351520E+02  0.12806232219E+02  0.51100000000E-03 0.  1.
        -11    1    3    3    0    0 -0.11125448184E+02 -0.13453194430E+02  0.22751317379E+02  0.28677281608E+02  0.51100000000E-03 0. -1.
         12    1    3    3    0    0  0.10132811127E+02  0.23446848626E+02 -0.17527354231E+02  0.30978003779E+02  0.00000000000E+00 0. -1.
</event>
<event>
 7    1  0.2972263E-013  0.7246137E+02  0.7816164E-02  0.1226709E+00
        -11   -1    0    0    0    0  0.00000000000E+00  0.00000000000E+00  0.45593999997E+02  0.45594000000E+02  0.51100000000E-03 0.  1.
         11   -1    0    0    0    0 -0.00000000000E+00 -0.00000000000E+00 -0.45593999997E+02  0.45594000000E+02  0.51100000000E-03 0. -1.
    9900012    2    1    2    0    0  0.50237374125E+01  0.10378552428E+02  0.14755820275E+02  0.72461374034E+02  0.69999744334E+02 0.  0.
         12    1    1    2    0    0 -0.50237374125E+01 -0.10378552428E+02 -0.14755820275E+02  0.18726625966E+02  0.00000000000E+00 0. -1.
         11    1    3    3    0    0 -0.10473910578E+01  0.31243461013E+01 -0.80583821813E+01  0.87060950046E+01  0.51100000000E-03 0. -1.
        -11    1    3    3    0    0  0.80377103616E+01 -0.25415436581E+02  0.12486188106E+02  0.29435592369E+02  0.51100000000E-03 0.  1.
         12    1    3    3    0    0 -0.19665818913E+01  0.32669642907E+02  0.10328014350E+02  0.34319686660E+02  0.00000000000E+00 0. -1.
</event>
<event>
 7    1  0.2972263E-013  0.7246154E+02  0.7816164E-02  0.1226708E+00
        -11   -1    0    0    0    0  0.00000000000E+00  0.00000000000E+00  0.45593999997E+02  0.45594000000E+02  0.51100000000E-03 0. -1.
         11   -1    0    0    0    0 -0.00000000000E+00 -0.00000000000E+00 -0.45593999997E+02  0.45594000000E+02  0.51100000000E-03 0.  1.
    9900012    2    1    2    0    0  0.13818242535E+02 -0.33828709660E+01 -0.12177542896E+02  0.72461542948E+02  0.69999964376E+02 0.  0.
         12    1    1    2    0    0 -0.13818242535E+02  0.33828709660E+01  0.12177542896E+02  0.18726457052E+02  0.00000000000E+00 0. -1.
         11    1    3    3    0    0  0.17744271727E+02 -0.11476445568E+02  0.72118992314E+01  0.22328893228E+02  0.51100000000E-03 0. -1.
        -11    1    3    3    0    0  0.17789243684E+02 -0.74190050628E+01 -0.10819653470E+02  0.22103477745E+02  0.51100000000E-03 0.  1.
        -12    1    3    3    0    0 -0.21715272876E+02  0.15512579665E+02 -0.85697886578E+01  0.28029171975E+02  0.00000000000E+00 0.  1.
</event>
<event>
 7    1  0.2972263E-013  0.7246119E+02  0.7816164E-02  0.1226709E+00
        -11   -1    0    0    0    0  0.00000000000E+00  0.00000000000E+00  0.45593999997E+02  0.45594000000E+02  0.51100000000E-03 0. -1.
         11   -1    0    0    0    0 -0.00000000000E+00 -0.00000000000E+00 -0.45593999997E+02  0.45594000000E+02  0.51100000000E-03 0.  1.
    9900012    2    1    2    0    0 -0.15320278764E+02  0.10519252059E+02 -0.23081644945E+01  0.72461194917E+02  0.69999511000E+02 0.  0.
         12    1    1    2    0    0  0.15320278764E+02 -0.10519252059E+02  0.23081644945E+01  0.18726805083E+02  0.00000000000E+00 0. -1.
         11    1    3    3    0    0 -0.99178541585E+01 -0.25460217757E+02 -0.92478746771E+01  0.28846311821E+02  0.51100000000E-03 0. -1.
        -11    1    3    3    0    0 -0.32100504062E+01  0.16759217630E+02 -0.83121169076E+01  0.18980703015E+02  0.51100000000E-03 0.  1.
        -12    1    3    3    0    0 -0.21923741992E+01  0.19220252186E+02  0.15251827090E+02  0.24634180082E+02  0.00000000000E+00 0.  1.
</event>
<event>
 7    1  0.2972263E-013  0.7246161E+02  0.7816164E-02  0.1226708E+00
        -11   -1    0    0    0    0  0.00000000000E+00  0.00000000000E+00  0.45593999997E+02  0.45594000000E+02  0.51100000000E-03 0. -1.
         11   -1    0    0    0    0 -0.00000000000E+00 -0.00000000000E+00 -0.45593999997E+02  0.45594000000E+02  0.51100000000E-03 0.  1.
    9900012    2    1    2    0    0  0.18224988111E+02 -0.24629922151E+01 -0.35300182534E+01  0.72461613505E+02  0.70000056290E+02 0.  0.
         12    1    1    2    0    0 -0.18224988111E+02  0.24629922151E+01  0.35300182534E+01  0.18726386495E+02  0.00000000000E+00 0. -1.
         11    1    3    3    0    0  0.95582984224E+01  0.37582642051E+01  0.31466668206E+01  0.10741840201E+02  0.51100000000E-03 0. -1.
        -11    1    3    3    0    0  0.93275379594E+01  0.25769015213E+02 -0.10803233656E+02  0.29457680953E+02  0.51100000000E-03 0.  1.
         12    1    3    3    0    0 -0.66084827083E+00 -0.31990271634E+02  0.41265485820E+01  0.32262092350E+02  0.00000000000E+00 0. -1.
</event>
<event>
 7    1  0.2972263E-013  0.7246170E+02  0.7816164E-02  0.1226708E+00
        -11   -1    0    0    0    0  0.00000000000E+00  0.00000000000E+00  0.45593999997E+02  0.45594000000E+02  0.51100000000E-03 0.  1.
         11   -1    0    0    0    0 -0.00000000000E+00 -0.00000000000E+00 -0.45593999997E+02  0.45594000000E+02  0.51100000000E-03 0. -1.
    9900012    2    1    2    0    0 -0.39558390942E+01 -0.17933565204E+02  0.36623551229E+01  0.72461701142E+02  0.70000170453E+02 0.  0.
         12    1    1    2    0    0  0.39558390942E+01  0.17933565204E+02 -0.36623551229E+01  0.18726298858E+02  0.00000000000E+00 0. -1.
         11    1    3    3    0    0  0.24301627596E+01 -0.49848237821E+01 -0.13334397740E+01  0.57037024001E+01  0.51100000000E-03 0. -1.
        -11    1    3    3    0    0  0.10559653104E+02  0.18760269748E+01  0.30739994606E+02  0.32557226840E+02  0.51100000000E-03 0.  1.
         12    1    3    3    0    0 -0.16945654957E+02 -0.14824768397E+02 -0.25744199709E+02  0.34200771901E+02  0.00000000000E+00 0. -1.
</event>
<event>
 7    1  0.2972263E-013  0.7246158E+02  0.7816164E-02  0.1226708E+00
        -11   -1    0    0    0    0  0.00000000000E+00  0.00000000000E+00  0.45593999997E+02  0.45594000000E+02  0.51100000000E-03 0. -1.
         11   -1    0    0    0    0 -0.00000000000E+00 -0.00000000000E+00 -0.45593999997E+02  0.45594000000E+02  0.51100000000E-03 0.  1.
    9900012    2    1    2    0    0  0.13207488190E+02 -0.56620756582E+01 -0.12007586257E+02  0.72461575548E+02  0.70000006844E+02 0.  0.
         12    1    1    2    0    0 -0.13207488190E+02  0.56620756582E+01  0.12007586257E+02  0.18726424452E+02  0.00000000000E+00 0. -1.
         11    1    3    3    0    0  0.27991265260E+02  0.35218324315E+01 -0.17312395314E+02  0.33100351453E+02  0.51100000000E-03 0. -1.
        -11    1    3    3    0    0  0.48746711639E+01 -0.33652076127E+01 -0.11445198261E+02  0.12887187619E+02  0.51100000000E-03 0.  1.
         12    1    3    3    0    0 -0.19658448234E+02 -0.58187004770E+01  0.16750007318E+02  0.26474036476E+02  0.00000000000E+00 0. -1.
</event>
<event>
 7    1  0.2972263E-013  0.7246157E+02  0.7816164E-02  0.1226708E+00
        -11   -1    0    0    0    0  0.00000000000E+00  0.00000000000E+00  0.45593999997E+02  0.45594000000E+02  0.51100000000E-03 0. -1.
         11   -1    0    0    0    0 -0.00000000000E+00 -0.00000000000E+00 -0.45593999997E+02  0.45594000000E+02  0.51100000000E-03 0.  1.
    9900012    2    1    2    0    0  0.67910512167E+01  0.52152666167E+01 -0.16654183077E+02  0.72461569574E+02  0.69999999062E+02 0.  0.
         12    1    1    2    0    0 -0.67910512167E+01 -0.52152666167E+01  0.16654183077E+02  0.18726430426E+02  0.00000000000E+00 0. -1.
         11    1    3    3    0    0 -0.39583389333E+01  0.81839536987E+01  0.95823057337E+01  0.13208562703E+02  0.51100000000E-03 0. -1.
        -11    1    3    3    0    0 -0.16402421655E+02 -0.10726515232E+02  0.15199274200E+01  0.19657256797E+02  0.51100000000E-03 0.  1.
        -12    1    3    3    0    0  0.27151811805E+02  0.77578281499E+01 -0.27756416231E+02  0.39595750074E+02  0.00000000000E+00 0.  1.
</event>
<event>
 7    1  0.2972263E-013  0.7246146E+02  0.7816164E-02  0.1226708E+00
        -11   -1    0    0    0    0  0.00000000000E+00  0.00000000000E+00  0.45593999997E+02  0.45594000000E+02  0.51100000000E-03 0.  1.
         11   -1    0    0    0    0 -0.00000000000E+00 -0.00000000000E+00 -0.45593999997E+02  0.45594000000E+02  0.51100000000E-03 0. -1.
    9900012    2    1    2    0    0  0.93830766345E+01  0.13220292938E+02 -0.93736284451E+01  0.72461463142E+02  0.69999860413E+02 0.  0.
         12    1    1    2    0    0 -0.93830766345E+01 -0.13220292938E+02  0.93736284451E+01  0.18726536858E+02  0.00000000000E+00 0. -1.
         11    1    3    3    0    0 -0.14273660989E+02  0.16921565895E+02 -0.95951737969E+01  0.24127663601E+02  0.51100000000E-03 0. -1.
        -11    1    3    3    0    0 -0.72439939069E+01 -0.11894528582E+01  0.12897110127E+02  0.14840003225E+02  0.51100000000E-03 0.  1.
        -12    1    3    3    0    0  0.30900731530E+02 -0.25118200996E+01 -0.12675564775E+02  0.33493796316E+02  0.00000000000E+00 0.  1.
</event>
<event>
 7    1  0.2972263E-013  0.7246155E+02  0.7816164E-02  0.1226708E+00
        -11   -1    0    0    0    0  0.00000000000E+00  0.00000000000E+00  0.45593999997E+02  0.45594000000E+02  0.51100000000E-03 0. -1.
         11   -1    0    0    0    0 -0.00000000000E+00 -0.00000000000E+00 -0.45593999997E+02  0.45594000000E+02  0.51100000000E-03 0.  1.
    9900012    2    1    2    0    0 -0.94092802463E+01  0.15437666749E+02 -0.48809540293E+01  0.72461552882E+02  0.69999977318E+02 0.  0.
         12    1    1    2    0    0  0.94092802463E+01 -0.15437666749E+02  0.48809540293E+01  0.18726447118E+02  0.00000000000E+00 0. -1.
         11    1    3    3    0    0 -0.58194420779E+01 -0.20618129654E+02  0.14678991410E+02  0.25970097528E+02  0.51100000000E-03 0. -1.
        -11    1    3    3    0    0  0.81033448831E+01  0.15192539869E+02 -0.31965351332E+01  0.17512718323E+02  0.51100000000E-03 0.  1.
        -12    1    3    3    0    0 -0.11693183052E+02  0.20863256534E+02 -0.16363410306E+02  0.28978737032E+02  0.00000000000E+00 0.  1.
</event>
<event>
 7    1  0.2972263E-013  0.7246167E+02  0.7816164E-02  0.1226708E+00
        -11   -1    0    0    0    0  0.00000000000E+00  0.00000000000E+00  0.45593999997E+02  0.45594000000E+02  0.51100000000E-03 0. -1.
         11   -1    0    0    0    0 -0.00000000000E+00 -0.00000000000E+00 -0.45593999997E+02  0.45594000000E+02  0.51100000000E-03 0.  1.
    9900012    2    1    2    0    0 -0.13546301492E+02  0.12755520648E+02  0.21142369825E+01  0.72461665892E+02  0.70000124534E+02 0.  0.
         12    1    1    2    0    0  0.13546301492E+02 -0.12755520648E+02 -0.21142369825E+01  0.18726334108E+02  0.00000000000E+00 0. -1.
         11    1    3    3    0    0 -0.16848330205E+02 -0.95148973662E+01 -0.76368481140E+00  0.19364470490E+02  0.51100000000E-03 0. -1.
        -11    1    3    3    0    0 -0.20637784978E+02  0.20370143975E+02  0.19857444868E+01  0.29065514201E+02  0.51100000000E-03 0.  1.
         12    1    3    3    0    0  0.23939813692E+02  0.19002740396E+01  0.89217730710E+00  0.24031681201E+02  0.00000000000E+00 0. -1.
</event>
<event>
 7    1  0.2972263E-013  0.7246155E+02  0.7816164E-02  0.1226708E+00
        -11   -1    0    0    0    0  0.00000000000E+00  0.00000000000E+00  0.45593999997E+02  0.45594000000E+02  0.51100000000E-03 0. -1.
         11   -1    0    0    0    0 -0.00000000000E+00 -0.00000000000E+00 -0.45593999997E+02  0.45594000000E+02  0.51100000000E-03 0.  1.
    9900012    2    1    2    0    0 -0.27727013798E+01 -0.17945652209E+02 -0.45766379715E+01  0.72461550222E+02  0.69999973853E+02 0.  0.
         12    1    1    2    0    0  0.27727013798E+01  0.17945652209E+02  0.45766379715E+01  0.18726449778E+02  0.00000000000E+00 0. -1.
         11    1    3    3    0    0  0.28660108853E+01  0.23751926369E+01  0.24850711451E+01  0.44756158587E+01  0.51100000000E-03 0. -1.
        -11    1    3    3    0    0  0.71514805181E+01  0.80027813968E+01 -0.28351779546E+02  0.30315203898E+02  0.51100000000E-03 0.  1.
        -12    1    3    3    0    0 -0.12790192783E+02 -0.28323626243E+02  0.21290070429E+02  0.37670730466E+02  0.00000000000E+00 0.  1.
</event>
<event>
 7    1  0.2972263E-013  0.7246154E+02  0.7816164E-02  0.1226708E+00
        -11   -1    0    0    0    0  0.00000000000E+00  0.00000000000E+00  0.45593999997E+02  0.45594000000E+02  0.51100000000E-03 0.  1.
         11   -1    0    0    0    0 -0.00000000000E+00 -0.00000000000E+00 -0.45593999997E+02  0.45594000000E+02  0.51100000000E-03 0. -1.
    9900012    2    1    2    0    0  0.15532001633E+02 -0.66852404656E+01 -0.80464056143E+01  0.72461543898E+02  0.69999965614E+02 0.  0.
         12    1    1    2    0    0 -0.15532001633E+02  0.66852404656E+01  0.80464056143E+01  0.18726456102E+02  0.00000000000E+00 0. -1.
         11    1    3    3    0    0  0.12684913375E+02  0.38675703547E+01 -0.53697205108E+01  0.14307306749E+02  0.51100000000E-03 0. -1.
        -11    1    3    3    0    0  0.50279769095E+01 -0.30598159771E+02 -0.15080243851E+02  0.34481033744E+02  0.51100000000E-03 0.  1.
         12    1    3    3    0    0 -0.21808886514E+01  0.20045348950E+02  0.12403558748E+02  0.23673203405E+02  0.00000000000E+00 0. -1.
</event>
<event>
 7    1  0.2972263E-013  0.7246134E+02  0.7816164E-02  0.1226709E+00
        -11   -1    0    0    0    0  0.00000000000E+00  0.00000000000E+00  0.45593999997E+02  0.45594000000E+02  0.51100000000E-03 0.  1.
         11   -1    0    0    0    0 -0.00000000000E+00 -0.00000000000E+00 -0.45593999997E+02  0.45594000000E+02  0.51100000000E-03 0. -1.
    9900012    2    1    2    0    0 -0.27731316112E+01 -0.16399201290E+02  0.86060221478E+01  0.72461343088E+02  0.69999704021E+02 0.  0.
         12    1    1    2    0    0  0.27731316112E+01  0.16399201290E+02 -0.86060221478E+01  0.18726656912E+02  0.00000000000E+00 0. -1.
         11    1    3    3    0    0  0.28070400189E+01 -0.50156767677E+01 -0.27742997487E+01  0.63822587273E+01  0.51100000000E-03 0. -1.
        -11    1    3    3    0    0 -0.11311994805E+02 -0.37030270414E+02  0.85067683036E+01  0.39642997624E+02  0.51100000000E-03 0.  1.
         12    1    3    3    0    0  0.57318231750E+01  0.25646745891E+02  0.28735535929E+01  0.26436086737E+02  0.00000000000E+00 0. -1.
</event>
<event>
 7    1  0.2972263E-013  0.7246159E+02  0.7816164E-02  0.1226708E+00
        -11   -1    0    0    0    0  0.00000000000E+00  0.00000000000E+00  0.45593999997E+02  0.45594000000E+02  0.51100000000E-03 0.  1.
         11   -1    0    0    0    0 -0.00000000000E+00 -0.00000000000E+00 -0.45593999997E+02  0.45594000000E+02  0.51100000000E-03 0. -1.
    9900012    2    1    2    0    0 -0.13754477385E+02 -0.13311850114E+01  0.12638061865E+02  0.72461593260E+02  0.70000029918E+02 0.  0.
         12    1    1    2    0    0  0.13754477385E+02  0.13311850114E+01 -0.12638061865E+02  0.18726406740E+02  0.00000000000E+00 0. -1.
         11    1    3    3    0    0 -0.13530464205E+02  0.22803092940E+01  0.43297088375E+01  0.14388177472E+02  0.51100000000E-03 0. -1.
        -11    1    3    3    0    0 -0.12244875642E+02 -0.95940987878E+01  0.29289174832E+02  0.33163827789E+02  0.51100000000E-03 0.  1.
         12    1    3    3    0    0  0.12020862462E+02  0.59826044823E+01 -0.20980821805E+02  0.24909588000E+02  0.00000000000E+00 0. -1.
</event>
<event>
 7    1  0.2972263E-013  0.7246161E+02  0.7816164E-02  0.1226708E+00
        -11   -1    0    0    0    0  0.00000000000E+00  0.00000000000E+00  0.45593999997E+02  0.45594000000E+02  0.51100000000E-03 0. -1.
         11   -1    0    0    0    0 -0.00000000000E+00 -0.00000000000E+00 -0.45593999997E+02  0.45594000000E+02  0.51100000000E-03 0.  1.
    9900012    2    1    2    0    0  0.14125771150E+02  0.90345154552E+01 -0.83377440777E+01  0.72461605355E+02  0.70000045673E+02 0.  0.
         12    1    1    2    0    0 -0.14125771150E+02 -0.90345154552E+01  0.83377440777E+01  0.18726394645E+02  0.00000000000E+00 0. -1.
         11    1    3    3    0    0  0.10452806045E+02  0.24025441293E+02  0.13235480473E+02  0.29354061510E+02  0.51100000000E-03 0. -1.
        -11    1    3    3    0    0  0.71259725899E+00  0.10918028013E+02 -0.39452088748E+01  0.11630812692E+02  0.51100000000E-03 0.  1.
        -12    1    3    3    0    0  0.29603678460E+01 -0.25908953851E+02 -0.17628015676E+02  0.31476731153E+02  0.00000000000E+00 0.  1.
</event>
<event>
 7    1  0.2972263E-013  0.7246165E+02  0.7816164E-02  0.1226708E+00
        -11   -1    0    0    0    0  0.00000000000E+00  0.00000000000E+00  0.45593999997E+02  0.45594000000E+02  0.51100000000E-03 0. -1.
         11   -1    0    0    0    0 -0.00000000000E+00 -0.00000000000E+00 -0.45593999997E+02  0.45594000000E+02  0.51100000000E-03 0.  1.
    9900012    2    1    2    0    0  0.35930679689E+01 -0.30007587399E+01 -0.18131781155E+02  0.72461650161E+02  0.70000104041E+02 0.  0.
         12    1    1    2    0    0 -0.35930679689E+01  0.30007587399E+01  0.18131781155E+02  0.18726349839E+02  0.00000000000E+00 0. -1.
         11    1    3    3    0    0 -0.10439918972E+01 -0.20959955623E+01  0.85214656558E+01  0.88373352128E+01  0.51100000000E-03 0. -1.
        -11    1    3    3    0    0  0.10377338684E+02  0.98924909364E+01  0.14680345461E+02  0.20519821593E+02  0.51100000000E-03 0.  1.
        -12    1    3    3    0    0 -0.57402788181E+01 -0.10797254114E+02 -0.41333592272E+02  0.43104493355E+02  0.00000000000E+00 0.  1.
</event>
<event>
 7    1  0.2972263E-013  0.7246160E+02  0.7816164E-02  0.1226708E+00
        -11   -1    0    0    0    0  0.00000000000E+00  0.00000000000E+00  0.45593999997E+02  0.45594000000E+02  0.51100000000E-03 0. -1.
         11   -1    0    0    0    0 -0.00000000000E+00 -0.00000000000E+00 -0.45593999997E+02  0.45594000000E+02  0.51100000000E-03 0.  1.
    9900012    2    1    2    0    0  0.13028143345E+02 -0.10839100039E+01 -0.13407864709E+02  0.72461595754E+02  0.70000033167E+02 0.  0.
         12    1    1    2    0    0 -0.13028143345E+02  0.10839100039E+01  0.13407864709E+02  0.18726404246E+02  0.00000000000E+00 0. -1.
         11    1    3    3    0    0 -0.20172598377E+02 -0.20892129736E+02 -0.84511160363E+01  0.30246258821E+02  0.51100000000E-03 0. -1.
        -11    1    3    3    0    0  0.14683025307E+02 -0.16612786814E+00 -0.19270216439E+01  0.14809869794E+02  0.51100000000E-03 0.  1.
        -12    1    3    3    0    0  0.18517716415E+02  0.19974347600E+02 -0.30297270288E+01  0.27405467140E+02  0.00000000000E+00 0.  1.
</event>
<event>
 7    1  0.2972263E-013  0.7246155E+02  0.7816164E-02  0.1226708E+00
        -11   -1    0    0    0    0  0.00000000000E+00  0.00000000000E+00  0.45593999997E+02  0.45594000000E+02  0.51100000000E-03 0.  1.
         11   -1    0    0    0    0 -0.00000000000E+00 -0.00000000000E+00 -0.45593999997E+02  0.45594000000E+02  0.51100000000E-03 0. -1.
    9900012    2    1    2    0    0 -0.62917661003E+01 -0.10061790422E+02  0.14486341860E+02  0.72461546848E+02  0.69999969457E+02 0.  0.
         12    1    1    2    0    0  0.62917661003E+01  0.10061790422E+02 -0.14486341860E+02  0.18726453152E+02  0.00000000000E+00 0. -1.
         11    1    3    3    0    0 -0.61182055736E+00 -0.38921282978E+01 -0.35604632364E+01  0.53103564663E+01  0.51100000000E-03 0. -1.
        -11    1    3    3    0    0  0.60811481804E+01 -0.16397082305E+02  0.38000596849E+02  0.41831686942E+02  0.51100000000E-03 0.  1.
         12    1    3    3    0    0 -0.11761093723E+02  0.10227420181E+02 -0.19953791753E+02  0.25319503440E+02  0.00000000000E+00 0. -1.
</event>
<event>
 7    1  0.2972263E-013  0.7246151E+02  0.7816164E-02  0.1226708E+00
        -11   -1    0    0    0    0  0.00000000000E+00  0.00000000000E+00  0.45593999997E+02  0.45594000000E+02  0.51100000000E-03 0. -1.
         11   -1    0    0    0    0 -0.00000000000E+00 -0.00000000000E+00 -0.45593999997E+02  0.45594000000E+02  0.51100000000E-03 0.  1.
    9900012    2    1    2    0    0 -0.10751095757E+02 -0.10277213734E+02 -0.11378668809E+02  0.72461513785E+02  0.69999926386E+02 0.  0.
         12    1    1    2    0    0  0.10751095757E+02  0.10277213734E+02  0.11378668809E+02  0.18726486215E+02  0.00000000000E+00 0. -1.
         11    1    3    3    0    0  0.15297691768E+02 -0.63342304221E+01 -0.15347157623E+02  0.22576029231E+02  0.51100000000E-03 0. -1.
        -11    1    3    3    0    0  0.42016317696E+00 -0.17082551223E+02 -0.68597451213E+01  0.18413207129E+02  0.51100000000E-03 0.  1.
        -12    1    3    3    0    0 -0.26468950702E+02  0.13139567911E+02  0.10828233935E+02  0.31472277425E+02  0.00000000000E+00 0.  1.
</event>
<event>
 7    1  0.2972263E-013  0.7246154E+02  0.7816164E-02  0.1226708E+00
        -11   -1    0    0    0    0  0.00000000000E+00  0.00000000000E+00  0.45593999997E+02  0.45594000000E+02  0.51100000000E-03 0. -1.
         11   -1    0    0    0    0 -0.00000000000E+00 -0.00000000000E+00 -0.45593999997E+02  0.45594000000E+02  0.51100000000E-03 0.  1.
    9900012    2    1    2    0    0 -0.12404705480E+02 -0.13527830395E+02 -0.37150141620E+01  0.72461541620E+02  0.69999962646E+02 0.  0.
         12    1    1    2    0    0  0.12404705480E+02  0.13527830395E+02  0.37150141620E+01  0.18726458380E+02  0.00000000000E+00 0. -1.
         11    1    3    3    0    0  0.16879927390E+02  0.10925003982E+01  0.21668914798E+02  0.27489404769E+02  0.51100000000E-03 0. -1.
        -11    1    3    3    0    0 -0.16256256535E+01  0.14929440253E+01  0.18996169244E+01  0.29120586101E+01  0.51100000000E-03 0.  1.
        -12    1    3    3    0    0 -0.27659007216E+02 -0.16113274819E+02 -0.27283545884E+02  0.42060078240E+02  0.00000000000E+00 0.  1.
</event>
<event>
 7    1  0.2972263E-013  0.7246159E+02  0.7816164E-02  0.1226708E+00
        -11   -1    0    0    0    0  0.00000000000E+00  0.00000000000E+00  0.45593999997E+02  0.45594000000E+02  0.51100000000E-03 0.  1.
         11   -1    0    0    0    0 -0.00000000000E+00 -0.00000000000E+00 -0.45593999997E+02  0.45594000000E+02  0.51100000000E-03 0. -1.
    9900012    2    1    2    0    0 -0.74087054100E+00  0.13598701408E+02  0.12853210799E+02  0.72461585581E+02  0.70000019914E+02 0.  0.
         12    1    1    2    0    0  0.74087054100E+00 -0.13598701408E+02 -0.12853210799E+02  0.18726414419E+02  0.00000000000E+00 0. -1.
         11    1    3    3    0    0 -0.14019622130E+02  0.48795298799E+01 -0.20745009166E+02  0.25509116450E+02  0.51100000000E-03 0. -1.
        -11    1    3    3    0    0 -0.61523152149E+01  0.10170497768E+02  0.64153819286E+01  0.13507299246E+02  0.51100000000E-03 0.  1.
        -12    1    3    3    0    0  0.19431066803E+02 -0.14513262404E+01  0.27182838036E+02  0.33445169886E+02  0.00000000000E+00 0.  1.
</event>
<event>
 7    1  0.2972263E-013  0.7246158E+02  0.7816164E-02  0.1226708E+00
        -11   -1    0    0    0    0  0.00000000000E+00  0.00000000000E+00  0.45593999997E+02  0.45594000000E+02  0.51100000000E-03 0. -1.
         11   -1    0    0    0    0 -0.00000000000E+00 -0.00000000000E+00 -0.45593999997E+02  0.45594000000E+02  0.51100000000E-03 0.  1.
    9900012    2    1    2    0    0 -0.71173625849E+01  0.12950474111E+02 -0.11502483741E+02  0.72461581174E+02  0.70000014172E+02 0.  0.
         12    1    1    2    0    0  0.71173625849E+01 -0.12950474111E+02  0.11502483741E+02  0.18726418826E+02  0.00000000000E+00 0. -1.
         11    1    3    3    0    0  0.10271552823E+01 -0.61693722609E+01 -0.25196290887E+01  0.67427541163E+01  0.51100000000E-03 0. -1.
        -11    1    3    3    0    0  0.43568647868E+01  0.47815401951E+01 -0.33820376682E+02  0.34433461583E+02  0.51100000000E-03 0.  1.
         12    1    3    3    0    0 -0.12501382654E+02  0.14338306176E+02  0.24837522030E+02  0.31285365474E+02  0.00000000000E+00 0. -1.
</event>
<event>
 7    1  0.2972263E-013  0.7246156E+02  0.7816164E-02  0.1226708E+00
        -11   -1    0    0    0    0  0.00000000000E+00  0.00000000000E+00  0.45593999997E+02  0.45594000000E+02  0.51100000000E-03 0.  1.
         11   -1    0    0    0    0 -0.00000000000E+00 -0.00000000000E+00 -0.45593999997E+02  0.45594000000E+02  0.51100000000E-03 0. -1.
    9900012    2    1    2    0    0 -0.63555168491E+01  0.76605431967E+01  0.15862000620E+02  0.72461559330E+02  0.69999985717E+02 0.  0.
         12    1    1    2    0    0  0.63555168491E+01 -0.76605431967E+01 -0.15862000620E+02  0.18726440670E+02  0.00000000000E+00 0. -1.
         11    1    3    3    0    0  0.98595620457E+01 -0.42754857080E+01  0.23361453761E+01  0.10997650533E+02  0.51100000000E-03 0. -1.
        -11    1    3    3    0    0 -0.81396697251E+01 -0.22104162758E+02  0.12024229062E+02  0.26446744965E+02  0.51100000000E-03 0.  1.
         12    1    3    3    0    0 -0.80754091698E+01  0.34040191662E+02  0.15016261822E+01  0.35017163832E+02  0.00000000000E+00 0. -1.
</event>
<event>
 7    1  0.2972263E-013  0.7246163E+02  0.7816164E-02  0.1226708E+00
        -11   -1    0    0    0    0  0.00000000000E+00  0.00000000000E+00  0.45593999997E+02  0.45594000000E+02  0.51100000000E-03 0.  1.
         11   -1    0    0    0    0 -0.00000000000E+00 -0.00000000000E+00 -0.45593999997E+02  0.45594000000E+02  0.51100000000E-03 0. -1.
    9900012    2    1    2    0    0  0.12644393269E+02 -0.11109499618E+02  0.82082457449E+01  0.72461629260E+02  0.70000076813E+02 0.  0.
         12    1    1    2    0    0 -0.12644393269E+02  0.11109499618E+02 -0.82082457449E+01  0.18726370740E+02  0.00000000000E+00 0. -1.
         11    1    3    3    0    0  0.13562166227E+00  0.19255646518E+02 -0.22883051216E+01  0.19391613049E+02  0.51100000000E-03 0.  1.
        -11    1    3    3    0    0  0.55254149306E+01  0.83072088311E+01 -0.45818033805E+01  0.10978745429E+02  0.51100000000E-03 0. -1.
        -12    1    3    3    0    0  0.69833566757E+01 -0.38672354967E+02  0.15078354247E+02  0.42091270781E+02  0.00000000000E+00 0.  1.
</event>
<event>
 7    1  0.2972263E-013  0.7246160E+02  0.7816164E-02  0.1226708E+00
        -11   -1    0    0    0    0  0.00000000000E+00  0.00000000000E+00  0.45593999997E+02  0.45594000000E+02  0.51100000000E-03 0.  1.
         11   -1    0    0    0    0 -0.00000000000E+00 -0.00000000000E+00 -0.45593999997E+02  0.45594000000E+02  0.51100000000E-03 0. -1.
    9900012    2    1    2    0    0  0.14117937386E+02 -0.18773063158E+01  0.12158851105E+02  0.72461598978E+02  0.70000037366E+02 0.  0.
         12    1    1    2    0    0 -0.14117937386E+02  0.18773063158E+01 -0.12158851105E+02  0.18726401022E+02  0.00000000000E+00 0. -1.
         11    1    3    3    0    0 -0.34841560572E+01  0.38667015839E+01  0.30919845774E+01  0.60540146562E+01  0.51100000000E-03 0. -1.
        -11    1    3    3    0    0 -0.76546715980E+01 -0.24893882236E+02  0.20044533206E+02  0.32864611389E+02  0.51100000000E-03 0.  1.
         12    1    3    3    0    0  0.25256765041E+02  0.19149874337E+02 -0.10977666678E+02  0.33542972932E+02  0.00000000000E+00 0. -1.
</event>
<event>
 7    1  0.2972263E-013  0.7246155E+02  0.7816164E-02  0.1226708E+00
        -11   -1    0    0    0    0  0.00000000000E+00  0.00000000000E+00  0.45593999997E+02  0.45594000000E+02  0.51100000000E-03 0. -1.
         11   -1    0    0    0    0 -0.00000000000E+00 -0.00000000000E+00 -0.45593999997E+02  0.45594000000E+02  0.51100000000E-03 0.  1.
    9900012    2    1    2    0    0 -0.68216343781E+01 -0.12928040009E+02  0.11705176557E+02  0.72461546190E+02  0.69999968600E+02 0.  0.
         12    1    1    2    0    0  0.68216343781E+01  0.12928040009E+02 -0.11705176557E+02  0.18726453810E+02  0.00000000000E+00 0. -1.
         11    1    3    3    0    0 -0.56418951093E+00  0.60643476815E+01 -0.14278300914E+02  0.15523031272E+02  0.51100000000E-03 0. -1.
        -11    1    3    3    0    0 -0.57113626257E+01 -0.16374288207E+02 -0.10555616349E+02  0.20301675155E+02  0.51100000000E-03 0.  1.
         12    1    3    3    0    0 -0.54608224148E+00 -0.26180994841E+01  0.36539093820E+02  0.36636839764E+02  0.00000000000E+00 0. -1.
</event>
<event>
 7    1  0.2972263E-013  0.7246147E+02  0.7816164E-02  0.1226708E+00
        -11   -1    0    0    0    0  0.00000000000E+00  0.00000000000E+00  0.45593999997E+02  0.45594000000E+02  0.51100000000E-03 0.  1.
         11   -1    0    0    0    0 -0.00000000000E+00 -0.00000000000E+00 -0.45593999997E+02  0.45594000000E+02  0.51100000000E-03 0. -1.
    9900012    2    1    2    0    0 -0.14595447428E+01  0.15855491346E+02  0.98567775686E+01  0.72461469603E+02  0.69999868831E+02 0.  0.
         12    1    1    2    0    0  0.14595447428E+01 -0.15855491346E+02 -0.98567775686E+01  0.18726530397E+02  0.00000000000E+00 0. -1.
         11    1    3    3    0    0 -0.64789724523E+01  0.24110975987E+02  0.45898636835E+01  0.25384702007E+02  0.51100000000E-03 0.  1.
        -11    1    3    3    0    0 -0.20143289106E+02  0.42705831690E+00  0.28559348659E+01  0.20349222075E+02  0.51100000000E-03 0. -1.
        -12    1    3    3    0    0  0.25162716816E+02 -0.86825429581E+01  0.24109790193E+01  0.26727545522E+02  0.00000000000E+00 0.  1.
</event>
<event>
 7    1  0.2972263E-013  0.7246157E+02  0.7816164E-02  0.1226708E+00
        -11   -1    0    0    0    0  0.00000000000E+00  0.00000000000E+00  0.45593999997E+02  0.45594000000E+02  0.51100000000E-03 0. -1.
         11   -1    0    0    0    0 -0.00000000000E+00 -0.00000000000E+00 -0.45593999997E+02  0.45594000000E+02  0.51100000000E-03 0.  1.
    9900012    2    1    2    0    0  0.14999160433E+02 -0.26340299991E+01 -0.10897985044E+02  0.72461574667E+02  0.70000005697E+02 0.  0.
         12    1    1    2    0    0 -0.14999160433E+02  0.26340299991E+01  0.10897985044E+02  0.18726425333E+02  0.00000000000E+00 0. -1.
         11    1    3    3    0    0  0.73643764958E+01  0.67962870786E+01  0.14566557230E+02  0.17680728182E+02  0.51100000000E-03 0. -1.
        -11    1    3    3    0    0  0.27364802294E+02 -0.45142182920E+01 -0.11041936572E+02  0.29851883272E+02  0.51100000000E-03 0.  1.
        -12    1    3    3    0    0 -0.19730018357E+02 -0.49160987858E+01 -0.14422605702E+02  0.24928963213E+02  0.00000000000E+00 0.  1.
</event>
<event>
 7    1  0.2972263E-013  0.7246164E+02  0.7816164E-02  0.1226708E+00
        -11   -1    0    0    0    0  0.00000000000E+00  0.00000000000E+00  0.45593999997E+02  0.45594000000E+02  0.51100000000E-03 0. -1.
         11   -1    0    0    0    0 -0.00000000000E+00 -0.00000000000E+00 -0.45593999997E+02  0.45594000000E+02  0.51100000000E-03 0.  1.
    9900012    2    1    2    0    0 -0.11140875473E+01 -0.18619716094E+02  0.16558079316E+01  0.72461635741E+02  0.70000085256E+02 0.  0.
         12    1    1    2    0    0  0.11140875473E+01  0.18619716094E+02 -0.16558079316E+01  0.18726364259E+02  0.00000000000E+00 0. -1.
         11    1    3    3    0    0 -0.49727655084E+01  0.43321231366E+01 -0.25491559748E+01  0.70706353404E+01  0.51100000000E-03 0. -1.
        -11    1    3    3    0    0 -0.10668327483E+01 -0.14597143409E+02 -0.28088295278E+02  0.31672812627E+02  0.51100000000E-03 0.  1.
         12    1    3    3    0    0  0.49255107094E+01 -0.83546958210E+01  0.32293259184E+02  0.33718187774E+02  0.00000000000E+00 0. -1.
</event>
<event>
 7    1  0.2972263E-013  0.7246151E+02  0.7816164E-02  0.1226708E+00
        -11   -1    0    0    0    0  0.00000000000E+00  0.00000000000E+00  0.45593999997E+02  0.45594000000E+02  0.51100000000E-03 0. -1.
         11   -1    0    0    0    0 -0.00000000000E+00 -0.00000000000E+00 -0.45593999997E+02  0.45594000000E+02  0.51100000000E-03 0.  1.
    9900012    2    1    2    0    0 -0.15167019013E+02 -0.10642177074E+02  0.27178753811E+01  0.72461514873E+02  0.69999927803E+02 0.  0.
         12    1    1    2    0    0  0.15167019013E+02  0.10642177074E+02 -0.27178753811E+01  0.18726485127E+02  0.00000000000E+00 0. -1.
         11    1    3    3    0    0  0.75449008383E+01  0.65074216780E+00  0.19496333850E+02  0.20915449502E+02  0.51100000000E-03 0. -1.
        -11    1    3    3    0    0 -0.32269462432E+00  0.72485620970E+01  0.97753554175E+01  0.12173880158E+02  0.51100000000E-03 0.  1.
        -12    1    3    3    0    0 -0.22389225227E+02 -0.18541481339E+02 -0.26553813886E+02  0.39372185213E+02  0.00000000000E+00 0.  1.
</event>
<event>
 7    1  0.2972263E-013  0.7246157E+02  0.7816164E-02  0.1226708E+00
        -11   -1    0    0    0    0  0.00000000000E+00  0.00000000000E+00  0.45593999997E+02  0.45594000000E+02  0.51100000000E-03 0.  1.
         11   -1    0    0    0    0 -0.00000000000E+00 -0.00000000000E+00 -0.45593999997E+02  0.45594000000E+02  0.51100000000E-03 0. -1.
    9900012    2    1    2    0    0 -0.13494070668E+02  0.65503939110E+01  0.11210778475E+02  0.72461570613E+02  0.70000000415E+02 0.  0.
         12    1    1    2    0    0  0.13494070668E+02 -0.65503939110E+01 -0.11210778475E+02  0.18726429387E+02  0.00000000000E+00 0. -1.
         11    1    3    3    0    0 -0.11519261265E+02  0.39556117645E+01  0.27589063403E+01  0.12488066663E+02  0.51100000000E-03 0. -1.
        -11    1    3    3    0    0 -0.17514853887E+02 -0.11354105208E+02  0.25544444087E+02  0.32987943793E+02  0.51100000000E-03 0.  1.
         12    1    3    3    0    0  0.15540044485E+02  0.13948887354E+02 -0.17092571952E+02  0.26985560156E+02  0.00000000000E+00 0. -1.
</event>
<event>
 7    1  0.2972263E-013  0.7246162E+02  0.7816164E-02  0.1226708E+00
        -11   -1    0    0    0    0  0.00000000000E+00  0.00000000000E+00  0.45593999997E+02  0.45594000000E+02  0.51100000000E-03 0.  1.
         11   -1    0    0    0    0 -0.00000000000E+00 -0.00000000000E+00 -0.45593999997E+02  0.45594000000E+02  0.51100000000E-03 0. -1.
    9900012    2    1    2    0    0 -0.49927232302E+01  0.10512636940E+02  0.14670878438E+02  0.72461615009E+02  0.70000058249E+02 0.  0.
         12    1    1    2    0    0  0.49927232302E+01 -0.10512636940E+02 -0.14670878438E+02  0.18726384991E+02  0.00000000000E+00 0. -1.
         11    1    3    3    0    0  0.96418329499E+01  0.15135847977E+01  0.64544840927E+01  0.11701121602E+02  0.51100000000E-03 0. -1.
        -11    1    3    3    0    0 -0.20648897046E+02  0.29806908167E+02  0.13104969333E+02  0.38556049398E+02  0.51100000000E-03 0.  1.
         12    1    3    3    0    0  0.60143408659E+01 -0.20807856024E+02 -0.48885749880E+01  0.22204444010E+02  0.00000000000E+00 0. -1.
</event>
<event>
 7    1  0.2972263E-013  0.7246157E+02  0.7816164E-02  0.1226708E+00
        -11   -1    0    0    0    0  0.00000000000E+00  0.00000000000E+00  0.45593999997E+02  0.45594000000E+02  0.51100000000E-03 0.  1.
         11   -1    0    0    0    0 -0.00000000000E+00 -0.00000000000E+00 -0.45593999997E+02  0.45594000000E+02  0.51100000000E-03 0. -1.
    9900012    2    1    2    0    0 -0.15758889461E+02  0.55666007779E+01  0.84468754311E+01  0.72461565587E+02  0.69999993868E+02 0.  0.
         12    1    1    2    0    0  0.15758889461E+02 -0.55666007779E+01 -0.84468754311E+01  0.18726434413E+02  0.00000000000E+00 0. -1.
         11    1    3    3    0    0  0.37121257377E+01 -0.92022666265E+01 -0.21408185328E+02  0.23596016356E+02  0.51100000000E-03 0. -1.
        -11    1    3    3    0    0 -0.93824009378E+00  0.16108004900E+02  0.33227610674E+01  0.16473884111E+02  0.51100000000E-03 0.  1.
         12    1    3    3    0    0 -0.18532775105E+02 -0.13391374953E+01  0.26532299692E+02  0.32391665120E+02  0.00000000000E+00 0. -1.
</event>
<event>
 7    1  0.2972263E-013  0.7246156E+02  0.7816164E-02  0.1226708E+00
        -11   -1    0    0    0    0  0.00000000000E+00  0.00000000000E+00  0.45593999997E+02  0.45594000000E+02  0.51100000000E-03 0. -1.
         11   -1    0    0    0    0 -0.00000000000E+00 -0.00000000000E+00 -0.45593999997E+02  0.45594000000E+02  0.51100000000E-03 0.  1.
    9900012    2    1    2    0    0 -0.18562750373E+02 -0.16492225593E+01 -0.18395182661E+01  0.72461562434E+02  0.69999989760E+02 0.  0.
         12    1    1    2    0    0  0.18562750373E+02  0.16492225593E+01  0.18395182661E+01  0.18726437566E+02  0.00000000000E+00 0. -1.
         11    1    3    3    0    0 -0.29121462754E+02  0.12481234806E+02  0.16538245938E+02  0.35740095050E+02  0.51100000000E-03 0. -1.
        -11    1    3    3    0    0 -0.10495648822E+01  0.42182463296E+01  0.37350237140E+01  0.57311073052E+01  0.51100000000E-03 0.  1.
        -12    1    3    3    0    0  0.11608277263E+02 -0.18348703695E+02 -0.22112787918E+02  0.30990360079E+02  0.00000000000E+00 0.  1.
</event>
<event>
 7    1  0.2972263E-013  0.7246134E+02  0.7816164E-02  0.1226709E+00
        -11   -1    0    0    0    0  0.00000000000E+00  0.00000000000E+00  0.45593999997E+02  0.45594000000E+02  0.51100000000E-03 0. -1.
         11   -1    0    0    0    0 -0.00000000000E+00 -0.00000000000E+00 -0.45593999997E+02  0.45594000000E+02  0.51100000000E-03 0.  1.
    9900012    2    1    2    0    0  0.30496545820E+01 -0.12026634407E+02 -0.14026675325E+02  0.72461335884E+02  0.69999694636E+02 0.  0.
         12    1    1    2    0    0 -0.30496545820E+01  0.12026634407E+02  0.14026675325E+02  0.18726664116E+02  0.00000000000E+00 0. -1.
         11    1    3    3    0    0 -0.17745678671E+02 -0.18596717391E+02 -0.13900294175E+02  0.29222682759E+02  0.51100000000E-03 0. -1.
        -11    1    3    3    0    0  0.52620714802E+01  0.37638797364E+01 -0.18156845973E+02  0.19275041968E+02  0.51100000000E-03 0.  1.
         12    1    3    3    0    0  0.15533261772E+02  0.28062032476E+01  0.18030464823E+02  0.23963611157E+02  0.00000000000E+00 0. -1.
</event>
<event>
 7    1  0.2972263E-013  0.7246173E+02  0.7816164E-02  0.1226708E+00
        -11   -1    0    0    0    0  0.00000000000E+00  0.00000000000E+00  0.45593999997E+02  0.45594000000E+02  0.51100000000E-03 0.  1.
         11   -1    0    0    0    0 -0.00000000000E+00 -0.00000000000E+00 -0.45593999997E+02  0.45594000000E+02  0.51100000000E-03 0. -1.
    9900012    2    1    2    0    0  0.24971366054E+01 -0.90647634656E+01  0.16194672717E+02  0.72461733625E+02  0.70000212768E+02 0.  0.
         12    1    1    2    0    0 -0.24971366054E+01  0.90647634656E+01 -0.16194672717E+02  0.18726266375E+02  0.00000000000E+00 0. -1.
         11    1    3    3    0    0  0.13529554265E+02  0.34442578967E+01 -0.18527355545E+02  0.23198591656E+02  0.51100000000E-03 0. -1.
        -11    1    3    3    0    0  0.45270138733E+01 -0.11904490951E+02  0.18240068331E+01  0.12866147854E+02  0.51100000000E-03 0.  1.
        -12    1    3    3    0    0 -0.15559431532E+02 -0.60453041121E+00  0.32898021430E+02  0.36396994115E+02  0.00000000000E+00 0.  1.
</event>
<event>
 7    1  0.2972263E-013  0.7246121E+02  0.7816164E-02  0.1226709E+00
        -11   -1    0    0    0    0  0.00000000000E+00  0.00000000000E+00  0.45593999997E+02  0.45594000000E+02  0.51100000000E-03 0. -1.
         11   -1    0    0    0    0 -0.00000000000E+00 -0.00000000000E+00 -0.45593999997E+02  0.45594000000E+02  0.51100000000E-03 0.  1.
    9900012    2    1    2    0    0  0.42102056483E+01  0.18040052664E+02  0.27428617988E+01  0.72461211098E+02  0.69999532078E+02 0.  0.
         12    1    1    2    0    0 -0.42102056483E+01 -0.18040052664E+02 -0.27428617988E+01  0.18726788902E+02  0.00000000000E+00 0. -1.
         11    1    3    3    0    0  0.22076757824E+02 -0.10110426851E+02  0.15881753866E+02  0.29014377009E+02  0.51100000000E-03 0. -1.
        -11    1    3    3    0    0  0.51560403929E+01  0.11798309099E+02 -0.17344644035E+01  0.12992044379E+02  0.51100000000E-03 0.  1.
        -12    1    3    3    0    0 -0.23022592569E+02  0.16352170417E+02 -0.11404427663E+02  0.30454789709E+02  0.00000000000E+00 0.  1.
</event>
<event>
 7    1  0.3490168E-013  0.7246155E+02  0.7816164E-02  0.1226708E+00
        -11   -1    0    0    0    0  0.00000000000E+00  0.00000000000E+00  0.45593999997E+02  0.45594000000E+02  0.51100000000E-03 0. -1.
         11   -1    0    0    0    0 -0.00000000000E+00 -0.00000000000E+00 -0.45593999997E+02  0.45594000000E+02  0.51100000000E-03 0.  1.
    9900012    2    1    2    0    0 -0.19822413944E+01  0.52630180352E+01 -0.17862005308E+02  0.72461551500E+02  0.69999975517E+02 0.  0.
         12    1    1    2    0    0  0.19822413944E+01 -0.52630180352E+01  0.17862005308E+02  0.18726448500E+02  0.00000000000E+00 0. -1.
         11    1    3    3    0    0  0.91732971253E+01 -0.23937476276E+00  0.91774159371E+01  0.12978121743E+02  0.51100000000E-03 0. -1.
        -11    1    3    3    0    0 -0.17843360506E+02  0.18192570358E+02  0.35203592521E+01  0.25724464230E+02  0.51100000000E-03 0.  1.
        -12    1    3    3    0    0  0.66878219861E+01 -0.12690177560E+02 -0.30559780498E+02  0.33758965528E+02  0.00000000000E+00 0.  1.
</event>
<event>
 7    1  0.2972263E-013  0.7246158E+02  0.7816164E-02  0.1226708E+00
        -11   -1    0    0    0    0  0.00000000000E+00  0.00000000000E+00  0.45593999997E+02  0.45594000000E+02  0.51100000000E-03 0.  1.
         11   -1    0    0    0    0 -0.00000000000E+00 -0.00000000000E+00 -0.45593999997E+02  0.45594000000E+02  0.51100000000E-03 0. -1.
    9900012    2    1    2    0    0  0.13016844976E+01  0.21493977045E+00  0.18679890508E+02  0.72461577730E+02  0.70000009687E+02 0.  0.
         12    1    1    2    0    0 -0.13016844976E+01 -0.21493977045E+00 -0.18679890508E+02  0.18726422270E+02  0.00000000000E+00 0. -1.
         11    1    3    3    0    0 -0.76983080855E+01  0.12185448022E+02 -0.12513047084E+01  0.14467717671E+02  0.51100000000E-03 0. -1.
        -11    1    3    3    0    0 -0.14430854224E+02 -0.10562040299E+01  0.27488000587E+02  0.31063729608E+02  0.51100000000E-03 0.  1.
         12    1    3    3    0    0  0.23430846807E+02 -0.10914304222E+02 -0.75568053712E+01  0.26930130452E+02  0.00000000000E+00 0. -1.
</event>
<event>
 7    1  0.2972263E-013  0.7246152E+02  0.7816164E-02  0.1226708E+00
        -11   -1    0    0    0    0  0.00000000000E+00  0.00000000000E+00  0.45593999997E+02  0.45594000000E+02  0.51100000000E-03 0.  1.
         11   -1    0    0    0    0 -0.00000000000E+00 -0.00000000000E+00 -0.45593999997E+02  0.45594000000E+02  0.51100000000E-03 0. -1.
    9900012    2    1    2    0    0 -0.26931708860E+01 -0.16072080469E+02  0.92258294971E+01  0.72461524893E+02  0.69999940856E+02 0.  0.
         12    1    1    2    0    0  0.26931708860E+01  0.16072080469E+02 -0.92258294971E+01  0.18726475107E+02  0.00000000000E+00 0. -1.
         11    1    3    3    0    0 -0.14896811147E+01 -0.13784747841E+01 -0.45323292648E+01  0.49660196717E+01  0.51100000000E-03 0. -1.
        -11    1    3    3    0    0  0.18745446329E+02 -0.32369385794E+02 -0.20548099549E+00  0.37406030496E+02  0.51100000000E-03 0.  1.
         12    1    3    3    0    0 -0.19948936100E+02  0.17675780108E+02  0.13963639757E+02  0.30089474725E+02  0.00000000000E+00 0. -1.
</event>
<event>
 7    1  0.2972263E-013  0.7246158E+02  0.7816164E-02  0.1226708E+00
        -11   -1    0    0    0    0  0.00000000000E+00  0.00000000000E+00  0.45593999997E+02  0.45594000000E+02  0.51100000000E-03 0. -1.
         11   -1    0    0    0    0 -0.00000000000E+00 -0.00000000000E+00 -0.45593999997E+02  0.45594000000E+02  0.51100000000E-03 0.  1.
    9900012    2    1    2    0    0  0.93386927642E+00  0.31487401360E+01 -0.18436164755E+02  0.72461578902E+02  0.70000011213E+02 0.  0.
         12    1    1    2    0    0 -0.93386927642E+00 -0.31487401360E+01  0.18436164755E+02  0.18726421098E+02  0.00000000000E+00 0. -1.
         11    1    3    3    0    0 -0.97382966921E+00  0.48636098991E+01 -0.11764757816E+01  0.50977584291E+01  0.51100000000E-03 0. -1.
        -11    1    3    3    0    0  0.14020473703E+01 -0.16883976566E+02  0.20543057959E+02  0.26628023435E+02  0.51100000000E-03 0.  1.
         12    1    3    3    0    0  0.50565157534E+00  0.15169106803E+02 -0.37802746932E+02  0.40735797038E+02  0.00000000000E+00 0. -1.
</event>
<event>
 7    1  0.2972263E-013  0.7246151E+02  0.7816164E-02  0.1226708E+00
        -11   -1    0    0    0    0  0.00000000000E+00  0.00000000000E+00  0.45593999997E+02  0.45594000000E+02  0.51100000000E-03 0.  1.
         11   -1    0    0    0    0 -0.00000000000E+00 -0.00000000000E+00 -0.45593999997E+02  0.45594000000E+02  0.51100000000E-03 0. -1.
    9900012    2    1    2    0    0  0.11472601404E+01  0.19015356767E+01  0.18594342349E+02  0.72461505103E+02  0.69999915076E+02 0.  0.
         12    1    1    2    0    0 -0.11472601404E+01 -0.19015356767E+01 -0.18594342349E+02  0.18726494897E+02  0.00000000000E+00 0. -1.
         11    1    3    3    0    0 -0.60863431793E+01  0.75844391721E+00 -0.63359384696E+01  0.88183290381E+01  0.51100000000E-03 0. -1.
        -11    1    3    3    0    0 -0.18982024960E+02  0.15690245074E+02 -0.36939523652E-01  0.24627269984E+02  0.51100000000E-03 0.  1.
         12    1    3    3    0    0  0.26215628280E+02 -0.14547153315E+02  0.24967220342E+02  0.39015906080E+02  0.00000000000E+00 0. -1.
</event>
<event>
 7    1  0.2972263E-013  0.7246167E+02  0.7816164E-02  0.1226708E+00
        -11   -1    0    0    0    0  0.00000000000E+00  0.00000000000E+00  0.45593999997E+02  0.45594000000E+02  0.51100000000E-03 0.  1.
         11   -1    0    0    0    0 -0.00000000000E+00 -0.00000000000E+00 -0.45593999997E+02  0.45594000000E+02  0.51100000000E-03 0. -1.
    9900012    2    1    2    0    0  0.66672841262E+01 -0.11354636871E+02  0.13315214246E+02  0.72461671302E+02  0.70000131581E+02 0.  0.
         12    1    1    2    0    0 -0.66672841262E+01  0.11354636871E+02 -0.13315214246E+02  0.18726328698E+02  0.00000000000E+00 0. -1.
         11    1    3    3    0    0 -0.12872100345E+02 -0.21617866597E+02 -0.19089429740E+01  0.25232264802E+02  0.51100000000E-03 0. -1.
        -11    1    3    3    0    0  0.26456825114E+01  0.24743485738E+01 -0.12961507047E+02  0.13458183459E+02  0.51100000000E-03 0.  1.
        -12    1    3    3    0    0  0.16893701960E+02  0.77888811525E+01  0.28185664268E+02  0.33771223041E+02  0.00000000000E+00 0.  1.
</event>
<event>
 7    1  0.2972263E-013  0.7246154E+02  0.7816164E-02  0.1226708E+00
        -11   -1    0    0    0    0  0.00000000000E+00  0.00000000000E+00  0.45593999997E+02  0.45594000000E+02  0.51100000000E-03 0.  1.
         11   -1    0    0    0    0 -0.00000000000E+00 -0.00000000000E+00 -0.45593999997E+02  0.45594000000E+02  0.51100000000E-03 0. -1.
    9900012    2    1    2    0    0  0.36528527344E+01  0.24355211966E+01  0.18204536994E+02  0.72461541077E+02  0.69999961940E+02 0.  0.
         12    1    1    2    0    0 -0.36528527344E+01 -0.24355211966E+01 -0.18204536994E+02  0.18726458923E+02  0.00000000000E+00 0. -1.
         11    1    3    3    0    0 -0.57978295078E+01  0.57705428379E+01 -0.94622120465E+01  0.12507895455E+02  0.51100000000E-03 0. -1.
        -11    1    3    3    0    0  0.15207349828E+02  0.21599526817E+02  0.20326714844E+02  0.33331342369E+02  0.51100000000E-03 0.  1.
         12    1    3    3    0    0 -0.57566675860E+01 -0.24934548458E+02  0.73400341969E+01  0.26622303253E+02  0.00000000000E+00 0. -1.
</event>
<event>
 7    1  0.2972263E-013  0.7246148E+02  0.7816164E-02  0.1226708E+00
        -11   -1    0    0    0    0  0.00000000000E+00  0.00000000000E+00  0.45593999997E+02  0.45594000000E+02  0.51100000000E-03 0. -1.
         11   -1    0    0    0    0 -0.00000000000E+00 -0.00000000000E+00 -0.45593999997E+02  0.45594000000E+02  0.51100000000E-03 0.  1.
    9900012    2    1    2    0    0  0.46632726202E+01 -0.14357440262E+02 -0.11081523444E+02  0.72461484995E+02  0.69999888881E+02 0.  0.
         12    1    1    2    0    0 -0.46632726202E+01  0.14357440262E+02  0.11081523444E+02  0.18726515005E+02  0.00000000000E+00 0. -1.
         11    1    3    3    0    0 -0.70198738351E+01 -0.57932414209E+01 -0.66437517763E+01  0.11268527532E+02  0.51100000000E-03 0.  1.
        -11    1    3    3    0    0 -0.33374086371E+01  0.24280523385E+02 -0.52613548534E+01  0.25067189061E+02  0.51100000000E-03 0. -1.
         12    1    3    3    0    0  0.15020555092E+02 -0.32844722225E+02  0.82358318549E+00  0.36125768402E+02  0.00000000000E+00 0. -1.
</event>
<event>
 7    1  0.2972263E-013  0.7246156E+02  0.7816164E-02  0.1226708E+00
        -11   -1    0    0    0    0  0.00000000000E+00  0.00000000000E+00  0.45593999997E+02  0.45594000000E+02  0.51100000000E-03 0. -1.
         11   -1    0    0    0    0 -0.00000000000E+00 -0.00000000000E+00 -0.45593999997E+02  0.45594000000E+02  0.51100000000E-03 0.  1.
    9900012    2    1    2    0    0 -0.35186747400E+01  0.18392881049E+02  0.15216328267E-01  0.72461564762E+02  0.69999992792E+02 0.  0.
         12    1    1    2    0    0  0.35186747400E+01 -0.18392881049E+02 -0.15216328267E-01  0.18726435238E+02  0.00000000000E+00 0. -1.
         11    1    3    3    0    0  0.11286384488E+00 -0.97397650053E+01  0.25819109003E+01  0.10076806278E+02  0.51100000000E-03 0. -1.
        -11    1    3    3    0    0  0.22348365928E+02  0.36798289197E+01 -0.11789991587E+02  0.25534183018E+02  0.51100000000E-03 0.  1.
         12    1    3    3    0    0 -0.25979904513E+02  0.24452817135E+02  0.92232970152E+01  0.36850575465E+02  0.00000000000E+00 0. -1.
</event>
<event>
 7    1  0.2972263E-013  0.7246160E+02  0.7816164E-02  0.1226708E+00
        -11   -1    0    0    0    0  0.00000000000E+00  0.00000000000E+00  0.45593999997E+02  0.45594000000E+02  0.51100000000E-03 0. -1.
         11   -1    0    0    0    0 -0.00000000000E+00 -0.00000000000E+00 -0.45593999997E+02  0.45594000000E+02  0.51100000000E-03 0.  1.
    9900012    2    1    2    0    0  0.37117793008E+01 -0.67249073896E+01 -0.17078533225E+02  0.72461601999E+02  0.70000041302E+02 0.  0.
         12    1    1    2    0    0 -0.37117793008E+01  0.67249073896E+01  0.17078533225E+02  0.18726398001E+02  0.00000000000E+00 0. -1.
         11    1    3    3    0    0 -0.24489941018E+02  0.10497960976E+02 -0.16752521879E+02  0.31473979496E+02  0.51100000000E-03 0. -1.
        -11    1    3    3    0    0  0.17001757356E+01  0.46043370500E+01  0.40675391740E+01  0.63745895864E+01  0.51100000000E-03 0.  1.
        -12    1    3    3    0    0  0.26501544584E+02 -0.21827205415E+02 -0.43935505198E+01  0.34613032917E+02  0.00000000000E+00 0.  1.
</event>
<event>
 7    1  0.2972263E-013  0.7246148E+02  0.7816164E-02  0.1226708E+00
        -11   -1    0    0    0    0  0.00000000000E+00  0.00000000000E+00  0.45593999997E+02  0.45594000000E+02  0.51100000000E-03 0. -1.
         11   -1    0    0    0    0 -0.00000000000E+00 -0.00000000000E+00 -0.45593999997E+02  0.45594000000E+02  0.51100000000E-03 0.  1.
    9900012    2    1    2    0    0  0.75851925741E+01 -0.15992655273E+02 -0.61141113643E+01  0.72461480653E+02  0.69999883226E+02 0.  0.
         12    1    1    2    0    0 -0.75851925741E+01  0.15992655273E+02  0.61141113643E+01  0.18726519347E+02  0.00000000000E+00 0. -1.
         11    1    3    3    0    0  0.17391691529E+02  0.66464811270E+01 -0.18853486700E+02  0.26497181107E+02  0.51100000000E-03 0. -1.
        -11    1    3    3    0    0  0.93029742710E+01  0.49976664207E+01  0.32810365288E+01  0.11058354349E+02  0.51100000000E-03 0.  1.
        -12    1    3    3    0    0 -0.19109473226E+02 -0.27636802821E+02  0.94583388067E+01  0.34905945197E+02  0.00000000000E+00 0.  1.
</event>
<event>
 7    1  0.2972263E-013  0.7246162E+02  0.7816164E-02  0.1226708E+00
        -11   -1    0    0    0    0  0.00000000000E+00  0.00000000000E+00  0.45593999997E+02  0.45594000000E+02  0.51100000000E-03 0.  1.
         11   -1    0    0    0    0 -0.00000000000E+00 -0.00000000000E+00 -0.45593999997E+02  0.45594000000E+02  0.51100000000E-03 0. -1.
    9900012    2    1    2    0    0 -0.12687350704E+02  0.35977623970E+01 -0.13295289596E+02  0.72461615202E+02  0.70000058501E+02 0.  0.
         12    1    1    2    0    0  0.12687350704E+02 -0.35977623970E+01  0.13295289596E+02  0.18726384798E+02  0.00000000000E+00 0. -1.
         11    1    3    3    0    0  0.13336849431E+01 -0.72731776537E+01 -0.21346869402E+02  0.22591296162E+02  0.51100000000E-03 0. -1.
        -11    1    3    3    0    0  0.11000852884E+02 -0.81990480163E+01 -0.65300847092E+01  0.15194905696E+02  0.51100000000E-03 0.  1.
        -12    1    3    3    0    0 -0.25021888531E+02  0.19069988067E+02  0.14581664516E+02  0.34675413344E+02  0.00000000000E+00 0.  1.
</event>
<event>
 7    1  0.2972263E-013  0.7246159E+02  0.7816164E-02  0.1226708E+00
        -11   -1    0    0    0    0  0.00000000000E+00  0.00000000000E+00  0.45593999997E+02  0.45594000000E+02  0.51100000000E-03 0. -1.
         11   -1    0    0    0    0 -0.00000000000E+00 -0.00000000000E+00 -0.45593999997E+02  0.45594000000E+02  0.51100000000E-03 0.  1.
    9900012    2    1    2    0    0  0.13844567629E+02 -0.92675342804E+01 -0.85509783941E+01  0.72461588812E+02  0.70000024123E+02 0.  0.
         12    1    1    2    0    0 -0.13844567629E+02  0.92675342804E+01  0.85509783941E+01  0.18726411188E+02  0.00000000000E+00 0. -1.
         11    1    3    3    0    0 -0.39270004991E+01  0.11789451789E+02 -0.89036973978E+01  0.15286868025E+02  0.51100000000E-03 0. -1.
        -11    1    3    3    0    0 -0.14400321070E+02  0.42484039430E+01  0.53512523286E+01  0.15939074149E+02  0.51100000000E-03 0.  1.
         12    1    3    3    0    0  0.32171889199E+02 -0.25305390012E+02 -0.49985333249E+01  0.41235646638E+02  0.00000000000E+00 0. -1.
</event>
<event>
 7    1  0.2972263E-013  0.7246155E+02  0.7816164E-02  0.1226708E+00
        -11   -1    0    0    0    0  0.00000000000E+00  0.00000000000E+00  0.45593999997E+02  0.45594000000E+02  0.51100000000E-03 0. -1.
         11   -1    0    0    0    0 -0.00000000000E+00 -0.00000000000E+00 -0.45593999997E+02  0.45594000000E+02  0.51100000000E-03 0.  1.
    9900012    2    1    2    0    0  0.47729973390E+01 -0.18023956784E+01 -0.18018037163E+02  0.72461553541E+02  0.69999978175E+02 0.  0.
         12    1    1    2    0    0 -0.47729973390E+01  0.18023956784E+01  0.18018037163E+02  0.18726446459E+02  0.00000000000E+00 0. -1.
         11    1    3    3    0    0  0.17212871059E+02 -0.20247051456E+01  0.46918650786E+01  0.17955388027E+02  0.51100000000E-03 0. -1.
        -11    1    3    3    0    0  0.96828850808E+01  0.35413138733E+01 -0.29401191128E+02  0.31156527526E+02  0.51100000000E-03 0.  1.
         12    1    3    3    0    0 -0.22122758801E+02 -0.33190044061E+01  0.66912888867E+01  0.23349637988E+02  0.00000000000E+00 0. -1.
</event>
<event>
 7    1  0.2972263E-013  0.7246155E+02  0.7816164E-02  0.1226708E+00
        -11   -1    0    0    0    0  0.00000000000E+00  0.00000000000E+00  0.45593999997E+02  0.45594000000E+02  0.51100000000E-03 0. -1.
         11   -1    0    0    0    0 -0.00000000000E+00 -0.00000000000E+00 -0.45593999997E+02  0.45594000000E+02  0.51100000000E-03 0.  1.
    9900012    2    1    2    0    0  0.66383401952E+00 -0.53298005755E+01 -0.17939692414E+02  0.72461547755E+02  0.69999970638E+02 0.  0.
         12    1    1    2    0    0 -0.66383401952E+00  0.53298005755E+01  0.17939692414E+02  0.18726452245E+02  0.00000000000E+00 0. -1.
         11    1    3    3    0    0 -0.98648276274E+00  0.39659558622E+01  0.11267488116E+02  0.11985751660E+02  0.51100000000E-03 0. -1.
        -11    1    3    3    0    0 -0.16687911869E+02 -0.38844516476E+01 -0.36253691385E+02  0.40098697066E+02  0.51100000000E-03 0.  1.
         12    1    3    3    0    0  0.18338228651E+02 -0.54113047902E+01  0.70465108544E+01  0.20377099029E+02  0.00000000000E+00 0. -1.
</event>
<event>
 7    1  0.2972263E-013  0.7246159E+02  0.7816164E-02  0.1226708E+00
        -11   -1    0    0    0    0  0.00000000000E+00  0.00000000000E+00  0.45593999997E+02  0.45594000000E+02  0.51100000000E-03 0.  1.
         11   -1    0    0    0    0 -0.00000000000E+00 -0.00000000000E+00 -0.45593999997E+02  0.45594000000E+02  0.51100000000E-03 0. -1.
    9900012    2    1    2    0    0  0.17109361021E+02 -0.35815130514E+01 -0.67172136333E+01  0.72461590059E+02  0.70000025748E+02 0.  0.
         12    1    1    2    0    0 -0.17109361021E+02  0.35815130514E+01  0.67172136333E+01  0.18726409941E+02  0.00000000000E+00 0. -1.
         11    1    3    3    0    0  0.24947170821E+02 -0.60753126591E+01 -0.19530764316E+02  0.32260215606E+02  0.51100000000E-03 0. -1.
        -11    1    3    3    0    0  0.94621320758E+01 -0.11377160937E+02  0.99761946842E+01  0.17846461695E+02  0.51100000000E-03 0.  1.
         12    1    3    3    0    0 -0.17299941877E+02  0.13870960544E+02  0.28373559989E+01  0.22354912758E+02  0.00000000000E+00 0. -1.
</event>
<event>
 7    1  0.2972263E-013  0.7246155E+02  0.7816164E-02  0.1226708E+00
        -11   -1    0    0    0    0  0.00000000000E+00  0.00000000000E+00  0.45593999997E+02  0.45594000000E+02  0.51100000000E-03 0.  1.
         11   -1    0    0    0    0 -0.00000000000E+00 -0.00000000000E+00 -0.45593999997E+02  0.45594000000E+02  0.51100000000E-03 0. -1.
    9900012    2    1    2    0    0  0.11420093313E+02 -0.53332714568E+01  0.13849819237E+02  0.72461553231E+02  0.69999977771E+02 0.  0.
         12    1    1    2    0    0 -0.11420093313E+02  0.53332714568E+01 -0.13849819237E+02  0.18726446769E+02  0.00000000000E+00 0. -1.
         11    1    3    3    0    0  0.79815301901E+01  0.18563299521E+02 -0.33773007689E+01  0.20486753624E+02  0.51100000000E-03 0. -1.
        -11    1    3    3    0    0  0.66604522575E+01  0.10640696501E+02 -0.13508353891E+01  0.12625799096E+02  0.51100000000E-03 0.  1.
         12    1    3    3    0    0 -0.32218891343E+01 -0.34537267479E+02  0.18577955395E+02  0.39349000511E+02  0.00000000000E+00 0. -1.
</event>
<event>
 7    1  0.2972263E-013  0.7246159E+02  0.7816164E-02  0.1226708E+00
        -11   -1    0    0    0    0  0.00000000000E+00  0.00000000000E+00  0.45593999997E+02  0.45594000000E+02  0.51100000000E-03 0. -1.
         11   -1    0    0    0    0 -0.00000000000E+00 -0.00000000000E+00 -0.45593999997E+02  0.45594000000E+02  0.51100000000E-03 0.  1.
    9900012    2    1    2    0    0 -0.96532612008E+01 -0.40162914688E+01 -0.15535836756E+02  0.72461594240E+02  0.70000031194E+02 0.  0.
         12    1    1    2    0    0  0.96532612008E+01  0.40162914688E+01  0.15535836756E+02  0.18726405760E+02  0.00000000000E+00 0. -1.
         11    1    3    3    0    0 -0.22628628824E+02 -0.12739556707E+02  0.12954172272E+02  0.29020022865E+02  0.51100000000E-03 0. -1.
        -11    1    3    3    0    0  0.37652566542E+01 -0.91724162937E+01 -0.19037875262E+01  0.10096275825E+02  0.51100000000E-03 0.  1.
        -12    1    3    3    0    0  0.92101109694E+01  0.17895681532E+02 -0.26586221502E+02  0.33345295550E+02  0.00000000000E+00 0.  1.
</event>
<event>
 7    1  0.2972263E-013  0.7246155E+02  0.7816164E-02  0.1226708E+00
        -11   -1    0    0    0    0  0.00000000000E+00  0.00000000000E+00  0.45593999997E+02  0.45594000000E+02  0.51100000000E-03 0.  1.
         11   -1    0    0    0    0 -0.00000000000E+00 -0.00000000000E+00 -0.45593999997E+02  0.45594000000E+02  0.51100000000E-03 0. -1.
    9900012    2    1    2    0    0 -0.31442730871E+01  0.17367587072E+02  0.62578254686E+01  0.72461550429E+02  0.69999974121E+02 0.  0.
         12    1    1    2    0    0  0.31442730871E+01 -0.17367587072E+02 -0.62578254686E+01  0.18726449571E+02  0.00000000000E+00 0. -1.
         11    1    3    3    0    0  0.25839863546E+02 -0.50213265598E+01 -0.41160867265E+01  0.26643093639E+02  0.51100000000E-03 0. -1.
        -11    1    3    3    0    0  0.76948689184E+00 -0.41581957470E+01  0.32000946291E+01  0.53031413184E+01  0.51100000000E-03 0.  1.
         12    1    3    3    0    0 -0.29753623525E+02  0.26547109379E+02  0.71738175660E+01  0.40515315471E+02  0.00000000000E+00 0. -1.
</event>
<event>
 7    1  0.2972263E-013  0.7246155E+02  0.7816164E-02  0.1226708E+00
        -11   -1    0    0    0    0  0.00000000000E+00  0.00000000000E+00  0.45593999997E+02  0.45594000000E+02  0.51100000000E-03 0. -1.
         11   -1    0    0    0    0 -0.00000000000E+00 -0.00000000000E+00 -0.45593999997E+02  0.45594000000E+02  0.51100000000E-03 0.  1.
    9900012    2    1    2    0    0  0.75087009777E+01  0.14306158116E+02 -0.94674777294E+01  0.72461551192E+02  0.69999975115E+02 0.  0.
         12    1    1    2    0    0 -0.75087009777E+01 -0.14306158116E+02  0.94674777294E+01  0.18726448808E+02  0.00000000000E+00 0. -1.
         11    1    3    3    0    0  0.44101228244E+01  0.42059202098E+01  0.12410776964E+01  0.62192621947E+01  0.51100000000E-03 0. -1.
        -11    1    3    3    0    0 -0.21261782897E+01  0.25829292692E+02  0.19060022285E+02  0.32170754496E+02  0.51100000000E-03 0.  1.
        -12    1    3    3    0    0  0.52247564430E+01 -0.15729054786E+02 -0.29768577711E+02  0.34071534501E+02  0.00000000000E+00 0.  1.
</event>
<event>
 7    1  0.2972263E-013  0.7246158E+02  0.7816164E-02  0.1226708E+00
        -11   -1    0    0    0    0  0.00000000000E+00  0.00000000000E+00  0.45593999997E+02  0.45594000000E+02  0.51100000000E-03 0.  1.
         11   -1    0    0    0    0 -0.00000000000E+00 -0.00000000000E+00 -0.45593999997E+02  0.45594000000E+02  0.51100000000E-03 0. -1.
    9900012    2    1    2    0    0  0.15504296033E+02 -0.38242858780E+01  0.97811308154E+01  0.72461578079E+02  0.70000010141E+02 0.  0.
         12    1    1    2    0    0 -0.15504296033E+02  0.38242858780E+01 -0.97811308154E+01  0.18726421921E+02  0.00000000000E+00 0. -1.
         11    1    3    3    0    0  0.79353317410E+01  0.94180180409E+01 -0.56891320616E+01  0.13565941823E+02  0.51100000000E-03 0. -1.
        -11    1    3    3    0    0  0.12547999331E+02  0.17771485674E+02  0.16753842910E+02  0.27458500373E+02  0.51100000000E-03 0.  1.
        -12    1    3    3    0    0 -0.49790350392E+01 -0.31013789593E+02 -0.12835800327E+01  0.31437135883E+02  0.00000000000E+00 0.  1.
</event>
<event>
 7    1  0.2972263E-013  0.7246163E+02  0.7816164E-02  0.1226708E+00
        -11   -1    0    0    0    0  0.00000000000E+00  0.00000000000E+00  0.45593999997E+02  0.45594000000E+02  0.51100000000E-03 0.  1.
         11   -1    0    0    0    0 -0.00000000000E+00 -0.00000000000E+00 -0.45593999997E+02  0.45594000000E+02  0.51100000000E-03 0. -1.
    9900012    2    1    2    0    0  0.57766538554E+01 -0.14996036537E+02  0.96138393663E+01  0.72461634924E+02  0.70000084193E+02 0.  0.
         12    1    1    2    0    0 -0.57766538554E+01  0.14996036537E+02 -0.96138393663E+01  0.18726365076E+02  0.00000000000E+00 0. -1.
         11    1    3    3    0    0  0.28557397464E+01 -0.11220539261E+02 -0.11398473086E+02  0.16247490260E+02  0.51100000000E-03 0. -1.
        -11    1    3    3    0    0  0.16226947060E+02 -0.22306738906E+02  0.18608480652E+02  0.33274313876E+02  0.51100000000E-03 0.  1.
         12    1    3    3    0    0 -0.13306032951E+02  0.18531241630E+02  0.24038318008E+01  0.22939830788E+02  0.00000000000E+00 0. -1.
</event>
<event>
 7    1  0.2972263E-013  0.7246168E+02  0.7816164E-02  0.1226708E+00
        -11   -1    0    0    0    0  0.00000000000E+00  0.00000000000E+00  0.45593999997E+02  0.45594000000E+02  0.51100000000E-03 0. -1.
         11   -1    0    0    0    0 -0.00000000000E+00 -0.00000000000E+00 -0.45593999997E+02  0.45594000000E+02  0.51100000000E-03 0.  1.
    9900012    2    1    2    0    0  0.14547544931E+02  0.11791541481E+02  0.58736135813E-01  0.72461682584E+02  0.70000146278E+02 0.  0.
         12    1    1    2    0    0 -0.14547544931E+02 -0.11791541481E+02 -0.58736135813E-01  0.18726317416E+02  0.00000000000E+00 0. -1.
         11    1    3    3    0    0  0.29912906246E+02  0.42229778571E+01 -0.10836523043E+02  0.32094325573E+02  0.51100000000E-03 0. -1.
        -11    1    3    3    0    0  0.10716399389E+02  0.64184980476E+01  0.13258282454E+01  0.12561693908E+02  0.51100000000E-03 0.  1.
         12    1    3    3    0    0 -0.26081760703E+02  0.11500655760E+01  0.95694309337E+01  0.27805663103E+02  0.00000000000E+00 0. -1.
</event>
<event>
 7    1  0.2972263E-013  0.7246153E+02  0.7816164E-02  0.1226708E+00
        -11   -1    0    0    0    0  0.00000000000E+00  0.00000000000E+00  0.45593999997E+02  0.45594000000E+02  0.51100000000E-03 0.  1.
         11   -1    0    0    0    0 -0.00000000000E+00 -0.00000000000E+00 -0.45593999997E+02  0.45594000000E+02  0.51100000000E-03 0. -1.
    9900012    2    1    2    0    0 -0.99668320268E+01  0.38929433075E+00  0.15849014751E+02  0.72461533187E+02  0.69999951661E+02 0.  0.
         12    1    1    2    0    0  0.99668320268E+01 -0.38929433075E+00 -0.15849014751E+02  0.18726466813E+02  0.00000000000E+00 0. -1.
         11    1    3    3    0    0  0.10264210215E+02 -0.13805388040E+02  0.28774697985E+02  0.33525005514E+02  0.51100000000E-03 0. -1.
        -11    1    3    3    0    0 -0.80540590121E+01  0.61772280711E+01  0.83509708127E+01  0.13143999657E+02  0.51100000000E-03 0.  1.
         12    1    3    3    0    0 -0.12176983230E+02  0.80174543002E+01 -0.21276654047E+02  0.25792528016E+02  0.00000000000E+00 0. -1.
</event>
<event>
 7    1  0.2972263E-013  0.7246149E+02  0.7816164E-02  0.1226708E+00
        -11   -1    0    0    0    0  0.00000000000E+00  0.00000000000E+00  0.45593999997E+02  0.45594000000E+02  0.51100000000E-03 0.  1.
         11   -1    0    0    0    0 -0.00000000000E+00 -0.00000000000E+00 -0.45593999997E+02  0.45594000000E+02  0.51100000000E-03 0. -1.
    9900012    2    1    2    0    0  0.34864777204E+01  0.17780695868E+02 -0.47300689327E+01  0.72461488725E+02  0.69999893741E+02 0.  0.
         12    1    1    2    0    0 -0.34864777204E+01 -0.17780695868E+02  0.47300689327E+01  0.18726511275E+02  0.00000000000E+00 0. -1.
         11    1    3    3    0    0 -0.21851504547E+02  0.28653834479E+02 -0.66566930556E+01  0.36644809237E+02  0.51100000000E-03 0. -1.
        -11    1    3    3    0    0 -0.15472081105E+00  0.34764847555E+01  0.53300557709E+01  0.63654834511E+01  0.51100000000E-03 0.  1.
         12    1    3    3    0    0  0.25492703078E+02 -0.14349623367E+02 -0.34034316480E+01  0.29451196037E+02  0.00000000000E+00 0. -1.
</event>
<event>
 7    1  0.2972263E-013  0.7246159E+02  0.7816164E-02  0.1226708E+00
        -11   -1    0    0    0    0  0.00000000000E+00  0.00000000000E+00  0.45593999997E+02  0.45594000000E+02  0.51100000000E-03 0.  1.
         11   -1    0    0    0    0 -0.00000000000E+00 -0.00000000000E+00 -0.45593999997E+02  0.45594000000E+02  0.51100000000E-03 0. -1.
    9900012    2    1    2    0    0  0.29969995619E+01  0.72548873988E+01  0.17001849722E+02  0.72461593737E+02  0.70000030539E+02 0.  0.
         12    1    1    2    0    0 -0.29969995619E+01 -0.72548873988E+01 -0.17001849722E+02  0.18726406263E+02  0.00000000000E+00 0. -1.
         11    1    3    3    0    0 -0.16023289549E+02  0.30226385816E+02 -0.28746918795E+01  0.34331385948E+02  0.51100000000E-03 0. -1.
        -11    1    3    3    0    0  0.54021389085E+01 -0.16690220562E+02  0.10668130907E+02  0.20531818831E+02  0.51100000000E-03 0.  1.
        -12    1    3    3    0    0  0.13618150202E+02 -0.62812778551E+01  0.92084106949E+01  0.17598388959E+02  0.00000000000E+00 0.  1.
</event>
<event>
 7    1  0.2972263E-013  0.7246185E+02  0.7816164E-02  0.1226707E+00
        -11   -1    0    0    0    0  0.00000000000E+00  0.00000000000E+00  0.45593999997E+02  0.45594000000E+02  0.51100000000E-03 0. -1.
         11   -1    0    0    0    0 -0.00000000000E+00 -0.00000000000E+00 -0.45593999997E+02  0.45594000000E+02  0.51100000000E-03 0.  1.
    9900012    2    1    2    0    0 -0.10053416180E+02  0.18046640838E+01 -0.15695241098E+02  0.72461852973E+02  0.70000368241E+02 0.  0.
         12    1    1    2    0    0  0.10053416180E+02 -0.18046640838E+01  0.15695241098E+02  0.18726147027E+02  0.00000000000E+00 0. -1.
         11    1    3    3    0    0 -0.12426732287E+02  0.16529569543E+02  0.74355724308E+01  0.21975852253E+02  0.51100000000E-03 0. -1.
        -11    1    3    3    0    0 -0.93850592313E+01 -0.34796618429E+01  0.96411968522E+01  0.13897483956E+02  0.51100000000E-03 0.  1.
        -12    1    3    3    0    0  0.11758375338E+02 -0.11245243616E+02 -0.32772010381E+02  0.36588516764E+02  0.00000000000E+00 0.  1.
</event>
<event>
 7    1  0.2972263E-013  0.7246155E+02  0.7816164E-02  0.1226708E+00
        -11   -1    0    0    0    0  0.00000000000E+00  0.00000000000E+00  0.45593999997E+02  0.45594000000E+02  0.51100000000E-03 0. -1.
         11   -1    0    0    0    0 -0.00000000000E+00 -0.00000000000E+00 -0.45593999997E+02  0.45594000000E+02  0.51100000000E-03 0.  1.
    9900012    2    1    2    0    0  0.11610037789E+02 -0.14504182785E+02  0.23485255679E+01  0.72461551643E+02  0.69999975704E+02 0.  0.
         12    1    1    2    0    0 -0.11610037789E+02  0.14504182785E+02 -0.23485255679E+01  0.18726448357E+02  0.00000000000E+00 0. -1.
         11    1    3    3    0    0  0.29681463911E+02  0.72839116773E+01  0.30393502172E+01  0.30712901511E+02  0.51100000000E-03 0. -1.
        -11    1    3    3    0    0  0.31083387247E+01  0.59159884441E+01  0.13442182735E+01  0.68167156260E+01  0.51100000000E-03 0.  1.
        -12    1    3    3    0    0 -0.21179764847E+02 -0.27704082906E+02 -0.20350429227E+01  0.34931934506E+02  0.00000000000E+00 0.  1.
</event>
<event>
 7    1  0.2972263E-013  0.7246148E+02  0.7816164E-02  0.1226708E+00
        -11   -1    0    0    0    0  0.00000000000E+00  0.00000000000E+00  0.45593999997E+02  0.45594000000E+02  0.51100000000E-03 0. -1.
         11   -1    0    0    0    0 -0.00000000000E+00 -0.00000000000E+00 -0.45593999997E+02  0.45594000000E+02  0.51100000000E-03 0.  1.
    9900012    2    1    2    0    0 -0.62398547401E-01  0.18586687255E+02 -0.22833636418E+01  0.72461479068E+02  0.69999881161E+02 0.  0.
         12    1    1    2    0    0  0.62398547401E-01 -0.18586687255E+02  0.22833636418E+01  0.18726520932E+02  0.00000000000E+00 0. -1.
         11    1    3    3    0    0  0.16196391852E+01 -0.13756272172E+02  0.16854396329E+02  0.21815795448E+02  0.51100000000E-03 0. -1.
        -11    1    3    3    0    0 -0.35512381040E+01 -0.47007185715E+01  0.38230939315E+01  0.70231114636E+01  0.51100000000E-03 0.  1.
        -12    1    3    3    0    0  0.18692003715E+01  0.37043677998E+02 -0.22960853903E+02  0.43622572157E+02  0.00000000000E+00 0.  1.
</event>
<event>
 7    1  0.2972263E-013  0.7246153E+02  0.7816164E-02  0.1226708E+00
        -11   -1    0    0    0    0  0.00000000000E+00  0.00000000000E+00  0.45593999997E+02  0.45594000000E+02  0.51100000000E-03 0.  1.
         11   -1    0    0    0    0 -0.00000000000E+00 -0.00000000000E+00 -0.45593999997E+02  0.45594000000E+02  0.51100000000E-03 0. -1.
    9900012    2    1    2    0    0  0.79902917484E+00 -0.17268774444E+02  0.71994332491E+01  0.72461525224E+02  0.69999941288E+02 0.  0.
         12    1    1    2    0    0 -0.79902917484E+00  0.17268774444E+02 -0.71994332491E+01  0.18726474776E+02  0.00000000000E+00 0. -1.
         11    1    3    3    0    0  0.22334992468E+02  0.52809386615E+01  0.10315149160E-01  0.22950823696E+02  0.51100000000E-03 0. -1.
        -11    1    3    3    0    0  0.10241539979E+02 -0.11181800447E+02  0.34839889985E+01  0.15558276960E+02  0.51100000000E-03 0.  1.
         12    1    3    3    0    0 -0.31777503271E+02 -0.11367912659E+02  0.37051291014E+01  0.33952424568E+02  0.00000000000E+00 0. -1.
</event>
<event>
 7    1  0.2972263E-013  0.7246158E+02  0.7816164E-02  0.1226708E+00
        -11   -1    0    0    0    0  0.00000000000E+00  0.00000000000E+00  0.45593999997E+02  0.45594000000E+02  0.51100000000E-03 0. -1.
         11   -1    0    0    0    0 -0.00000000000E+00 -0.00000000000E+00 -0.45593999997E+02  0.45594000000E+02  0.51100000000E-03 0.  1.
    9900012    2    1    2    0    0  0.15474350495E+00  0.15922724475E+02 -0.98550281515E+01  0.72461583361E+02  0.70000017022E+02 0.  0.
         12    1    1    2    0    0 -0.15474350495E+00 -0.15922724475E+02  0.98550281515E+01  0.18726416639E+02  0.00000000000E+00 0. -1.
         11    1    3    3    0    0  0.70828171550E+01  0.17518649245E+02 -0.37656155534E+01  0.19267828912E+02  0.51100000000E-03 0. -1.
        -11    1    3    3    0    0  0.83679755479E+01  0.17937322441E+02 -0.16999476177E+02  0.26091238792E+02  0.51100000000E-03 0.  1.
        -12    1    3    3    0    0 -0.15296049198E+02 -0.19533247211E+02  0.10910063579E+02  0.27102515658E+02  0.00000000000E+00 0.  1.
</event>
<event>
 7    1  0.2972263E-013  0.7246157E+02  0.7816164E-02  0.1226708E+00
        -11   -1    0    0    0    0  0.00000000000E+00  0.00000000000E+00  0.45593999997E+02  0.45594000000E+02  0.51100000000E-03 0.  1.
         11   -1    0    0    0    0 -0.00000000000E+00 -0.00000000000E+00 -0.45593999997E+02  0.45594000000E+02  0.51100000000E-03 0. -1.
    9900012    2    1    2    0    0 -0.12778061167E+02  0.12447456588E+02  0.56974621367E+01  0.72461572217E+02  0.70000002505E+02 0.  0.
         12    1    1    2    0    0  0.12778061167E+02 -0.12447456588E+02 -0.56974621367E+01  0.18726427783E+02  0.00000000000E+00 0. -1.
         11    1    3    3    0    0  0.35520171657E+00  0.25792181441E+02 -0.15288417364E+02  0.29984971194E+02  0.51100000000E-03 0. -1.
        -11    1    3    3    0    0  0.10217890680E+02 -0.39009938507E+00  0.59616050932E+01  0.11836308674E+02  0.51100000000E-03 0.  1.
        -12    1    3    3    0    0 -0.23351153564E+02 -0.12954625468E+02  0.15024274407E+02  0.30640292349E+02  0.00000000000E+00 0.  1.
</event>
<event>
 7    1  0.2972263E-013  0.7246170E+02  0.7816164E-02  0.1226708E+00
        -11   -1    0    0    0    0  0.00000000000E+00  0.00000000000E+00  0.45593999997E+02  0.45594000000E+02  0.51100000000E-03 0.  1.
         11   -1    0    0    0    0 -0.00000000000E+00 -0.00000000000E+00 -0.45593999997E+02  0.45594000000E+02  0.51100000000E-03 0. -1.
    9900012    2    1    2    0    0 -0.12468336334E+02  0.87255206232E+01  0.10912392187E+02  0.72461696993E+02  0.70000165049E+02 0.  0.
         12    1    1    2    0    0  0.12468336334E+02 -0.87255206232E+01 -0.10912392187E+02  0.18726303007E+02  0.00000000000E+00 0. -1.
         11    1    3    3    0    0  0.53399779002E+01 -0.77919243907E+01  0.79850294450E+01  0.12368918513E+02  0.51100000000E-03 0. -1.
        -11    1    3    3    0    0 -0.53824052543E+01 -0.37751076581E+01  0.26078182594E+02  0.26894113330E+02  0.51100000000E-03 0.  1.
         12    1    3    3    0    0 -0.12425908979E+02  0.20292552672E+02 -0.23150819852E+02  0.33198665150E+02  0.00000000000E+00 0. -1.
</event>
<event>
 7    1  0.2972263E-013  0.7246156E+02  0.7816164E-02  0.1226708E+00
        -11   -1    0    0    0    0  0.00000000000E+00  0.00000000000E+00  0.45593999997E+02  0.45594000000E+02  0.51100000000E-03 0.  1.
         11   -1    0    0    0    0 -0.00000000000E+00 -0.00000000000E+00 -0.45593999997E+02  0.45594000000E+02  0.51100000000E-03 0. -1.
    9900012    2    1    2    0    0  0.16860888820E+02  0.15494983385E+01  0.79993258588E+01  0.72461555300E+02  0.69999980467E+02 0.  0.
         12    1    1    2    0    0 -0.16860888820E+02 -0.15494983385E+01 -0.79993258588E+01  0.18726444700E+02  0.00000000000E+00 0. -1.
         11    1    3    3    0    0 -0.20199780259E+02 -0.23295542953E+01 -0.76226850636E+01  0.21715507675E+02  0.51100000000E-03 0. -1.
        -11    1    3    3    0    0  0.19059668648E+02 -0.25563268522E+01 -0.75911831351E+01  0.20674424722E+02  0.51100000000E-03 0.  1.
        -12    1    3    3    0    0  0.18001000431E+02  0.64353794860E+01  0.23213194058E+02  0.30071622903E+02  0.00000000000E+00 0.  1.
</event>
<event>
 7    1  0.3046076E-013  0.7246154E+02  0.7816164E-02  0.1226708E+00
        -11   -1    0    0    0    0  0.00000000000E+00  0.00000000000E+00  0.45593999997E+02  0.45594000000E+02  0.51100000000E-03 0. -1.
         11   -1    0    0    0    0 -0.00000000000E+00 -0.00000000000E+00 -0.45593999997E+02  0.45594000000E+02  0.51100000000E-03 0.  1.
    9900012    2    1    2    0    0 -0.82993836802E+01  0.13035849630E+01 -0.16736229621E+02  0.72461535167E+02  0.69999954240E+02 0.  0.
         12    1    1    2    0    0  0.82993836802E+01 -0.13035849630E+01  0.16736229621E+02  0.18726464833E+02  0.00000000000E+00 0. -1.
         11    1    3    3    0    0  0.17718963142E+02  0.15090513372E+01  0.14082699757E+02  0.22683944178E+02  0.51100000000E-03 0. -1.
        -11    1    3    3    0    0  0.63780882698E+01  0.17282908104E+01 -0.45280419566E+01  0.80106281480E+01  0.51100000000E-03 0.  1.
        -12    1    3    3    0    0 -0.32396435092E+02 -0.19337571846E+01 -0.26290887421E+02  0.41766962841E+02  0.00000000000E+00 0.  1.
</event>
<event>
 7    1  0.2972263E-013  0.7246155E+02  0.7816164E-02  0.1226708E+00
        -11   -1    0    0    0    0  0.00000000000E+00  0.00000000000E+00  0.45593999997E+02  0.45594000000E+02  0.51100000000E-03 0.  1.
         11   -1    0    0    0    0 -0.00000000000E+00 -0.00000000000E+00 -0.45593999997E+02  0.45594000000E+02  0.51100000000E-03 0. -1.
    9900012    2    1    2    0    0 -0.10259265111E+02  0.90403332711E+01  0.12794518841E+02  0.72461551895E+02  0.69999976031E+02 0.  0.
         12    1    1    2    0    0  0.10259265111E+02 -0.90403332711E+01 -0.12794518841E+02  0.18726448105E+02  0.00000000000E+00 0. -1.
         11    1    3    3    0    0  0.29505507525E+01  0.55522922939E+01 -0.13193801607E+02  0.14615406274E+02  0.51100000000E-03 0. -1.
        -11    1    3    3    0    0 -0.24044172062E+02 -0.11013561453E+02  0.33444772338E+00  0.26448678636E+02  0.51100000000E-03 0.  1.
         12    1    3    3    0    0  0.10834356199E+02  0.14501602430E+02  0.25653872725E+02  0.31397466985E+02  0.00000000000E+00 0. -1.
</event>
<event>
 7    1  0.2972263E-013  0.7246137E+02  0.7816164E-02  0.1226709E+00
        -11   -1    0    0    0    0  0.00000000000E+00  0.00000000000E+00  0.45593999997E+02  0.45594000000E+02  0.51100000000E-03 0.  1.
         11   -1    0    0    0    0 -0.00000000000E+00 -0.00000000000E+00 -0.45593999997E+02  0.45594000000E+02  0.51100000000E-03 0. -1.
    9900012    2    1    2    0    0  0.78857102721E+01 -0.12125098657E+02  0.11894710223E+02  0.72461372561E+02  0.69999742416E+02 0.  0.
         12    1    1    2    0    0 -0.78857102721E+01  0.12125098657E+02 -0.11894710223E+02  0.18726627439E+02  0.00000000000E+00 0. -1.
         11    1    3    3    0    0 -0.16655946872E+01  0.10771929266E+01 -0.57941828171E+01  0.61243044538E+01  0.51100000000E-03 0. -1.
        -11    1    3    3    0    0  0.24577296911E+02 -0.29847476729E+02  0.15245301373E+01  0.38694180221E+02  0.51100000000E-03 0.  1.
         12    1    3    3    0    0 -0.15025991951E+02  0.16645185146E+02  0.16164362903E+02  0.27642887887E+02  0.00000000000E+00 0. -1.
</event>
<event>
 7    1  0.2972263E-013  0.7246157E+02  0.7816164E-02  0.1226708E+00
        -11   -1    0    0    0    0  0.00000000000E+00  0.00000000000E+00  0.45593999997E+02  0.45594000000E+02  0.51100000000E-03 0.  1.
         11   -1    0    0    0    0 -0.00000000000E+00 -0.00000000000E+00 -0.45593999997E+02  0.45594000000E+02  0.51100000000E-03 0. -1.
    9900012    2    1    2    0    0 -0.10519901263E+02 -0.15048186625E+02  0.36827714098E+01  0.72461573524E+02  0.70000004207E+02 0.  0.
         12    1    1    2    0    0  0.10519901263E+02  0.15048186625E+02 -0.36827714098E+01  0.18726426476E+02  0.00000000000E+00 0. -1.
         11    1    3    3    0    0 -0.15292452238E+02  0.23962188705E+01  0.27941378598E+02  0.31942473269E+02  0.51100000000E-03 0.  1.
        -11    1    3    3    0    0  0.10920811204E+02 -0.14212599507E+00 -0.11187167553E+01  0.10978881755E+02  0.51100000000E-03 0. -1.
        -12    1    3    3    0    0 -0.61482602298E+01 -0.17302279501E+02 -0.23139890433E+02  0.29540218500E+02  0.00000000000E+00 0.  1.
</event>
<event>
 7    1  0.2972263E-013  0.7246160E+02  0.7816164E-02  0.1226708E+00
        -11   -1    0    0    0    0  0.00000000000E+00  0.00000000000E+00  0.45593999997E+02  0.45594000000E+02  0.51100000000E-03 0. -1.
         11   -1    0    0    0    0 -0.00000000000E+00 -0.00000000000E+00 -0.45593999997E+02  0.45594000000E+02  0.51100000000E-03 0.  1.
    9900012    2    1    2    0    0 -0.18209281951E+02 -0.30032079236E+01 -0.31750598158E+01  0.72461595864E+02  0.70000033310E+02 0.  0.
         12    1    1    2    0    0  0.18209281951E+02  0.30032079236E+01  0.31750598158E+01  0.18726404136E+02  0.00000000000E+00 0. -1.
         11    1    3    3    0    0  0.91883222243E+01  0.13698539852E+02  0.48498914292E+01  0.17192926061E+02  0.51100000000E-03 0. -1.
        -11    1    3    3    0    0 -0.27124354373E+02  0.71224359961E+01 -0.13029603774E+02  0.30922973166E+02  0.51100000000E-03 0.  1.
        -12    1    3    3    0    0 -0.27324980303E+00 -0.23824183772E+02  0.50046525286E+01  0.24345696638E+02  0.00000000000E+00 0.  1.
</event>
<event>
 7    1  0.2972263E-013  0.7246156E+02  0.7816164E-02  0.1226708E+00
        -11   -1    0    0    0    0  0.00000000000E+00  0.00000000000E+00  0.45593999997E+02  0.45594000000E+02  0.51100000000E-03 0.  1.
         11   -1    0    0    0    0 -0.00000000000E+00 -0.00000000000E+00 -0.45593999997E+02  0.45594000000E+02  0.51100000000E-03 0. -1.
    9900012    2    1    2    0    0  0.55295943572E+01  0.20412707765E+01  0.17774594038E+02  0.72461564318E+02  0.69999992215E+02 0.  0.
         12    1    1    2    0    0 -0.55295943572E+01 -0.20412707765E+01 -0.17774594038E+02  0.18726435682E+02  0.00000000000E+00 0. -1.
         11    1    3    3    0    0  0.14859290810E+02 -0.79533144653E+01  0.64125312300E+01  0.18032589703E+02  0.51100000000E-03 0. -1.
        -11    1    3    3    0    0 -0.12333015906E+02 -0.19740424830E+02  0.63331299817E+01  0.24122524525E+02  0.51100000000E-03 0.  1.
        -12    1    3    3    0    0  0.30033194534E+01  0.29735010072E+02  0.50289328262E+01  0.30306450090E+02  0.00000000000E+00 0.  1.
</event>
<event>
 7    1  0.2972263E-013  0.7246159E+02  0.7816164E-02  0.1226708E+00
        -11   -1    0    0    0    0  0.00000000000E+00  0.00000000000E+00  0.45593999997E+02  0.45594000000E+02  0.51100000000E-03 0. -1.
         11   -1    0    0    0    0 -0.00000000000E+00 -0.00000000000E+00 -0.45593999997E+02  0.45594000000E+02  0.51100000000E-03 0.  1.
    9900012    2    1    2    0    0  0.66718670147E+01 -0.48676846254E+00 -0.17490788056E+02  0.72461590312E+02  0.70000026077E+02 0.  0.
         12    1    1    2    0    0 -0.66718670147E+01  0.48676846254E+00  0.17490788056E+02  0.18726409688E+02  0.00000000000E+00 0. -1.
         11    1    3    3    0    0 -0.47061068691E+01  0.92071684373E+01 -0.68785527035E+01  0.12419093367E+02  0.51100000000E-03 0.  1.
        -11    1    3    3    0    0  0.17646340569E+02 -0.23743365908E+02 -0.25185382875E+02  0.38851567162E+02  0.51100000000E-03 0. -1.
         12    1    3    3    0    0 -0.62683666856E+01  0.14049429008E+02  0.14573147522E+02  0.21190929783E+02  0.00000000000E+00 0. -1.
</event>
<event>
 7    1  0.2972263E-013  0.7246175E+02  0.7816164E-02  0.1226708E+00
        -11   -1    0    0    0    0  0.00000000000E+00  0.00000000000E+00  0.45593999997E+02  0.45594000000E+02  0.51100000000E-03 0.  1.
         11   -1    0    0    0    0 -0.00000000000E+00 -0.00000000000E+00 -0.45593999997E+02  0.45594000000E+02  0.51100000000E-03 0. -1.
    9900012    2    1    2    0    0 -0.58128903525E+01  0.16876547292E+02 -0.56625839388E+01  0.72461751053E+02  0.70000235472E+02 0.  0.
         12    1    1    2    0    0  0.58128903525E+01 -0.16876547292E+02  0.56625839388E+01  0.18726248947E+02  0.00000000000E+00 0. -1.
         11    1    3    3    0    0  0.22950968958E+02  0.30441544250E+01 -0.12908158638E+02  0.26507252064E+02  0.51100000000E-03 0. -1.
        -11    1    3    3    0    0 -0.10542513982E+02  0.10699488666E+01  0.18274371096E+02  0.21124441551E+02  0.51100000000E-03 0.  1.
        -12    1    3    3    0    0 -0.18221345328E+02  0.12762444000E+02 -0.11028796397E+02  0.24830057438E+02  0.00000000000E+00 0.  1.
</event>
<event>
 7    1  0.2972263E-013  0.7246149E+02  0.7816164E-02  0.1226708E+00
        -11   -1    0    0    0    0  0.00000000000E+00  0.00000000000E+00  0.45593999997E+02  0.45594000000E+02  0.51100000000E-03 0.  1.
         11   -1    0    0    0    0 -0.00000000000E+00 -0.00000000000E+00 -0.45593999997E+02  0.45594000000E+02  0.51100000000E-03 0. -1.
    9900012    2    1    2    0    0  0.13104465293E+02  0.12741057319E+02  0.40768532850E+01  0.72461487113E+02  0.69999891640E+02 0.  0.
         12    1    1    2    0    0 -0.13104465293E+02 -0.12741057319E+02 -0.40768532850E+01  0.18726512887E+02  0.00000000000E+00 0. -1.
         11    1    3    3    0    0 -0.47740067910E+01  0.15098654329E+02 -0.65546326984E+01  0.17138369627E+02  0.51100000000E-03 0. -1.
        -11    1    3    3    0    0  0.17845623933E+02  0.22618210554E+02  0.19309550102E+01  0.28875219995E+02  0.51100000000E-03 0.  1.
        -12    1    3    3    0    0  0.32848150721E-01 -0.24975807564E+02  0.87005309731E+01  0.26447897491E+02  0.00000000000E+00 0.  1.
</event>
<event>
 7    1  0.2972263E-013  0.7246156E+02  0.7816164E-02  0.1226708E+00
        -11   -1    0    0    0    0  0.00000000000E+00  0.00000000000E+00  0.45593999997E+02  0.45594000000E+02  0.51100000000E-03 0.  1.
         11   -1    0    0    0    0 -0.00000000000E+00 -0.00000000000E+00 -0.45593999997E+02  0.45594000000E+02  0.51100000000E-03 0. -1.
    9900012    2    1    2    0    0 -0.16928667634E+02  0.20885045028E+01  0.77290202977E+01  0.72461564309E+02  0.69999992203E+02 0.  0.
         12    1    1    2    0    0  0.16928667634E+02 -0.20885045028E+01 -0.77290202977E+01  0.18726435691E+02  0.00000000000E+00 0. -1.
         11    1    3    3    0    0 -0.45735615275E+00  0.40592588096E+01 -0.47779500161E+01  0.62861405768E+01  0.51100000000E-03 0. -1.
        -11    1    3    3    0    0  0.45199015798E+01 -0.29785513679E+02  0.63662123768E+01  0.30791800787E+02  0.51100000000E-03 0.  1.
         12    1    3    3    0    0 -0.20991213061E+02  0.27814759372E+02  0.61407579370E+01  0.35383622945E+02  0.00000000000E+00 0. -1.
</event>
<event>
 7    1  0.2972263E-013  0.7246157E+02  0.7816164E-02  0.1226708E+00
        -11   -1    0    0    0    0  0.00000000000E+00  0.00000000000E+00  0.45593999997E+02  0.45594000000E+02  0.51100000000E-03 0.  1.
         11   -1    0    0    0    0 -0.00000000000E+00 -0.00000000000E+00 -0.45593999997E+02  0.45594000000E+02  0.51100000000E-03 0. -1.
    9900012    2    1    2    0    0 -0.17748133428E+02 -0.15427052699E+01  0.57708709896E+01  0.72461571304E+02  0.70000001315E+02 0.  0.
         12    1    1    2    0    0  0.17748133428E+02  0.15427052699E+01 -0.57708709896E+01  0.18726428696E+02  0.00000000000E+00 0. -1.
         11    1    3    3    0    0 -0.10423024293E+02  0.25849976117E+02 -0.52264473818E+01  0.28358005099E+02  0.51100000000E-03 0. -1.
        -11    1    3    3    0    0  0.32395603686E+01 -0.20103680735E+01 -0.92199431309E+01  0.99771580508E+01  0.51100000000E-03 0.  1.
        -12    1    3    3    0    0 -0.10564669504E+02 -0.25382313314E+02  0.20217261502E+02  0.34126408154E+02  0.00000000000E+00 0.  1.
</event>
<event>
 7    1  0.2972263E-013  0.7246171E+02  0.7816164E-02  0.1226708E+00
        -11   -1    0    0    0    0  0.00000000000E+00  0.00000000000E+00  0.45593999997E+02  0.45594000000E+02  0.51100000000E-03 0.  1.
         11   -1    0    0    0    0 -0.00000000000E+00 -0.00000000000E+00 -0.45593999997E+02  0.45594000000E+02  0.51100000000E-03 0. -1.
    9900012    2    1    2    0    0  0.89967364746E+01 -0.19496734950E+01  0.16307410021E+02  0.72461705238E+02  0.70000175789E+02 0.  0.
         12    1    1    2    0    0 -0.89967364746E+01  0.19496734950E+01 -0.16307410021E+02  0.18726294762E+02  0.00000000000E+00 0. -1.
         11    1    3    3    0    0 -0.26668844226E+01 -0.41707153276E+01  0.79155439895E+01  0.93361113842E+01  0.51100000000E-03 0. -1.
        -11    1    3    3    0    0 -0.18128570227E+01 -0.26541507622E+02 -0.74558868020E+01  0.27628397089E+02  0.51100000000E-03 0.  1.
         12    1    3    3    0    0  0.13476477920E+02  0.28762549455E+02  0.15847752833E+02  0.35497196765E+02  0.00000000000E+00 0. -1.
</event>
<event>
 7    1  0.2972263E-013  0.7246153E+02  0.7816164E-02  0.1226708E+00
        -11   -1    0    0    0    0  0.00000000000E+00  0.00000000000E+00  0.45593999997E+02  0.45594000000E+02  0.51100000000E-03 0.  1.
         11   -1    0    0    0    0 -0.00000000000E+00 -0.00000000000E+00 -0.45593999997E+02  0.45594000000E+02  0.51100000000E-03 0. -1.
    9900012    2    1    2    0    0 -0.39762967008E+01  0.18283192331E+02  0.77103857561E+00  0.72461533228E+02  0.69999951715E+02 0.  0.
         12    1    1    2    0    0  0.39762967008E+01 -0.18283192331E+02 -0.77103857561E+00  0.18726466772E+02  0.00000000000E+00 0. -1.
         11    1    3    3    0    0  0.21434024725E+01 -0.36582237784E+01  0.13859327151E+02  0.14493368301E+02  0.51100000000E-03 0. -1.
        -11    1    3    3    0    0 -0.11222969071E+02  0.62547380697E+01  0.18387553916E+02  0.22431650015E+02  0.51100000000E-03 0.  1.
         12    1    3    3    0    0  0.51032698980E+01  0.15686678040E+02 -0.31475842492E+02  0.35536514913E+02  0.00000000000E+00 0. -1.
</event>
<event>
 7    1  0.2972263E-013  0.7246115E+02  0.7816164E-02  0.1226709E+00
        -11   -1    0    0    0    0  0.00000000000E+00  0.00000000000E+00  0.45593999997E+02  0.45594000000E+02  0.51100000000E-03 0. -1.
         11   -1    0    0    0    0 -0.00000000000E+00 -0.00000000000E+00 -0.45593999997E+02  0.45594000000E+02  0.51100000000E-03 0.  1.
    9900012    2    1    2    0    0 -0.12629535453E+02  0.29343603272E+01 -0.13512196396E+02  0.72461145279E+02  0.69999446337E+02 0.  0.
         12    1    1    2    0    0  0.12629535453E+02 -0.29343603272E+01  0.13512196396E+02  0.18726854721E+02  0.00000000000E+00 0. -1.
         11    1    3    3    0    0 -0.20141743330E+02  0.74223694011E+01 -0.87940028257E+01  0.23197324800E+02  0.51100000000E-03 0. -1.
        -11    1    3    3    0    0 -0.16930852737E+02  0.62576135572E+01 -0.11892732909E+02  0.21615933894E+02  0.51100000000E-03 0.  1.
         12    1    3    3    0    0  0.24443060614E+02 -0.10745622631E+02  0.71745393381E+01  0.27647886585E+02  0.00000000000E+00 0. -1.
</event>
<event>
 7    1  0.2972263E-013  0.7246157E+02  0.7816164E-02  0.1226708E+00
        -11   -1    0    0    0    0  0.00000000000E+00  0.00000000000E+00  0.45593999997E+02  0.45594000000E+02  0.51100000000E-03 0.  1.
         11   -1    0    0    0    0 -0.00000000000E+00 -0.00000000000E+00 -0.45593999997E+02  0.45594000000E+02  0.51100000000E-03 0. -1.
    9900012    2    1    2    0    0 -0.10118321786E+02  0.12683046131E+02  0.93508773566E+01  0.72461574760E+02  0.70000005818E+02 0.  0.
         12    1    1    2    0    0  0.10118321786E+02 -0.12683046131E+02 -0.93508773566E+01  0.18726425240E+02  0.00000000000E+00 0. -1.
         11    1    3    3    0    0 -0.17042180863E+02  0.18479884747E+02 -0.16762460608E+02  0.30214601681E+02  0.51100000000E-03 0. -1.
        -11    1    3    3    0    0  0.30451535567E+01  0.13084374592E+02  0.71985339292E+01  0.15241151847E+02  0.51100000000E-03 0.  1.
        -12    1    3    3    0    0  0.38787055193E+01 -0.18881213208E+02  0.18914804035E+02  0.27005821232E+02  0.00000000000E+00 0.  1.
</event>
<event>
 7    1  0.2972263E-013  0.7246160E+02  0.7816164E-02  0.1226708E+00
        -11   -1    0    0    0    0  0.00000000000E+00  0.00000000000E+00  0.45593999997E+02  0.45594000000E+02  0.51100000000E-03 0. -1.
         11   -1    0    0    0    0 -0.00000000000E+00 -0.00000000000E+00 -0.45593999997E+02  0.45594000000E+02  0.51100000000E-03 0.  1.
    9900012    2    1    2    0    0  0.24447791503E+01 -0.17811003350E+02  0.52411181351E+01  0.72461598724E+02  0.70000037035E+02 0.  0.
         12    1    1    2    0    0 -0.24447791503E+01  0.17811003350E+02 -0.52411181351E+01  0.18726401276E+02  0.00000000000E+00 0. -1.
         11    1    3    3    0    0 -0.19712115354E+02 -0.25359121573E+02  0.17918085276E+02  0.36779210417E+02  0.51100000000E-03 0. -1.
        -11    1    3    3    0    0  0.14554474951E+02 -0.75841500450E+01 -0.66291829655E+01  0.17700229944E+02  0.51100000000E-03 0.  1.
        -12    1    3    3    0    0  0.76024195534E+01  0.15132268268E+02 -0.60477841750E+01  0.17982158364E+02  0.00000000000E+00 0.  1.
</event>
<event>
 7    1  0.2972263E-013  0.7246156E+02  0.7816164E-02  0.1226708E+00
        -11   -1    0    0    0    0  0.00000000000E+00  0.00000000000E+00  0.45593999997E+02  0.45594000000E+02  0.51100000000E-03 0.  1.
         11   -1    0    0    0    0 -0.00000000000E+00 -0.00000000000E+00 -0.45593999997E+02  0.45594000000E+02  0.51100000000E-03 0. -1.
    9900012    2    1    2    0    0  0.13866304813E+02  0.10252476943E+02  0.73001378776E+01  0.72461555979E+02  0.69999981351E+02 0.  0.
         12    1    1    2    0    0 -0.13866304813E+02 -0.10252476943E+02 -0.73001378776E+01  0.18726444021E+02  0.00000000000E+00 0. -1.
         11    1    3    3    0    0 -0.54512216520E+01  0.13374074530E+01 -0.15860541975E+01  0.58326704324E+01  0.51100000000E-03 0. -1.
        -11    1    3    3    0    0  0.14581936308E+02 -0.13113521998E+02  0.29940247391E+02  0.35791280220E+02  0.51100000000E-03 0.  1.
         12    1    3    3    0    0  0.47355901574E+01  0.22028591487E+02 -0.21054055316E+02  0.30837605327E+02  0.00000000000E+00 0. -1.
</event>
<event>
 7    1  0.2972263E-013  0.7246156E+02  0.7816164E-02  0.1226708E+00
        -11   -1    0    0    0    0  0.00000000000E+00  0.00000000000E+00  0.45593999997E+02  0.45594000000E+02  0.51100000000E-03 0.  1.
         11   -1    0    0    0    0 -0.00000000000E+00 -0.00000000000E+00 -0.45593999997E+02  0.45594000000E+02  0.51100000000E-03 0. -1.
    9900012    2    1    2    0    0  0.68504695661E+00 -0.26177030706E+01  0.18529915548E+02  0.72461563369E+02  0.69999990978E+02 0.  0.
         12    1    1    2    0    0 -0.68504695661E+00  0.26177030706E+01 -0.18529915548E+02  0.18726436631E+02  0.00000000000E+00 0. -1.
         11    1    3    3    0    0 -0.16025132754E+02  0.71675994986E+01  0.55251875485E+01  0.18403995763E+02  0.51100000000E-03 0. -1.
        -11    1    3    3    0    0 -0.67328650362E+01  0.15152171080E+02 -0.19723551106E+01  0.16697602971E+02  0.51100000000E-03 0.  1.
         12    1    3    3    0    0  0.23443044746E+02 -0.24937473649E+02  0.14977083110E+02  0.37359964634E+02  0.00000000000E+00 0. -1.
</event>
<event>
 7    1  0.2972263E-013  0.7246156E+02  0.7816164E-02  0.1226708E+00
        -11   -1    0    0    0    0  0.00000000000E+00  0.00000000000E+00  0.45593999997E+02  0.45594000000E+02  0.51100000000E-03 0.  1.
         11   -1    0    0    0    0 -0.00000000000E+00 -0.00000000000E+00 -0.45593999997E+02  0.45594000000E+02  0.51100000000E-03 0. -1.
    9900012    2    1    2    0    0  0.25422501330E+01 -0.16043904829E+02 -0.93171703071E+01  0.72461559323E+02  0.69999985708E+02 0.  0.
         12    1    1    2    0    0 -0.25422501330E+01  0.16043904829E+02  0.93171703071E+01  0.18726440677E+02  0.00000000000E+00 0. -1.
         11    1    3    3    0    0  0.13339874592E+02 -0.41730352060E+01 -0.16627783361E+02  0.21722100651E+02  0.51100000000E-03 0. -1.
        -11    1    3    3    0    0 -0.24670553157E+02  0.76462334952E+01  0.71267227842E+01  0.26793492823E+02  0.51100000000E-03 0.  1.
         12    1    3    3    0    0  0.13872928698E+02 -0.19517103118E+02  0.18389026967E+00  0.23945965849E+02  0.00000000000E+00 0. -1.
</event>
<event>
 7    1  0.2972263E-013  0.7246157E+02  0.7816164E-02  0.1226708E+00
        -11   -1    0    0    0    0  0.00000000000E+00  0.00000000000E+00  0.45593999997E+02  0.45594000000E+02  0.51100000000E-03 0.  1.
         11   -1    0    0    0    0 -0.00000000000E+00 -0.00000000000E+00 -0.45593999997E+02  0.45594000000E+02  0.51100000000E-03 0. -1.
    9900012    2    1    2    0    0 -0.15249647092E+02  0.10030772121E+02 -0.41846327671E+01  0.72461567420E+02  0.69999996256E+02 0.  0.
         12    1    1    2    0    0  0.15249647092E+02 -0.10030772121E+02  0.41846327671E+01  0.18726432580E+02  0.00000000000E+00 0. -1.
         11    1    3    3    0    0  0.60003169853E+00 -0.76591254672E+01  0.17336171955E+02  0.18962201857E+02  0.51100000000E-03 0. -1.
        -11    1    3    3    0    0 -0.18110480831E+02  0.23139538774E+01  0.81582069612E+01  0.19997505833E+02  0.51100000000E-03 0.  1.
         12    1    3    3    0    0  0.22608020401E+01  0.15375943710E+02 -0.29679011683E+02  0.33501859730E+02  0.00000000000E+00 0. -1.
</event>
<event>
 7    1  0.2972263E-013  0.7246159E+02  0.7816164E-02  0.1226708E+00
        -11   -1    0    0    0    0  0.00000000000E+00  0.00000000000E+00  0.45593999997E+02  0.45594000000E+02  0.51100000000E-03 0.  1.
         11   -1    0    0    0    0 -0.00000000000E+00 -0.00000000000E+00 -0.45593999997E+02  0.45594000000E+02  0.51100000000E-03 0. -1.
    9900012    2    1    2    0    0  0.12959058695E+02 -0.12182555184E+02 -0.58588993690E+01  0.72461586705E+02  0.70000021378E+02 0.  0.
         12    1    1    2    0    0 -0.12959058695E+02  0.12182555184E+02  0.58588993690E+01  0.18726413295E+02  0.00000000000E+00 0. -1.
         11    1    3    3    0    0  0.23301567291E+02  0.79448445759E+01 -0.93249824225E+01  0.26325631825E+02  0.51100000000E-03 0. -1.
        -11    1    3    3    0    0 -0.46332339338E+01  0.12266455943E+02  0.93816305332E+00  0.13145833875E+02  0.51100000000E-03 0.  1.
        -12    1    3    3    0    0 -0.57092746617E+01 -0.32393855702E+02  0.25279200002E+01  0.32990121006E+02  0.00000000000E+00 0.  1.
</event>
<event>
 7    1  0.2972263E-013  0.7246174E+02  0.7816164E-02  0.1226708E+00
        -11   -1    0    0    0    0  0.00000000000E+00  0.00000000000E+00  0.45593999997E+02  0.45594000000E+02  0.51100000000E-03 0.  1.
         11   -1    0    0    0    0 -0.00000000000E+00 -0.00000000000E+00 -0.45593999997E+02  0.45594000000E+02  0.51100000000E-03 0. -1.
    9900012    2    1    2    0    0 -0.18283009786E+02 -0.31250186192E+01 -0.25765729253E+01  0.72461737259E+02  0.70000217503E+02 0.  0.
         12    1    1    2    0    0  0.18283009786E+02  0.31250186192E+01  0.25765729253E+01  0.18726262741E+02  0.00000000000E+00 0. -1.
         11    1    3    3    0    0  0.85169366192E+01 -0.26202418190E+00  0.15202200250E+01  0.86555147296E+01  0.51100000000E-03 0. -1.
        -11    1    3    3    0    0 -0.87261515829E+01  0.26668822249E+02  0.37359066356E+01  0.28307751593E+02  0.51100000000E-03 0.  1.
        -12    1    3    3    0    0 -0.18073794822E+02 -0.29531816686E+02 -0.78326995859E+01  0.35498470937E+02  0.00000000000E+00 0.  1.
</event>
<event>
 7    1  0.2972263E-013  0.7246159E+02  0.7816164E-02  0.1226708E+00
        -11   -1    0    0    0    0  0.00000000000E+00  0.00000000000E+00  0.45593999997E+02  0.45594000000E+02  0.51100000000E-03 0. -1.
         11   -1    0    0    0    0 -0.00000000000E+00 -0.00000000000E+00 -0.45593999997E+02  0.45594000000E+02  0.51100000000E-03 0.  1.
    9900012    2    1    2    0    0 -0.75620188660E+01  0.16391225645E+02 -0.49821681368E+01  0.72461590659E+02  0.70000026529E+02 0.  0.
         12    1    1    2    0    0  0.75620188660E+01 -0.16391225645E+02  0.49821681368E+01  0.18726409341E+02  0.00000000000E+00 0. -1.
         11    1    3    3    0    0 -0.83656545536E+01 -0.25425103130E+01 -0.10337874536E+01  0.88043881992E+01  0.51100000000E-03 0. -1.
        -11    1    3    3    0    0 -0.11512705946E+02 -0.71853762730E+01 -0.24641280949E+02  0.28131206114E+02  0.51100000000E-03 0.  1.
         12    1    3    3    0    0  0.12316341634E+02  0.26119112231E+02  0.20692900266E+02  0.35525996346E+02  0.00000000000E+00 0. -1.
</event>
<event>
 7    1  0.2972263E-013  0.7246159E+02  0.7816164E-02  0.1226708E+00
        -11   -1    0    0    0    0  0.00000000000E+00  0.00000000000E+00  0.45593999997E+02  0.45594000000E+02  0.51100000000E-03 0.  1.
         11   -1    0    0    0    0 -0.00000000000E+00 -0.00000000000E+00 -0.45593999997E+02  0.45594000000E+02  0.51100000000E-03 0. -1.
    9900012    2    1    2    0    0 -0.50931666919E+00 -0.17658358343E+02 -0.62130055316E+01  0.72461589223E+02  0.70000024658E+02 0.  0.
         12    1    1    2    0    0  0.50931666919E+00  0.17658358343E+02  0.62130055316E+01  0.18726410777E+02  0.00000000000E+00 0. -1.
         11    1    3    3    0    0  0.67700799771E+01 -0.11689275346E+02 -0.22452565925E+02  0.26202878810E+02  0.51100000000E-03 0. -1.
        -11    1    3    3    0    0 -0.22278628529E+02  0.48361042344E+01  0.19252670923E+01  0.22878632978E+02  0.51100000000E-03 0.  1.
        -12    1    3    3    0    0  0.14999231883E+02 -0.10805187231E+02  0.14314293301E+02  0.23380077436E+02  0.00000000000E+00 0.  1.
</event>
<event>
 7    1  0.2972263E-013  0.7246146E+02  0.7816164E-02  0.1226708E+00
        -11   -1    0    0    0    0  0.00000000000E+00  0.00000000000E+00  0.45593999997E+02  0.45594000000E+02  0.51100000000E-03 0.  1.
         11   -1    0    0    0    0 -0.00000000000E+00 -0.00000000000E+00 -0.45593999997E+02  0.45594000000E+02  0.51100000000E-03 0. -1.
    9900012    2    1    2    0    0  0.19973713772E+01  0.98100203450E+01  0.15825842018E+02  0.72461460887E+02  0.69999857476E+02 0.  0.
         12    1    1    2    0    0 -0.19973713772E+01 -0.98100203450E+01 -0.15825842018E+02  0.18726539113E+02  0.00000000000E+00 0. -1.
         11    1    3    3    0    0  0.60098177084E+01  0.19945064813E+02 -0.93306136575E+01  0.22825071101E+02  0.51100000000E-03 0. -1.
        -11    1    3    3    0    0 -0.52737342321E+01  0.14657828801E+02  0.20318529651E+01  0.15709635407E+02  0.51100000000E-03 0.  1.
        -12    1    3    3    0    0  0.12612879010E+01 -0.24792873269E+02  0.23124602710E+02  0.33926754378E+02  0.00000000000E+00 0.  1.
</event>
<event>
 7    1  0.2972263E-013  0.7246161E+02  0.7816164E-02  0.1226708E+00
        -11   -1    0    0    0    0  0.00000000000E+00  0.00000000000E+00  0.45593999997E+02  0.45594000000E+02  0.51100000000E-03 0. -1.
         11   -1    0    0    0    0 -0.00000000000E+00 -0.00000000000E+00 -0.45593999997E+02  0.45594000000E+02  0.51100000000E-03 0.  1.
    9900012    2    1    2    0    0  0.80380089032E+01 -0.58567573748E+01 -0.15867148616E+02  0.72461612220E+02  0.70000054616E+02 0.  0.
         12    1    1    2    0    0 -0.80380089032E+01  0.58567573748E+01  0.15867148616E+02  0.18726387780E+02  0.00000000000E+00 0. -1.
         11    1    3    3    0    0  0.50969064862E+01  0.16939430744E+02  0.42338743901E+00  0.17694689227E+02  0.51100000000E-03 0. -1.
        -11    1    3    3    0    0 -0.26705121605E+01 -0.10469273955E+02  0.16253493577E+02  0.19517002487E+02  0.51100000000E-03 0.  1.
        -12    1    3    3    0    0  0.56116145774E+01 -0.12326914164E+02 -0.32544029632E+02  0.35249920506E+02  0.00000000000E+00 0.  1.
</event>
<event>
 7    1  0.2972263E-013  0.7246155E+02  0.7816164E-02  0.1226708E+00
        -11   -1    0    0    0    0  0.00000000000E+00  0.00000000000E+00  0.45593999997E+02  0.45594000000E+02  0.51100000000E-03 0. -1.
         11   -1    0    0    0    0 -0.00000000000E+00 -0.00000000000E+00 -0.45593999997E+02  0.45594000000E+02  0.51100000000E-03 0.  1.
    9900012    2    1    2    0    0  0.96569135115E+01 -0.13736825972E+02  0.82899680936E+01  0.72461549793E+02  0.69999973293E+02 0.  0.
         12    1    1    2    0    0 -0.96569135115E+01  0.13736825972E+02 -0.82899680936E+01  0.18726450207E+02  0.00000000000E+00 0. -1.
         11    1    3    3    0    0  0.29613198757E+02  0.18011433041E+01  0.17132726995E+02  0.34259538706E+02  0.51100000000E-03 0. -1.
        -11    1    3    3    0    0  0.67918109999E+01 -0.16055533900E+01 -0.22278719570E+01  0.73259751613E+01  0.51100000000E-03 0.  1.
        -12    1    3    3    0    0 -0.26748096245E+02 -0.13932415886E+02 -0.66148869442E+01  0.30876035925E+02  0.00000000000E+00 0.  1.
</event>
<event>
 7    1  0.2972263E-013  0.7246157E+02  0.7816164E-02  0.1226708E+00
        -11   -1    0    0    0    0  0.00000000000E+00  0.00000000000E+00  0.45593999997E+02  0.45594000000E+02  0.51100000000E-03 0.  1.
         11   -1    0    0    0    0 -0.00000000000E+00 -0.00000000000E+00 -0.45593999997E+02  0.45594000000E+02  0.51100000000E-03 0. -1.
    9900012    2    1    2    0    0 -0.14695424736E+02 -0.34830936337E+01  0.11072123355E+02  0.72461565074E+02  0.69999993200E+02 0.  0.
         12    1    1    2    0    0  0.14695424736E+02  0.34830936337E+01 -0.11072123355E+02  0.18726434926E+02  0.00000000000E+00 0. -1.
         11    1    3    3    0    0 -0.18593114093E+02 -0.14694826192E+02 -0.14348132453E+02  0.27703983715E+02  0.51100000000E-03 0. -1.
        -11    1    3    3    0    0 -0.12622555796E+02 -0.46943621715E+01  0.12808052694E+02  0.18585267421E+02  0.51100000000E-03 0.  1.
        -12    1    3    3    0    0  0.16520245154E+02  0.15906094730E+02  0.12612203115E+02  0.26172313939E+02  0.00000000000E+00 0.  1.
</event>
<event>
 7    1  0.2972263E-013  0.7246157E+02  0.7816164E-02  0.1226708E+00
        -11   -1    0    0    0    0  0.00000000000E+00  0.00000000000E+00  0.45593999997E+02  0.45594000000E+02  0.51100000000E-03 0.  1.
         11   -1    0    0    0    0 -0.00000000000E+00 -0.00000000000E+00 -0.45593999997E+02  0.45594000000E+02  0.51100000000E-03 0. -1.
    9900012    2    1    2    0    0  0.15712639803E+02 -0.21221124137E+01  0.99643791737E+01  0.72461567799E+02  0.69999996749E+02 0.  0.
         12    1    1    2    0    0 -0.15712639803E+02  0.21221124137E+01 -0.99643791737E+01  0.18726432201E+02  0.00000000000E+00 0. -1.
         11    1    3    3    0    0  0.22072939324E+02 -0.13039017284E+02 -0.49315715684E+01  0.26106532143E+02  0.51100000000E-03 0. -1.
        -11    1    3    3    0    0  0.13098735056E+02 -0.86958257473E+01  0.89604814039E+01  0.18096532064E+02  0.51100000000E-03 0.  1.
         12    1    3    3    0    0 -0.19459034578E+02  0.19612730617E+02  0.59354693382E+01  0.28258503592E+02  0.00000000000E+00 0. -1.
</event>
<event>
 7    1  0.2972263E-013  0.7246127E+02  0.7816164E-02  0.1226709E+00
        -11   -1    0    0    0    0  0.00000000000E+00  0.00000000000E+00  0.45593999997E+02  0.45594000000E+02  0.51100000000E-03 0. -1.
         11   -1    0    0    0    0 -0.00000000000E+00 -0.00000000000E+00 -0.45593999997E+02  0.45594000000E+02  0.51100000000E-03 0.  1.
    9900012    2    1    2    0    0 -0.82452918040E+01 -0.36315531724E+00 -0.16809928372E+02  0.72461270157E+02  0.69999609015E+02 0.  0.
         12    1    1    2    0    0  0.82452918040E+01  0.36315531724E+00  0.16809928372E+02  0.18726729843E+02  0.00000000000E+00 0. -1.
         11    1    3    3    0    0  0.14126097659E+02 -0.63420552451E+01  0.44797681649E+01  0.16119448591E+02  0.51100000000E-03 0. -1.
        -11    1    3    3    0    0 -0.10889240970E+02  0.95961882779E+01 -0.35122981518E+02  0.38003765989E+02  0.51100000000E-03 0.  1.
         12    1    3    3    0    0 -0.11482148493E+02 -0.36172883500E+01  0.13833284981E+02  0.18338055578E+02  0.00000000000E+00 0. -1.
</event>
<event>
 7    1  0.2972263E-013  0.7246156E+02  0.7816164E-02  0.1226708E+00
        -11   -1    0    0    0    0  0.00000000000E+00  0.00000000000E+00  0.45593999997E+02  0.45594000000E+02  0.51100000000E-03 0. -1.
         11   -1    0    0    0    0 -0.00000000000E+00 -0.00000000000E+00 -0.45593999997E+02  0.45594000000E+02  0.51100000000E-03 0.  1.
    9900012    2    1    2    0    0 -0.10239048113E+01  0.11973757259E+02 -0.14361760298E+02  0.72461564065E+02  0.69999991886E+02 0.  0.
         12    1    1    2    0    0  0.10239048113E+01 -0.11973757259E+02  0.14361760298E+02  0.18726435935E+02  0.00000000000E+00 0. -1.
         11    1    3    3    0    0 -0.14977487970E+02  0.18074621248E+02  0.82294743496E+00  0.23488174086E+02  0.51100000000E-03 0. -1.
        -11    1    3    3    0    0  0.14982095389E+02  0.11962704052E+02  0.69428853908E+01  0.20390515646E+02  0.51100000000E-03 0.  1.
        -12    1    3    3    0    0 -0.10285122305E+01 -0.18063568040E+02 -0.22127593123E+02  0.28582874334E+02  0.00000000000E+00 0.  1.
</event>
<event>
 7    1  0.2972263E-013  0.7246154E+02  0.7816164E-02  0.1226708E+00
        -11   -1    0    0    0    0  0.00000000000E+00  0.00000000000E+00  0.45593999997E+02  0.45594000000E+02  0.51100000000E-03 0.  1.
         11   -1    0    0    0    0 -0.00000000000E+00 -0.00000000000E+00 -0.45593999997E+02  0.45594000000E+02  0.51100000000E-03 0. -1.
    9900012    2    1    2    0    0  0.10621370417E+02 -0.31435031778E+01  0.15099176027E+02  0.72461541753E+02  0.69999962820E+02 0.  0.
         12    1    1    2    0    0 -0.10621370417E+02  0.31435031778E+01 -0.15099176027E+02  0.18726458247E+02  0.00000000000E+00 0. -1.
         11    1    3    3    0    0 -0.10023881120E+02  0.12588008764E+01  0.62184511419E+01  0.11863047973E+02  0.51100000000E-03 0. -1.
        -11    1    3    3    0    0 -0.11093018825E+02  0.17229809904E+02  0.85066315143E+01  0.22187478359E+02  0.51100000000E-03 0.  1.
        -12    1    3    3    0    0  0.31738270361E+02 -0.21632113958E+02  0.37409337104E+00  0.38411015421E+02  0.00000000000E+00 0.  1.
</event>
<event>
 7    1  0.2972263E-013  0.7246182E+02  0.7816164E-02  0.1226707E+00
        -11   -1    0    0    0    0  0.00000000000E+00  0.00000000000E+00  0.45593999997E+02  0.45594000000E+02  0.51100000000E-03 0.  1.
         11   -1    0    0    0    0 -0.00000000000E+00 -0.00000000000E+00 -0.45593999997E+02  0.45594000000E+02  0.51100000000E-03 0. -1.
    9900012    2    1    2    0    0 -0.11088604131E+02  0.38254168710E+01  0.14597225364E+02  0.72461816616E+02  0.70000320879E+02 0.  0.
         12    1    1    2    0    0  0.11088604131E+02 -0.38254168710E+01 -0.14597225364E+02  0.18726183384E+02  0.00000000000E+00 0. -1.
         11    1    3    3    0    0 -0.14338163018E+02 -0.33914342615E+01 -0.44310139346E+00  0.14740457395E+02  0.51100000000E-03 0. -1.
        -11    1    3    3    0    0 -0.60846042180E+01 -0.23144787336E+02  0.74337499858E+01  0.25059214442E+02  0.51100000000E-03 0.  1.
         12    1    3    3    0    0  0.93341631059E+01  0.30361638469E+02  0.76065767720E+01  0.32662144779E+02  0.00000000000E+00 0. -1.
</event>
<event>
 7    1  0.2972263E-013  0.7246156E+02  0.7816164E-02  0.1226708E+00
        -11   -1    0    0    0    0  0.00000000000E+00  0.00000000000E+00  0.45593999997E+02  0.45594000000E+02  0.51100000000E-03 0.  1.
         11   -1    0    0    0    0 -0.00000000000E+00 -0.00000000000E+00 -0.45593999997E+02  0.45594000000E+02  0.51100000000E-03 0. -1.
    9900012    2    1    2    0    0  0.90570835562E+01 -0.15423845157E+02  0.55456223062E+01  0.72461556431E+02  0.69999981941E+02 0.  0.
         12    1    1    2    0    0 -0.90570835562E+01  0.15423845157E+02 -0.55456223062E+01  0.18726443569E+02  0.00000000000E+00 0. -1.
         11    1    3    3    0    0  0.14874619910E+02  0.12367618078E+02 -0.14484717041E+01  0.19398720703E+02  0.51100000000E-03 0. -1.
        -11    1    3    3    0    0  0.10457328125E+02 -0.76598049822E+01 -0.14475435067E+02  0.19431071626E+02  0.51100000000E-03 0.  1.
        -12    1    3    3    0    0 -0.16274864479E+02 -0.20131658253E+02  0.21469529078E+02  0.33631764102E+02  0.00000000000E+00 0.  1.
</event>
<event>
 7    1  0.2972263E-013  0.7246147E+02  0.7816164E-02  0.1226708E+00
        -11   -1    0    0    0    0  0.00000000000E+00  0.00000000000E+00  0.45593999997E+02  0.45594000000E+02  0.51100000000E-03 0.  1.
         11   -1    0    0    0    0 -0.00000000000E+00 -0.00000000000E+00 -0.45593999997E+02  0.45594000000E+02  0.51100000000E-03 0. -1.
    9900012    2    1    2    0    0 -0.62664432935E+01 -0.34902296953E+01  0.17298346529E+02  0.72461473159E+02  0.69999873464E+02 0.  0.
         12    1    1    2    0    0  0.62664432935E+01  0.34902296953E+01 -0.17298346529E+02  0.18726526841E+02  0.00000000000E+00 0. -1.
         11    1    3    3    0    0 -0.14662997413E+02  0.17592051962E+02  0.10469682056E+02  0.25181303143E+02  0.51100000000E-03 0. -1.
        -11    1    3    3    0    0  0.20101099590E+02  0.25242947718E+01  0.93740525442E+00  0.20280655751E+02  0.51100000000E-03 0.  1.
        -12    1    3    3    0    0 -0.11704545470E+02 -0.23606576430E+02  0.58912592185E+01  0.26999514265E+02  0.00000000000E+00 0.  1.
</event>
<event>
 7    1  0.2972263E-013  0.7246160E+02  0.7816164E-02  0.1226708E+00
        -11   -1    0    0    0    0  0.00000000000E+00  0.00000000000E+00  0.45593999997E+02  0.45594000000E+02  0.51100000000E-03 0.  1.
         11   -1    0    0    0    0 -0.00000000000E+00 -0.00000000000E+00 -0.45593999997E+02  0.45594000000E+02  0.51100000000E-03 0. -1.
    9900012    2    1    2    0    0 -0.14552555665E+02 -0.10488905155E+02 -0.53743966691E+01  0.72461597588E+02  0.70000035555E+02 0.  0.
         12    1    1    2    0    0  0.14552555665E+02  0.10488905155E+02  0.53743966691E+01  0.18726402412E+02  0.00000000000E+00 0. -1.
         11    1    3    3    0    0 -0.36711863192E+01 -0.54063168081E+01 -0.18776339060E+02  0.19881065846E+02  0.51100000000E-03 0. -1.
        -11    1    3    3    0    0 -0.26372232040E+02 -0.14460143791E+02  0.40470188441E-01  0.30076436280E+02  0.51100000000E-03 0.  1.
        -12    1    3    3    0    0  0.15490862694E+02  0.93775554440E+01  0.13361472203E+02  0.22504095461E+02  0.00000000000E+00 0.  1.
</event>
<event>
 7    1  0.2972263E-013  0.7246161E+02  0.7816164E-02  0.1226708E+00
        -11   -1    0    0    0    0  0.00000000000E+00  0.00000000000E+00  0.45593999997E+02  0.45594000000E+02  0.51100000000E-03 0.  1.
         11   -1    0    0    0    0 -0.00000000000E+00 -0.00000000000E+00 -0.45593999997E+02  0.45594000000E+02  0.51100000000E-03 0. -1.
    9900012    2    1    2    0    0 -0.11555072613E+01 -0.18662060087E+02  0.10344882396E+01  0.72461605535E+02  0.70000045908E+02 0.  0.
         12    1    1    2    0    0  0.11555072613E+01  0.18662060087E+02 -0.10344882396E+01  0.18726394465E+02  0.00000000000E+00 0. -1.
         11    1    3    3    0    0 -0.11131025384E+02  0.11334452725E+02  0.92218565756E+01  0.18368782857E+02  0.51100000000E-03 0. -1.
        -11    1    3    3    0    0 -0.31207379079E+01 -0.11664934617E+02  0.16644970315E+02  0.20563675298E+02  0.51100000000E-03 0.  1.
        -12    1    3    3    0    0  0.13096256031E+02 -0.18331578196E+02 -0.24832338651E+02  0.33529147380E+02  0.00000000000E+00 0.  1.
</event>
<event>
 7    1  0.2972263E-013  0.7246151E+02  0.7816164E-02  0.1226708E+00
        -11   -1    0    0    0    0  0.00000000000E+00  0.00000000000E+00  0.45593999997E+02  0.45594000000E+02  0.51100000000E-03 0.  1.
         11   -1    0    0    0    0 -0.00000000000E+00 -0.00000000000E+00 -0.45593999997E+02  0.45594000000E+02  0.51100000000E-03 0. -1.
    9900012    2    1    2    0    0 -0.57532821778E+01 -0.16754397198E+01  0.17741877849E+02  0.72461505836E+02  0.69999916030E+02 0.  0.
         12    1    1    2    0    0  0.57532821778E+01  0.16754397198E+01 -0.17741877849E+02  0.18726494164E+02  0.00000000000E+00 0. -1.
         11    1    3    3    0    0 -0.52218838746E+01  0.11912547299E+02 -0.23758351042E+00  0.13008970003E+02  0.51100000000E-03 0. -1.
        -11    1    3    3    0    0 -0.19138910184E+01 -0.91851951279E+01  0.37879625392E+02  0.39024310480E+02  0.51100000000E-03 0.  1.
         12    1    3    3    0    0  0.13824927152E+01 -0.44027918910E+01 -0.19900164032E+02  0.20428225352E+02  0.00000000000E+00 0. -1.
</event>
<event>
 7    1  0.2972263E-013  0.7246150E+02  0.7816164E-02  0.1226708E+00
        -11   -1    0    0    0    0  0.00000000000E+00  0.00000000000E+00  0.45593999997E+02  0.45594000000E+02  0.51100000000E-03 0. -1.
         11   -1    0    0    0    0 -0.00000000000E+00 -0.00000000000E+00 -0.45593999997E+02  0.45594000000E+02  0.51100000000E-03 0.  1.
    9900012    2    1    2    0    0  0.46833945292E+01  0.27056219939E+01 -0.17928392398E+02  0.72461499294E+02  0.69999907509E+02 0.  0.
         12    1    1    2    0    0 -0.46833945292E+01 -0.27056219939E+01  0.17928392398E+02  0.18726500706E+02  0.00000000000E+00 0. -1.
         11    1    3    3    0    0  0.89091620609E+01  0.51394942441E+01  0.11954536895E+02  0.15770178260E+02  0.51100000000E-03 0. -1.
        -11    1    3    3    0    0 -0.14241169746E+02 -0.41324966593E+01  0.84280754236E+01  0.17056403489E+02  0.51100000000E-03 0.  1.
        -12    1    3    3    0    0  0.10015402214E+02  0.16986244091E+01 -0.38311004717E+02  0.39634917546E+02  0.00000000000E+00 0.  1.
</event>
<event>
 7    1  0.2972263E-013  0.7246158E+02  0.7816164E-02  0.1226708E+00
        -11   -1    0    0    0    0  0.00000000000E+00  0.00000000000E+00  0.45593999997E+02  0.45594000000E+02  0.51100000000E-03 0.  1.
         11   -1    0    0    0    0 -0.00000000000E+00 -0.00000000000E+00 -0.45593999997E+02  0.45594000000E+02  0.51100000000E-03 0. -1.
    9900012    2    1    2    0    0 -0.61548823539E+01  0.10151556443E+02  0.14482478578E+02  0.72461578538E+02  0.70000010739E+02 0.  0.
         12    1    1    2    0    0  0.61548823539E+01 -0.10151556443E+02 -0.14482478578E+02  0.18726421462E+02  0.00000000000E+00 0. -1.
         11    1    3    3    0    0 -0.16769303513E+02  0.81382902403E+01  0.11628974562E+02  0.21969851114E+02  0.51100000000E-03 0. -1.
        -11    1    3    3    0    0 -0.13176637147E+01 -0.84152824324E+01  0.23192929923E+02  0.24707594273E+02  0.51100000000E-03 0.  1.
         12    1    3    3    0    0  0.11932084874E+02  0.10428548635E+02 -0.20339425908E+02  0.25784133151E+02  0.00000000000E+00 0. -1.
</event>
<event>
 7    1  0.2972263E-013  0.7246159E+02  0.7816164E-02  0.1226708E+00
        -11   -1    0    0    0    0  0.00000000000E+00  0.00000000000E+00  0.45593999997E+02  0.45594000000E+02  0.51100000000E-03 0.  1.
         11   -1    0    0    0    0 -0.00000000000E+00 -0.00000000000E+00 -0.45593999997E+02  0.45594000000E+02  0.51100000000E-03 0. -1.
    9900012    2    1    2    0    0 -0.86058548739E+01  0.81604709678E+01  0.14492220112E+02  0.72461589017E+02  0.70000024390E+02 0.  0.
         12    1    1    2    0    0  0.86058548739E+01 -0.81604709678E+01 -0.14492220112E+02  0.18726410983E+02  0.00000000000E+00 0. -1.
         11    1    3    3    0    0 -0.33892851775E+01  0.21084631991E+02 -0.50457714553E+01  0.21943308093E+02  0.51100000000E-03 0. -1.
        -11    1    3    3    0    0 -0.22107632241E+02 -0.62410819588E+01 -0.11333553407E+01  0.22999630473E+02  0.51100000000E-03 0.  1.
         12    1    3    3    0    0  0.16891062545E+02 -0.66830790643E+01  0.20671346908E+02  0.27518650451E+02  0.00000000000E+00 0. -1.
</event>
<event>
 7    1  0.2972263E-013  0.7246157E+02  0.7816164E-02  0.1226708E+00
        -11   -1    0    0    0    0  0.00000000000E+00  0.00000000000E+00  0.45593999997E+02  0.45594000000E+02  0.51100000000E-03 0.  1.
         11   -1    0    0    0    0 -0.00000000000E+00 -0.00000000000E+00 -0.45593999997E+02  0.45594000000E+02  0.51100000000E-03 0. -1.
    9900012    2    1    2    0    0  0.82113518771E+01 -0.49969030030E+01  0.16071207398E+02  0.72461573579E+02  0.70000004279E+02 0.  0.
         12    1    1    2    0    0 -0.82113518771E+01  0.49969030030E+01 -0.16071207398E+02  0.18726426421E+02  0.00000000000E+00 0. -1.
         11    1    3    3    0    0 -0.41795914055E+01  0.10402364433E+02 -0.10866427620E+02  0.15612732612E+02  0.51100000000E-03 0. -1.
        -11    1    3    3    0    0 -0.59399918556E+01  0.12647027205E+02  0.18587547694E+00  0.13973737880E+02  0.51100000000E-03 0.  1.
        -12    1    3    3    0    0  0.18330935138E+02 -0.28046294642E+02  0.26751759541E+02  0.42875103087E+02  0.00000000000E+00 0.  1.
</event>
<event>
 7    1  0.2972263E-013  0.7246153E+02  0.7816164E-02  0.1226708E+00
        -11   -1    0    0    0    0  0.00000000000E+00  0.00000000000E+00  0.45593999997E+02  0.45594000000E+02  0.51100000000E-03 0.  1.
         11   -1    0    0    0    0 -0.00000000000E+00 -0.00000000000E+00 -0.45593999997E+02  0.45594000000E+02  0.51100000000E-03 0. -1.
    9900012    2    1    2    0    0  0.10450357304E+02  0.41379015151E+01  0.14978264898E+02  0.72461531671E+02  0.69999949685E+02 0.  0.
         12    1    1    2    0    0 -0.10450357304E+02 -0.41379015151E+01 -0.14978264898E+02  0.18726468329E+02  0.00000000000E+00 0. -1.
         11    1    3    3    0    0 -0.11933954752E+02 -0.13034208983E+02 -0.32441077766E+01  0.17967585129E+02  0.51100000000E-03 0. -1.
        -11    1    3    3    0    0 -0.73560995055E+01  0.19020593619E+02  0.13155174100E+02  0.24268370102E+02  0.51100000000E-03 0.  1.
         12    1    3    3    0    0  0.29740411562E+02 -0.18484831204E+01  0.50671985748E+01  0.30225576440E+02  0.00000000000E+00 0. -1.
</event>
<event>
 7    1  0.2972263E-013  0.7246135E+02  0.7816164E-02  0.1226709E+00
        -11   -1    0    0    0    0  0.00000000000E+00  0.00000000000E+00  0.45593999997E+02  0.45594000000E+02  0.51100000000E-03 0.  1.
         11   -1    0    0    0    0 -0.00000000000E+00 -0.00000000000E+00 -0.45593999997E+02  0.45594000000E+02  0.51100000000E-03 0. -1.
    9900012    2    1    2    0    0 -0.44708074302E+01  0.15806637174E+02 -0.89916264975E+01  0.72461354681E+02  0.69999719123E+02 0.  0.
         12    1    1    2    0    0  0.44708074302E+01 -0.15806637174E+02  0.89916264975E+01  0.18726645319E+02  0.00000000000E+00 0. -1.
         11    1    3    3    0    0  0.17936420329E+01  0.11980038313E+02 -0.93442752762E+01  0.15298821864E+02  0.51100000000E-03 0. -1.
        -11    1    3    3    0    0 -0.30251509539E+02 -0.59240432402E+01  0.37265123868E+01  0.31050523547E+02  0.51100000000E-03 0.  1.
         12    1    3    3    0    0  0.23987060076E+02  0.97506421015E+01 -0.33738636081E+01  0.26112009270E+02  0.00000000000E+00 0. -1.
</event>
<event>
 7    1  0.2972263E-013  0.7246176E+02  0.7816164E-02  0.1226708E+00
        -11   -1    0    0    0    0  0.00000000000E+00  0.00000000000E+00  0.45593999997E+02  0.45594000000E+02  0.51100000000E-03 0. -1.
         11   -1    0    0    0    0 -0.00000000000E+00 -0.00000000000E+00 -0.45593999997E+02  0.45594000000E+02  0.51100000000E-03 0.  1.
    9900012    2    1    2    0    0 -0.11600466312E+02 -0.15486920117E+01 -0.14618576262E+02  0.72461760721E+02  0.70000248065E+02 0.  0.
         12    1    1    2    0    0  0.11600466312E+02  0.15486920117E+01  0.14618576262E+02  0.18726239279E+02  0.00000000000E+00 0. -1.
         11    1    3    3    0    0  0.64522463383E+01  0.26088754453E+01  0.16900417186E+02  0.18277357993E+02  0.51100000000E-03 0. -1.
        -11    1    3    3    0    0 -0.29313037423E+02  0.11982847128E+01 -0.29405084229E+02  0.41537320905E+02  0.51100000000E-03 0.  1.
         12    1    3    3    0    0  0.11260324772E+02 -0.53558521699E+01 -0.21139092190E+01  0.12647081823E+02  0.00000000000E+00 0. -1.
</event>
<event>
 7    1  0.2972263E-013  0.7246160E+02  0.7816164E-02  0.1226708E+00
        -11   -1    0    0    0    0  0.00000000000E+00  0.00000000000E+00  0.45593999997E+02  0.45594000000E+02  0.51100000000E-03 0.  1.
         11   -1    0    0    0    0 -0.00000000000E+00 -0.00000000000E+00 -0.45593999997E+02  0.45594000000E+02  0.51100000000E-03 0. -1.
    9900012    2    1    2    0    0  0.13594613050E+01  0.31010010851E+01  0.18417759248E+02  0.72461596221E+02  0.70000033775E+02 0.  0.
         12    1    1    2    0    0 -0.13594613050E+01 -0.31010010851E+01 -0.18417759248E+02  0.18726403779E+02  0.00000000000E+00 0. -1.
         11    1    3    3    0    0  0.33778109000E+01  0.20492749295E+02  0.61333539633E+01  0.21655955560E+02  0.51100000000E-03 0. -1.
        -11    1    3    3    0    0 -0.25155162618E-01  0.49451445992E+01 -0.14821973750E+02  0.15625171807E+02  0.51100000000E-03 0.  1.
        -12    1    3    3    0    0 -0.19931944325E+01 -0.22336892809E+02  0.27106379035E+02  0.35180468854E+02  0.00000000000E+00 0.  1.
</event>
<event>
 7    1  0.2972263E-013  0.7246159E+02  0.7816164E-02  0.1226708E+00
        -11   -1    0    0    0    0  0.00000000000E+00  0.00000000000E+00  0.45593999997E+02  0.45594000000E+02  0.51100000000E-03 0. -1.
         11   -1    0    0    0    0 -0.00000000000E+00 -0.00000000000E+00 -0.45593999997E+02  0.45594000000E+02  0.51100000000E-03 0.  1.
    9900012    2    1    2    0    0  0.13110909220E+01 -0.11237655988E+02 -0.14922288591E+02  0.72461586347E+02  0.70000020912E+02 0.  0.
         12    1    1    2    0    0 -0.13110909220E+01  0.11237655988E+02  0.14922288591E+02  0.18726413653E+02  0.00000000000E+00 0. -1.
         11    1    3    3    0    0  0.18812542652E+02  0.39287913661E+00  0.97032839803E+01  0.21171202973E+02  0.51100000000E-03 0. -1.
        -11    1    3    3    0    0 -0.21015850726E+02  0.76184536679E+01 -0.37294667133E+01  0.22663092028E+02  0.51100000000E-03 0.  1.
         12    1    3    3    0    0  0.35143989960E+01 -0.19248988793E+02 -0.20896105858E+02  0.28627291347E+02  0.00000000000E+00 0. -1.
</event>
<event>
 7    1  0.2972263E-013  0.7246157E+02  0.7816164E-02  0.1226708E+00
        -11   -1    0    0    0    0  0.00000000000E+00  0.00000000000E+00  0.45593999997E+02  0.45594000000E+02  0.51100000000E-03 0.  1.
         11   -1    0    0    0    0 -0.00000000000E+00 -0.00000000000E+00 -0.45593999997E+02  0.45594000000E+02  0.51100000000E-03 0. -1.
    9900012    2    1    2    0    0  0.65467474491E+01  0.14650645143E+02  0.96528748083E+01  0.72461566882E+02  0.69999995554E+02 0.  0.
         12    1    1    2    0    0 -0.65467474491E+01 -0.14650645143E+02 -0.96528748083E+01  0.18726433118E+02  0.00000000000E+00 0. -1.
         11    1    3    3    0    0  0.28458976812E+01 -0.85327652803E+01  0.13733552368E+02  0.16416993569E+02  0.51100000000E-03 0. -1.
        -11    1    3    3    0    0 -0.12426660698E+01  0.21715786576E+02  0.21122274824E+02  0.30319467337E+02  0.51100000000E-03 0.  1.
         12    1    3    3    0    0  0.49435158377E+01  0.14676238472E+01 -0.25202952384E+02  0.25725105976E+02  0.00000000000E+00 0. -1.
</event>
<event>
 7    1  0.2972263E-013  0.7246158E+02  0.7816164E-02  0.1226708E+00
        -11   -1    0    0    0    0  0.00000000000E+00  0.00000000000E+00  0.45593999997E+02  0.45594000000E+02  0.51100000000E-03 0.  1.
         11   -1    0    0    0    0 -0.00000000000E+00 -0.00000000000E+00 -0.45593999997E+02  0.45594000000E+02  0.51100000000E-03 0. -1.
    9900012    2    1    2    0    0 -0.13657530910E+02 -0.12504901599E+02 -0.27889059705E+01  0.72461582535E+02  0.70000015946E+02 0.  0.
         12    1    1    2    0    0  0.13657530910E+02  0.12504901599E+02  0.27889059705E+01  0.18726417465E+02  0.00000000000E+00 0. -1.
         11    1    3    3    0    0 -0.48132563675E+01 -0.19549060125E+02 -0.60411063417E+01  0.21019708721E+02  0.51100000000E-03 0. -1.
        -11    1    3    3    0    0 -0.71992023995E+01 -0.17568923091E+02  0.14925869751E+02  0.24151131688E+02  0.51100000000E-03 0.  1.
         12    1    3    3    0    0 -0.16450721427E+01  0.24613081616E+02 -0.11673669379E+02  0.27290742126E+02  0.00000000000E+00 0. -1.
</event>
<event>
 7    1  0.2972263E-013  0.7246153E+02  0.7816164E-02  0.1226708E+00
        -11   -1    0    0    0    0  0.00000000000E+00  0.00000000000E+00  0.45593999997E+02  0.45594000000E+02  0.51100000000E-03 0.  1.
         11   -1    0    0    0    0 -0.00000000000E+00 -0.00000000000E+00 -0.45593999997E+02  0.45594000000E+02  0.51100000000E-03 0. -1.
    9900012    2    1    2    0    0  0.11323779287E+02  0.81748382071E+01  0.12474963530E+02  0.72461530175E+02  0.69999947737E+02 0.  0.
         12    1    1    2    0    0 -0.11323779287E+02 -0.81748382071E+01 -0.12474963530E+02  0.18726469825E+02  0.00000000000E+00 0. -1.
         11    1    3    3    0    0 -0.26647738984E+01  0.41573722640E+01  0.17831711582E+02  0.18502829575E+02  0.51100000000E-03 0. -1.
        -11    1    3    3    0    0  0.27943066144E+01  0.22818595484E+02  0.12089076510E+02  0.25973875730E+02  0.51100000000E-03 0.  1.
         12    1    3    3    0    0  0.11194246571E+02 -0.18801129541E+02 -0.17445824563E+02  0.27984824869E+02  0.00000000000E+00 0. -1.
</event>
<event>
 7    1  0.4333299E-013  0.7246155E+02  0.7816164E-02  0.1226708E+00
        -11   -1    0    0    0    0  0.00000000000E+00  0.00000000000E+00  0.45593999997E+02  0.45594000000E+02  0.51100000000E-03 0. -1.
         11   -1    0    0    0    0 -0.00000000000E+00 -0.00000000000E+00 -0.45593999997E+02  0.45594000000E+02  0.51100000000E-03 0.  1.
    9900012    2    1    2    0    0  0.12651348136E+02 -0.20809339355E+01 -0.13648917983E+02  0.72461551917E+02  0.69999976061E+02 0.  0.
         12    1    1    2    0    0 -0.12651348136E+02  0.20809339355E+01  0.13648917983E+02  0.18726448083E+02  0.00000000000E+00 0. -1.
         11    1    3    3    0    0 -0.11408240356E+02  0.24154789516E+02  0.43613422162E+01  0.27067011486E+02  0.51100000000E-03 0. -1.
        -11    1    3    3    0    0 -0.31151368978E+01 -0.60282393883E+00  0.11947947114E+01  0.33904290668E+01  0.51100000000E-03 0.  1.
        -12    1    3    3    0    0  0.27174725390E+02 -0.25632899513E+02 -0.19205054910E+02  0.42004111365E+02  0.00000000000E+00 0.  1.
</event>
<event>
 7    1  0.2972263E-013  0.7246154E+02  0.7816164E-02  0.1226708E+00
        -11   -1    0    0    0    0  0.00000000000E+00  0.00000000000E+00  0.45593999997E+02  0.45594000000E+02  0.51100000000E-03 0. -1.
         11   -1    0    0    0    0 -0.00000000000E+00 -0.00000000000E+00 -0.45593999997E+02  0.45594000000E+02  0.51100000000E-03 0.  1.
    9900012    2    1    2    0    0  0.12110787862E+02  0.13879482666E+02 -0.33718290418E+01  0.72461536031E+02  0.69999955366E+02 0.  0.
         12    1    1    2    0    0 -0.12110787862E+02 -0.13879482666E+02  0.33718290418E+01  0.18726463969E+02  0.00000000000E+00 0. -1.
         11    1    3    3    0    0  0.20531101578E+02 -0.10881512357E+02  0.53580758777E+01  0.23846224451E+02  0.51100000000E-03 0. -1.
        -11    1    3    3    0    0 -0.67000724977E+01 -0.10398163117E+02 -0.44906997217E+01  0.13159755010E+02  0.51100000000E-03 0.  1.
         12    1    3    3    0    0 -0.17202412190E+01  0.35159158140E+02 -0.42392051979E+01  0.35455556570E+02  0.00000000000E+00 0. -1.
</event>
<event>
 7    1  0.2972263E-013  0.7246163E+02  0.7816164E-02  0.1226708E+00
        -11   -1    0    0    0    0  0.00000000000E+00  0.00000000000E+00  0.45593999997E+02  0.45594000000E+02  0.51100000000E-03 0.  1.
         11   -1    0    0    0    0 -0.00000000000E+00 -0.00000000000E+00 -0.45593999997E+02  0.45594000000E+02  0.51100000000E-03 0. -1.
    9900012    2    1    2    0    0  0.61206419626E+01  0.13110932167E+02 -0.11887728436E+02  0.72461631220E+02  0.70000079367E+02 0.  0.
         12    1    1    2    0    0 -0.61206419626E+01 -0.13110932167E+02  0.11887728436E+02  0.18726368780E+02  0.00000000000E+00 0. -1.
         11    1    3    3    0    0  0.35034053152E+01  0.13651975954E+02 -0.74995065480E+01  0.15965365482E+02  0.51100000000E-03 0. -1.
        -11    1    3    3    0    0 -0.77459814474E+01 -0.23133113883E+02 -0.15884173380E+02  0.29110962724E+02  0.51100000000E-03 0.  1.
         12    1    3    3    0    0  0.10363218095E+02  0.22592070095E+02  0.11495951492E+02  0.27385303014E+02  0.00000000000E+00 0. -1.
</event>
<event>
 7    1  0.2972263E-013  0.7246159E+02  0.7816164E-02  0.1226708E+00
        -11   -1    0    0    0    0  0.00000000000E+00  0.00000000000E+00  0.45593999997E+02  0.45594000000E+02  0.51100000000E-03 0.  1.
         11   -1    0    0    0    0 -0.00000000000E+00 -0.00000000000E+00 -0.45593999997E+02  0.45594000000E+02  0.51100000000E-03 0. -1.
    9900012    2    1    2    0    0  0.75861327225E+01 -0.10300373619E+02  0.13675944240E+02  0.72461586643E+02  0.70000021297E+02 0.  0.
         12    1    1    2    0    0 -0.75861327225E+01  0.10300373619E+02 -0.13675944240E+02  0.18726413357E+02  0.00000000000E+00 0. -1.
         11    1    3    3    0    0  0.12208785698E+02  0.81383298097E+01 -0.34133436581E+01  0.15064454040E+02  0.51100000000E-03 0. -1.
        -11    1    3    3    0    0 -0.13803989419E+02  0.13019165704E+02  0.15648391694E+02  0.24595141032E+02  0.51100000000E-03 0.  1.
         12    1    3    3    0    0  0.91813364427E+01 -0.31457869132E+02  0.14408962039E+01  0.32801991572E+02  0.00000000000E+00 0. -1.
</event>
<event>
 7    1  0.2972263E-013  0.7246165E+02  0.7816164E-02  0.1226708E+00
        -11   -1    0    0    0    0  0.00000000000E+00  0.00000000000E+00  0.45593999997E+02  0.45594000000E+02  0.51100000000E-03 0. -1.
         11   -1    0    0    0    0 -0.00000000000E+00 -0.00000000000E+00 -0.45593999997E+02  0.45594000000E+02  0.51100000000E-03 0.  1.
    9900012    2    1    2    0    0 -0.14753730937E+02 -0.40354690539E+01 -0.10803644025E+02  0.72461646610E+02  0.70000099416E+02 0.  0.
         12    1    1    2    0    0  0.14753730937E+02  0.40354690539E+01  0.10803644025E+02  0.18726353390E+02  0.00000000000E+00 0. -1.
         11    1    3    3    0    0 -0.89466828229E+01  0.25178329896E+01  0.25292974616E-01  0.92942593299E+01  0.51100000000E-03 0. -1.
        -11    1    3    3    0    0 -0.20523393525E+02  0.91735793997E+01 -0.27795844919E+02  0.35748751528E+02  0.51100000000E-03 0.  1.
         12    1    3    3    0    0  0.14716345411E+02 -0.15726881443E+02  0.16966907919E+02  0.27418635752E+02  0.00000000000E+00 0. -1.
</event>
<event>
 7    1  0.2972263E-013  0.7246158E+02  0.7816164E-02  0.1226708E+00
        -11   -1    0    0    0    0  0.00000000000E+00  0.00000000000E+00  0.45593999997E+02  0.45594000000E+02  0.51100000000E-03 0.  1.
         11   -1    0    0    0    0 -0.00000000000E+00 -0.00000000000E+00 -0.45593999997E+02  0.45594000000E+02  0.51100000000E-03 0. -1.
    9900012    2    1    2    0    0 -0.13275350290E+02  0.51542637714E+01 -0.12160481172E+02  0.72461583827E+02  0.70000017629E+02 0.  0.
         12    1    1    2    0    0  0.13275350290E+02 -0.51542637714E+01  0.12160481172E+02  0.18726416173E+02  0.00000000000E+00 0. -1.
         11    1    3    3    0    0  0.24093518089E+02 -0.20626446169E+01 -0.74663142801E+01  0.25308061283E+02  0.51100000000E-03 0. -1.
        -11    1    3    3    0    0  0.30819436148E+01  0.56376185537E+01 -0.10199913383E+01  0.65054978283E+01  0.51100000000E-03 0.  1.
        -12    1    3    3    0    0 -0.40450811994E+02  0.15792898346E+01 -0.36741755532E+01  0.40648024716E+02  0.00000000000E+00 0.  1.
</event>
<event>
 7    1  0.2972263E-013  0.7246158E+02  0.7816164E-02  0.1226708E+00
        -11   -1    0    0    0    0  0.00000000000E+00  0.00000000000E+00  0.45593999997E+02  0.45594000000E+02  0.51100000000E-03 0.  1.
         11   -1    0    0    0    0 -0.00000000000E+00 -0.00000000000E+00 -0.45593999997E+02  0.45594000000E+02  0.51100000000E-03 0. -1.
    9900012    2    1    2    0    0 -0.50364223993E+01  0.13046139004E+02  0.12454378947E+02  0.72461578867E+02  0.70000011167E+02 0.  0.
         12    1    1    2    0    0  0.50364223993E+01 -0.13046139004E+02 -0.12454378947E+02  0.18726421133E+02  0.00000000000E+00 0. -1.
         11    1    3    3    0    0  0.12580566763E+02 -0.22524532607E+02  0.86931680023E+00  0.25814355332E+02  0.51100000000E-03 0. -1.
        -11    1    3    3    0    0 -0.70895791278E+00 -0.52708751333E+00  0.63876285763E+01  0.64484293947E+01  0.51100000000E-03 0.  1.
        -12    1    3    3    0    0 -0.16908031249E+02  0.36097759125E+02  0.51974335704E+01  0.40198794140E+02  0.00000000000E+00 0.  1.
</event>
<event>
 7    1  0.2972263E-013  0.7246156E+02  0.7816164E-02  0.1226708E+00
        -11   -1    0    0    0    0  0.00000000000E+00  0.00000000000E+00  0.45593999997E+02  0.45594000000E+02  0.51100000000E-03 0. -1.
         11   -1    0    0    0    0 -0.00000000000E+00 -0.00000000000E+00 -0.45593999997E+02  0.45594000000E+02  0.51100000000E-03 0.  1.
    9900012    2    1    2    0    0 -0.47513284870E+01  0.15235293556E+02 -0.97974545305E+01  0.72461563943E+02  0.69999991726E+02 0.  0.
         12    1    1    2    0    0  0.47513284870E+01 -0.15235293556E+02  0.97974545305E+01  0.18726436057E+02  0.00000000000E+00 0. -1.
         11    1    3    3    0    0 -0.22224857657E+02  0.18813494801E+02  0.12201898221E+02  0.31571794453E+02  0.51100000000E-03 0. -1.
        -11    1    3    3    0    0  0.99562519863E+01  0.10031367057E+02 -0.22614975790E+00  0.14135289973E+02  0.51100000000E-03 0.  1.
         12    1    3    3    0    0  0.75172771837E+01 -0.13609568302E+02 -0.21773202994E+02  0.26754479517E+02  0.00000000000E+00 0. -1.
</event>
<event>
 7    1  0.2972263E-013  0.7246161E+02  0.7816164E-02  0.1226708E+00
        -11   -1    0    0    0    0  0.00000000000E+00  0.00000000000E+00  0.45593999997E+02  0.45594000000E+02  0.51100000000E-03 0.  1.
         11   -1    0    0    0    0 -0.00000000000E+00 -0.00000000000E+00 -0.45593999997E+02  0.45594000000E+02  0.51100000000E-03 0. -1.
    9900012    2    1    2    0    0  0.31804692372E+00  0.18304683546E+02  0.39389207036E+01  0.72461609801E+02  0.70000051465E+02 0.  0.
         12    1    1    2    0    0 -0.31804692372E+00 -0.18304683546E+02 -0.39389207036E+01  0.18726390199E+02  0.00000000000E+00 0. -1.
         11    1    3    3    0    0 -0.16918237064E+02 -0.61229398703E+01 -0.12310988547E+02  0.21800861847E+02  0.51100000000E-03 0. -1.
        -11    1    3    3    0    0  0.51918851983E+01 -0.34578098727E+01 -0.91438575658E+01  0.11068977029E+02  0.51100000000E-03 0.  1.
         12    1    3    3    0    0  0.12044398789E+02  0.27885433289E+02  0.25393766816E+02  0.39591770926E+02  0.00000000000E+00 0. -1.
</event>
<event>
 7    1  0.2972263E-013  0.7246142E+02  0.7816164E-02  0.1226708E+00
        -11   -1    0    0    0    0  0.00000000000E+00  0.00000000000E+00  0.45593999997E+02  0.45594000000E+02  0.51100000000E-03 0. -1.
         11   -1    0    0    0    0 -0.00000000000E+00 -0.00000000000E+00 -0.45593999997E+02  0.45594000000E+02  0.51100000000E-03 0.  1.
    9900012    2    1    2    0    0 -0.10444264105E+02  0.53129271218E+00 -0.15534478591E+02  0.72461415962E+02  0.69999798954E+02 0.  0.
         12    1    1    2    0    0  0.10444264105E+02 -0.53129271218E+00  0.15534478591E+02  0.18726584038E+02  0.00000000000E+00 0. -1.
         11    1    3    3    0    0  0.96178481193E+01 -0.60747479072E+00 -0.91362925740E+01  0.13279452938E+02  0.51100000000E-03 0.  1.
        -11    1    3    3    0    0 -0.26123961649E+02 -0.21248692959E+02 -0.11216078623E+02  0.35493221108E+02  0.51100000000E-03 0. -1.
         12    1    3    3    0    0  0.60618494245E+01  0.22387460462E+02  0.48178926068E+01  0.23688741916E+02  0.00000000000E+00 0. -1.
</event>
<event>
 7    1  0.2972263E-013  0.7246158E+02  0.7816164E-02  0.1226708E+00
        -11   -1    0    0    0    0  0.00000000000E+00  0.00000000000E+00  0.45593999997E+02  0.45594000000E+02  0.51100000000E-03 0. -1.
         11   -1    0    0    0    0 -0.00000000000E+00 -0.00000000000E+00 -0.45593999997E+02  0.45594000000E+02  0.51100000000E-03 0.  1.
    9900012    2    1    2    0    0 -0.10630050029E+02  0.15396857148E+02 -0.78593240619E+00  0.72461578468E+02  0.70000010647E+02 0.  0.
         12    1    1    2    0    0  0.10630050029E+02 -0.15396857148E+02  0.78593240619E+00  0.18726421532E+02  0.00000000000E+00 0. -1.
         11    1    3    3    0    0 -0.35664171533E+01 -0.20172850408E+02  0.14512032937E+02  0.25105025894E+02  0.51100000000E-03 0. -1.
        -11    1    3    3    0    0 -0.94581579275E+01  0.17655676963E+01  0.11447027208E+01  0.96893924088E+01  0.51100000000E-03 0.  1.
        -12    1    3    3    0    0  0.23945250518E+01  0.33804139860E+02 -0.16442668064E+02  0.37667160166E+02  0.00000000000E+00 0.  1.
</event>
<event>
 7    1  0.2972263E-013  0.7246149E+02  0.7816164E-02  0.1226708E+00
        -11   -1    0    0    0    0  0.00000000000E+00  0.00000000000E+00  0.45593999997E+02  0.45594000000E+02  0.51100000000E-03 0.  1.
         11   -1    0    0    0    0 -0.00000000000E+00 -0.00000000000E+00 -0.45593999997E+02  0.45594000000E+02  0.51100000000E-03 0. -1.
    9900012    2    1    2    0    0 -0.85690781874E+01  0.64304080068E+01  0.15359128617E+02  0.72461492584E+02  0.69999898768E+02 0.  0.
         12    1    1    2    0    0  0.85690781874E+01 -0.64304080068E+01 -0.15359128617E+02  0.18726507416E+02  0.00000000000E+00 0. -1.
         11    1    3    3    0    0 -0.72378862967E+01  0.18562907231E+02  0.13166911337E+00  0.19924504007E+02  0.51100000000E-03 0. -1.
        -11    1    3    3    0    0  0.69103051278E+01  0.15612171526E+01  0.29968468827E+02  0.30794461191E+02  0.51100000000E-03 0.  1.
         12    1    3    3    0    0 -0.82414970185E+01 -0.13693716377E+02 -0.14741009323E+02  0.21742527387E+02  0.00000000000E+00 0. -1.
</event>
<event>
 7    1  0.2972263E-013  0.7246155E+02  0.7816164E-02  0.1226708E+00
        -11   -1    0    0    0    0  0.00000000000E+00  0.00000000000E+00  0.45593999997E+02  0.45594000000E+02  0.51100000000E-03 0.  1.
         11   -1    0    0    0    0 -0.00000000000E+00 -0.00000000000E+00 -0.45593999997E+02  0.45594000000E+02  0.51100000000E-03 0. -1.
    9900012    2    1    2    0    0  0.52707381719E+01  0.18158788178E+01  0.17877407241E+02  0.72461553823E+02  0.69999978543E+02 0.  0.
         12    1    1    2    0    0 -0.52707381719E+01 -0.18158788178E+01 -0.17877407241E+02  0.18726446177E+02  0.00000000000E+00 0. -1.
         11    1    3    3    0    0 -0.50426925522E+01  0.10999477499E+02 -0.22552078263E+02  0.25593231286E+02  0.51100000000E-03 0. -1.
        -11    1    3    3    0    0  0.92786570336E+01 -0.73533776512E+01  0.78144740345E+01  0.14185613978E+02  0.51100000000E-03 0.  1.
        -12    1    3    3    0    0  0.10347736905E+01 -0.18302210301E+01  0.32615011469E+02  0.32682708559E+02  0.00000000000E+00 0.  1.
</event>
<event>
 7    1  0.2972263E-013  0.7246156E+02  0.7816164E-02  0.1226708E+00
        -11   -1    0    0    0    0  0.00000000000E+00  0.00000000000E+00  0.45593999997E+02  0.45594000000E+02  0.51100000000E-03 0.  1.
         11   -1    0    0    0    0 -0.00000000000E+00 -0.00000000000E+00 -0.45593999997E+02  0.45594000000E+02  0.51100000000E-03 0. -1.
    9900012    2    1    2    0    0 -0.10947752434E+02  0.94470169229E+01  0.11898747636E+02  0.72461558603E+02  0.69999984770E+02 0.  0.
         12    1    1    2    0    0  0.10947752434E+02 -0.94470169229E+01 -0.11898747636E+02  0.18726441397E+02  0.00000000000E+00 0. -1.
         11    1    3    3    0    0  0.45249698795E+01  0.77724407102E+01  0.17527784135E+02  0.19700492480E+02  0.51100000000E-03 0.  1.
        -11    1    3    3    0    0  0.72154903719E+01 -0.13301374135E+02  0.12881157847E+02  0.19872445319E+02  0.51100000000E-03 0. -1.
         12    1    3    3    0    0 -0.22688212686E+02  0.14975950348E+02 -0.18510194346E+02  0.32888620805E+02  0.00000000000E+00 0. -1.
</event>
<event>
 7    1  0.2972263E-013  0.7246166E+02  0.7816164E-02  0.1226708E+00
        -11   -1    0    0    0    0  0.00000000000E+00  0.00000000000E+00  0.45593999997E+02  0.45594000000E+02  0.51100000000E-03 0. -1.
         11   -1    0    0    0    0 -0.00000000000E+00 -0.00000000000E+00 -0.45593999997E+02  0.45594000000E+02  0.51100000000E-03 0.  1.
    9900012    2    1    2    0    0 -0.16965275516E+02 -0.41799570197E+00 -0.79170982490E+01  0.72461661905E+02  0.70000119340E+02 0.  0.
         12    1    1    2    0    0  0.16965275516E+02  0.41799570197E+00  0.79170982490E+01  0.18726338095E+02  0.00000000000E+00 0. -1.
         11    1    3    3    0    0 -0.22882940877E+02 -0.36203038647E+01  0.15417933196E+02  0.27828910283E+02  0.51100000000E-03 0. -1.
        -11    1    3    3    0    0 -0.13501611705E+02  0.21394586913E+01  0.73229775504E+00  0.13689669915E+02  0.51100000000E-03 0.  1.
        -12    1    3    3    0    0  0.19419277065E+02  0.10628494714E+01 -0.24067329200E+02  0.30943081707E+02  0.00000000000E+00 0.  1.
</event>
<event>
 7    1  0.2972263E-013  0.7246158E+02  0.7816164E-02  0.1226708E+00
        -11   -1    0    0    0    0  0.00000000000E+00  0.00000000000E+00  0.45593999997E+02  0.45594000000E+02  0.51100000000E-03 0.  1.
         11   -1    0    0    0    0 -0.00000000000E+00 -0.00000000000E+00 -0.45593999997E+02  0.45594000000E+02  0.51100000000E-03 0. -1.
    9900012    2    1    2    0    0  0.12384995879E+02  0.80301615471E+01  0.11524199783E+02  0.72461580213E+02  0.70000012921E+02 0.  0.
         12    1    1    2    0    0 -0.12384995879E+02 -0.80301615471E+01 -0.11524199783E+02  0.18726419787E+02  0.00000000000E+00 0. -1.
         11    1    3    3    0    0 -0.11636335576E+02 -0.10568549528E+02 -0.15516563258E+02  0.22087604677E+02  0.51100000000E-03 0. -1.
        -11    1    3    3    0    0 -0.51619040653E+01 -0.19234289267E+01  0.86008082236E+01  0.10213654330E+02  0.51100000000E-03 0.  1.
        -12    1    3    3    0    0  0.29183235521E+02  0.20522140002E+02  0.18439954817E+02  0.40160321206E+02  0.00000000000E+00 0.  1.
</event>
<event>
 7    1  0.2972263E-013  0.7246152E+02  0.7816164E-02  0.1226708E+00
        -11   -1    0    0    0    0  0.00000000000E+00  0.00000000000E+00  0.45593999997E+02  0.45594000000E+02  0.51100000000E-03 0. -1.
         11   -1    0    0    0    0 -0.00000000000E+00 -0.00000000000E+00 -0.45593999997E+02  0.45594000000E+02  0.51100000000E-03 0.  1.
    9900012    2    1    2    0    0 -0.18056460794E+02  0.46680257337E+00  0.49424236558E+01  0.72461515209E+02  0.69999928240E+02 0.  0.
         12    1    1    2    0    0  0.18056460794E+02 -0.46680257337E+00 -0.49424236558E+01  0.18726484791E+02  0.00000000000E+00 0. -1.
         11    1    3    3    0    0 -0.18598887682E+02 -0.15680783702E+00  0.30055810728E+02  0.35345367030E+02  0.51100000000E-03 0. -1.
        -11    1    3    3    0    0 -0.23790268818E+01 -0.10392547810E+02 -0.13312278952E+01  0.10744160593E+02  0.51100000000E-03 0.  1.
        -12    1    3    3    0    0  0.29214537700E+01  0.11016158220E+02 -0.23782159177E+02  0.26371987585E+02  0.00000000000E+00 0.  1.
</event>
<event>
 7    1  0.2972263E-013  0.7246160E+02  0.7816164E-02  0.1226708E+00
        -11   -1    0    0    0    0  0.00000000000E+00  0.00000000000E+00  0.45593999997E+02  0.45594000000E+02  0.51100000000E-03 0.  1.
         11   -1    0    0    0    0 -0.00000000000E+00 -0.00000000000E+00 -0.45593999997E+02  0.45594000000E+02  0.51100000000E-03 0. -1.
    9900012    2    1    2    0    0 -0.15573641997E+02  0.96239072974E+01  0.39395550244E+01  0.72461601240E+02  0.70000040313E+02 0.  0.
         12    1    1    2    0    0  0.15573641997E+02 -0.96239072974E+01 -0.39395550244E+01  0.18726398760E+02  0.00000000000E+00 0. -1.
         11    1    3    3    0    0 -0.94833021362E+01  0.57547124919E+01  0.13303857089E+01  0.11172272001E+02  0.51100000000E-03 0. -1.
        -11    1    3    3    0    0 -0.56389664263E+01  0.21396725771E+02  0.24650403061E+02  0.33124917923E+02  0.51100000000E-03 0.  1.
         12    1    3    3    0    0 -0.45137343452E+00 -0.17527530966E+02 -0.22041233745E+02  0.28164411316E+02  0.00000000000E+00 0. -1.
</event>
<event>
 7    1  0.2972263E-013  0.7246155E+02  0.7816164E-02  0.1226708E+00
        -11   -1    0    0    0    0  0.00000000000E+00  0.00000000000E+00  0.45593999997E+02  0.45594000000E+02  0.51100000000E-03 0. -1.
         11   -1    0    0    0    0 -0.00000000000E+00 -0.00000000000E+00 -0.45593999997E+02  0.45594000000E+02  0.51100000000E-03 0.  1.
    9900012    2    1    2    0    0  0.10339928953E+01  0.17372064349E+02 -0.69153612499E+01  0.72461548594E+02  0.69999971731E+02 0.  0.
         12    1    1    2    0    0 -0.10339928953E+01 -0.17372064349E+02  0.69153612499E+01  0.18726451406E+02  0.00000000000E+00 0. -1.
         11    1    3    3    0    0  0.16507120020E+02  0.45915525086E+00 -0.21340092565E+02  0.26983242686E+02  0.51100000000E-03 0. -1.
        -11    1    3    3    0    0  0.53114817413E+01  0.14098156226E+02 -0.59867122786E+01  0.16211433355E+02  0.51100000000E-03 0.  1.
        -12    1    3    3    0    0 -0.20784608866E+02  0.28147528722E+01  0.20411443594E+02  0.29266872553E+02  0.00000000000E+00 0.  1.
</event>
<event>
 7    1  0.2972263E-013  0.7246162E+02  0.7816164E-02  0.1226708E+00
        -11   -1    0    0    0    0  0.00000000000E+00  0.00000000000E+00  0.45593999997E+02  0.45594000000E+02  0.51100000000E-03 0. -1.
         11   -1    0    0    0    0 -0.00000000000E+00 -0.00000000000E+00 -0.45593999997E+02  0.45594000000E+02  0.51100000000E-03 0.  1.
    9900012    2    1    2    0    0 -0.16546475415E+02  0.65803766139E+00 -0.87440461927E+01  0.72461622719E+02  0.70000068293E+02 0.  0.
         12    1    1    2    0    0  0.16546475415E+02 -0.65803766139E+00  0.87440461927E+01  0.18726377281E+02  0.00000000000E+00 0. -1.
         11    1    3    3    0    0  0.12006326716E+02  0.48459594306E+01 -0.14861905528E+01  0.13032419830E+02  0.51100000000E-03 0.  1.
        -11    1    3    3    0    0 -0.34080539296E+02 -0.88289745357E+01 -0.23040186532E+02  0.42074744749E+02  0.51100000000E-03 0. -1.
         12    1    3    3    0    0  0.55277371649E+01  0.46410527665E+01  0.15782330892E+02  0.17354458140E+02  0.00000000000E+00 0. -1.
</event>
<event>
 7    1  0.2972263E-013  0.7246172E+02  0.7816164E-02  0.1226708E+00
        -11   -1    0    0    0    0  0.00000000000E+00  0.00000000000E+00  0.45593999997E+02  0.45594000000E+02  0.51100000000E-03 0.  1.
         11   -1    0    0    0    0 -0.00000000000E+00 -0.00000000000E+00 -0.45593999997E+02  0.45594000000E+02  0.51100000000E-03 0. -1.
    9900012    2    1    2    0    0 -0.44626729301E+01  0.99697466780E+01  0.15210592293E+02  0.72461723904E+02  0.70000200105E+02 0.  0.
         12    1    1    2    0    0  0.44626729301E+01 -0.99697466780E+01 -0.15210592293E+02  0.18726276096E+02  0.00000000000E+00 0. -1.
         11    1    3    3    0    0 -0.18503916075E+01 -0.72114907233E+01  0.41485249165E+01  0.85228989668E+01  0.51100000000E-03 0. -1.
        -11    1    3    3    0    0 -0.14376838251E+02 -0.15566419339E+01  0.30967460318E+02  0.34177481052E+02  0.51100000000E-03 0.  1.
         12    1    3    3    0    0  0.11764556929E+02  0.18737879335E+02 -0.19905392942E+02  0.29761343886E+02  0.00000000000E+00 0. -1.
</event>
<event>
 7    1  0.2972263E-013  0.7246155E+02  0.7816164E-02  0.1226708E+00
        -11   -1    0    0    0    0  0.00000000000E+00  0.00000000000E+00  0.45593999997E+02  0.45594000000E+02  0.51100000000E-03 0. -1.
         11   -1    0    0    0    0 -0.00000000000E+00 -0.00000000000E+00 -0.45593999997E+02  0.45594000000E+02  0.51100000000E-03 0.  1.
    9900012    2    1    2    0    0 -0.14928023120E+02 -0.59742377833E+01 -0.95990858666E+01  0.72461552370E+02  0.69999976650E+02 0.  0.
         12    1    1    2    0    0  0.14928023120E+02  0.59742377833E+01  0.95990858666E+01  0.18726447630E+02  0.00000000000E+00 0. -1.
         11    1    3    3    0    0 -0.86224083130E+01 -0.42836813741E+01  0.14092373427E+02  0.17067244661E+02  0.51100000000E-03 0. -1.
        -11    1    3    3    0    0 -0.90236702009E+01 -0.22488330745E+02 -0.24426934267E+02  0.34406783656E+02  0.51100000000E-03 0.  1.
         12    1    3    3    0    0  0.27180553935E+01  0.20797774336E+02  0.73547497352E+00  0.20987524053E+02  0.00000000000E+00 0. -1.
</event>
<event>
 7    1  0.2972263E-013  0.7246158E+02  0.7816164E-02  0.1226708E+00
        -11   -1    0    0    0    0  0.00000000000E+00  0.00000000000E+00  0.45593999997E+02  0.45594000000E+02  0.51100000000E-03 0.  1.
         11   -1    0    0    0    0 -0.00000000000E+00 -0.00000000000E+00 -0.45593999997E+02  0.45594000000E+02  0.51100000000E-03 0. -1.
    9900012    2    1    2    0    0  0.39994958541E+01  0.13165970951E+02  0.12701969991E+02  0.72461580165E+02  0.70000012859E+02 0.  0.
         12    1    1    2    0    0 -0.39994958541E+01 -0.13165970951E+02 -0.12701969991E+02  0.18726419835E+02  0.00000000000E+00 0. -1.
         11    1    3    3    0    0  0.65658432520E+01  0.19814240994E+02  0.74005951297E+01  0.22146856489E+02  0.51100000000E-03 0. -1.
        -11    1    3    3    0    0  0.57857562831E+01  0.69486098155E+00  0.26092945635E+02  0.26735736753E+02  0.51100000000E-03 0.  1.
         12    1    3    3    0    0 -0.83521036810E+01 -0.73431310251E+01 -0.20791570773E+02  0.23578986924E+02  0.00000000000E+00 0. -1.
</event>
<event>
 7    1  0.2972263E-013  0.7246159E+02  0.7816164E-02  0.1226708E+00
        -11   -1    0    0    0    0  0.00000000000E+00  0.00000000000E+00  0.45593999997E+02  0.45594000000E+02  0.51100000000E-03 0. -1.
         11   -1    0    0    0    0 -0.00000000000E+00 -0.00000000000E+00 -0.45593999997E+02  0.45594000000E+02  0.51100000000E-03 0.  1.
    9900012    2    1    2    0    0 -0.12667508461E+02  0.98684236730E+01 -0.96346794379E+01  0.72461585387E+02  0.70000019661E+02 0.  0.
         12    1    1    2    0    0  0.12667508461E+02 -0.98684236730E+01  0.96346794379E+01  0.18726414613E+02  0.00000000000E+00 0. -1.
         11    1    3    3    0    0 -0.18943561081E+02  0.21551714623E+02 -0.10856172541E+02  0.30678842744E+02  0.51100000000E-03 0. -1.
        -11    1    3    3    0    0 -0.12230768580E+02 -0.17499185446E+02 -0.39363180815E+01  0.21709624401E+02  0.51100000000E-03 0.  1.
         12    1    3    3    0    0  0.18506821201E+02  0.58158944959E+01  0.51578111848E+01  0.20073118242E+02  0.00000000000E+00 0. -1.
</event>
<event>
 7    1  0.2972263E-013  0.7246156E+02  0.7816164E-02  0.1226708E+00
        -11   -1    0    0    0    0  0.00000000000E+00  0.00000000000E+00  0.45593999997E+02  0.45594000000E+02  0.51100000000E-03 0. -1.
         11   -1    0    0    0    0 -0.00000000000E+00 -0.00000000000E+00 -0.45593999997E+02  0.45594000000E+02  0.51100000000E-03 0.  1.
    9900012    2    1    2    0    0 -0.87396070592E+01 -0.14477591318E+02 -0.80435167537E+01  0.72461560304E+02  0.69999986986E+02 0.  0.
         12    1    1    2    0    0  0.87396070592E+01  0.14477591318E+02  0.80435167537E+01  0.18726439696E+02  0.00000000000E+00 0. -1.
         11    1    3    3    0    0  0.16651202462E+02 -0.68589600915E+01  0.21469409651E+02  0.28022195274E+02  0.51100000000E-03 0. -1.
        -11    1    3    3    0    0 -0.57313978156E+01  0.50260475476E+00  0.22786565929E+01  0.61881991395E+01  0.51100000000E-03 0.  1.
        -12    1    3    3    0    0 -0.19659411705E+02 -0.81212359814E+01 -0.31791582998E+02  0.38251165890E+02  0.00000000000E+00 0.  1.
</event>
<event>
 7    1  0.2972263E-013  0.7246160E+02  0.7816164E-02  0.1226708E+00
        -11   -1    0    0    0    0  0.00000000000E+00  0.00000000000E+00  0.45593999997E+02  0.45594000000E+02  0.51100000000E-03 0. -1.
         11   -1    0    0    0    0 -0.00000000000E+00 -0.00000000000E+00 -0.45593999997E+02  0.45594000000E+02  0.51100000000E-03 0.  1.
    9900012    2    1    2    0    0  0.15927468828E+02  0.32237497195E+01 -0.93059796997E+01  0.72461599286E+02  0.70000037767E+02 0.  0.
         12    1    1    2    0    0 -0.15927468828E+02 -0.32237497195E+01  0.93059796997E+01  0.18726400714E+02  0.00000000000E+00 0. -1.
         11    1    3    3    0    0  0.79382875877E+01 -0.19839677246E+02 -0.43407079150E+01  0.21805296341E+02  0.51100000000E-03 0. -1.
        -11    1    3    3    0    0  0.12887622808E+02  0.17835376227E+01  0.15837977920E+02  0.20496667362E+02  0.51100000000E-03 0.  1.
        -12    1    3    3    0    0 -0.48984415673E+01  0.21279889343E+02 -0.20803249705E+02  0.30159635583E+02  0.00000000000E+00 0.  1.
</event>
<event>
 7    1  0.3356667E-013  0.7246160E+02  0.7816164E-02  0.1226708E+00
        -11   -1    0    0    0    0  0.00000000000E+00  0.00000000000E+00  0.45593999997E+02  0.45594000000E+02  0.51100000000E-03 0. -1.
         11   -1    0    0    0    0 -0.00000000000E+00 -0.00000000000E+00 -0.45593999997E+02  0.45594000000E+02  0.51100000000E-03 0.  1.
    9900012    2    1    2    0    0  0.36662110617E+01  0.11711147550E+02 -0.14145171263E+02  0.72461602842E+02  0.70000042399E+02 0.  0.
         12    1    1    2    0    0 -0.36662110617E+01 -0.11711147550E+02  0.14145171263E+02  0.18726397158E+02  0.00000000000E+00 0. -1.
         11    1    3    3    0    0  0.41463049271E+01 -0.32837624201E+01  0.14292449211E+02  0.15239719318E+02  0.51100000000E-03 0. -1.
        -11    1    3    3    0    0 -0.21266974160E+02  0.11103634991E+02 -0.30566399103E+01  0.24185076963E+02  0.51100000000E-03 0.  1.
        -12    1    3    3    0    0  0.20786880294E+02  0.38912749787E+01 -0.25380980564E+02  0.33036806560E+02  0.00000000000E+00 0.  1.
</event>
<event>
 7    1  0.2972263E-013  0.7246156E+02  0.7816164E-02  0.1226708E+00
        -11   -1    0    0    0    0  0.00000000000E+00  0.00000000000E+00  0.45593999997E+02  0.45594000000E+02  0.51100000000E-03 0. -1.
         11   -1    0    0    0    0 -0.00000000000E+00 -0.00000000000E+00 -0.45593999997E+02  0.45594000000E+02  0.51100000000E-03 0.  1.
    9900012    2    1    2    0    0 -0.70457546630E+01  0.16968125996E+02 -0.36220954128E+01  0.72461560569E+02  0.69999987331E+02 0.  0.
         12    1    1    2    0    0  0.70457546630E+01 -0.16968125996E+02  0.36220954128E+01  0.18726439431E+02  0.00000000000E+00 0. -1.
         11    1    3    3    0    0 -0.28572321027E+02  0.17743338105E+02 -0.12904203613E+01  0.33658115826E+02  0.51100000000E-03 0. -1.
        -11    1    3    3    0    0 -0.61635537397E+01 -0.78020199117E+01  0.12129232529E+01  0.10016590861E+02  0.51100000000E-03 0.  1.
        -12    1    3    3    0    0  0.27690120104E+02  0.70268078021E+01 -0.35445983044E+01  0.28786853881E+02  0.00000000000E+00 0.  1.
</event>
<event>
 7    1  0.2972263E-013  0.7246159E+02  0.7816164E-02  0.1226708E+00
        -11   -1    0    0    0    0  0.00000000000E+00  0.00000000000E+00  0.45593999997E+02  0.45594000000E+02  0.51100000000E-03 0.  1.
         11   -1    0    0    0    0 -0.00000000000E+00 -0.00000000000E+00 -0.45593999997E+02  0.45594000000E+02  0.51100000000E-03 0. -1.
    9900012    2    1    2    0    0  0.52521358242E+01 -0.48622802171E+01  0.17304670525E+02  0.72461592934E+02  0.70000029492E+02 0.  0.
         12    1    1    2    0    0 -0.52521358242E+01  0.48622802171E+01 -0.17304670525E+02  0.18726407066E+02  0.00000000000E+00 0. -1.
         11    1    3    3    0    0 -0.31458514165E+01  0.10306583941E+02 -0.11608773185E+02  0.15839370846E+02  0.51100000000E-03 0. -1.
        -11    1    3    3    0    0  0.17207633865E+02  0.87503800467E+01  0.17688803560E+01  0.19385581038E+02  0.51100000000E-03 0.  1.
         12    1    3    3    0    0 -0.88096466247E+01 -0.23919244205E+02  0.27144563354E+02  0.37236641050E+02  0.00000000000E+00 0. -1.
</event>
<event>
 7    1  0.2972263E-013  0.7246153E+02  0.7816164E-02  0.1226708E+00
        -11   -1    0    0    0    0  0.00000000000E+00  0.00000000000E+00  0.45593999997E+02  0.45594000000E+02  0.51100000000E-03 0.  1.
         11   -1    0    0    0    0 -0.00000000000E+00 -0.00000000000E+00 -0.45593999997E+02  0.45594000000E+02  0.51100000000E-03 0. -1.
    9900012    2    1    2    0    0  0.13156293474E+01 -0.18417198203E+02  0.31235719933E+01  0.72461527502E+02  0.69999944255E+02 0.  0.
         12    1    1    2    0    0 -0.13156293474E+01  0.18417198203E+02 -0.31235719933E+01  0.18726472498E+02  0.00000000000E+00 0. -1.
         11    1    3    3    0    0 -0.10941183036E+02 -0.15001296836E+02 -0.19690470789E+02  0.27064054263E+02  0.51100000000E-03 0.  1.
        -11    1    3    3    0    0  0.10125361442E+02 -0.14701210783E+02 -0.20901341169E+01  0.17972679370E+02  0.51100000000E-03 0. -1.
        -12    1    3    3    0    0  0.21314509405E+01  0.11285309416E+02  0.24904176899E+02  0.27424793869E+02  0.00000000000E+00 0.  1.
</event>
<event>
 7    1  0.2972263E-013  0.7246156E+02  0.7816164E-02  0.1226708E+00
        -11   -1    0    0    0    0  0.00000000000E+00  0.00000000000E+00  0.45593999997E+02  0.45594000000E+02  0.51100000000E-03 0. -1.
         11   -1    0    0    0    0 -0.00000000000E+00 -0.00000000000E+00 -0.45593999997E+02  0.45594000000E+02  0.51100000000E-03 0.  1.
    9900012    2    1    2    0    0 -0.13061861944E+02 -0.20597403073E+01 -0.13259894697E+02  0.72461559470E+02  0.69999985899E+02 0.  0.
         12    1    1    2    0    0  0.13061861944E+02  0.20597403073E+01  0.13259894697E+02  0.18726440530E+02  0.00000000000E+00 0. -1.
         11    1    3    3    0    0  0.12458707173E+01 -0.10175520123E+02 -0.22141354971E+02  0.24399446794E+02  0.51100000000E-03 0. -1.
        -11    1    3    3    0    0 -0.83993383238E+00 -0.17072258656E+02 -0.25785333427E+01  0.17286304953E+02  0.51100000000E-03 0.  1.
        -12    1    3    3    0    0 -0.13467798829E+02  0.25188038471E+02  0.11459993617E+02  0.30775807723E+02  0.00000000000E+00 0.  1.
</event>
<event>
 7    1  0.2972263E-013  0.7246158E+02  0.7816164E-02  0.1226708E+00
        -11   -1    0    0    0    0  0.00000000000E+00  0.00000000000E+00  0.45593999997E+02  0.45594000000E+02  0.51100000000E-03 0.  1.
         11   -1    0    0    0    0 -0.00000000000E+00 -0.00000000000E+00 -0.45593999997E+02  0.45594000000E+02  0.51100000000E-03 0. -1.
    9900012    2    1    2    0    0  0.17402841234E+02 -0.61331075952E+01  0.31945162053E+01  0.72461579477E+02  0.70000011963E+02 0.  0.
         12    1    1    2    0    0 -0.17402841234E+02  0.61331075952E+01 -0.31945162053E+01  0.18726420523E+02  0.00000000000E+00 0. -1.
         11    1    3    3    0    0  0.19509770671E+01  0.12306537802E+01 -0.80500314585E+01  0.83739970735E+01  0.51100000000E-03 0. -1.
        -11    1    3    3    0    0  0.24429257598E+02 -0.23590679615E+02 -0.10464463626E+02  0.35536091382E+02  0.51100000000E-03 0.  1.
         12    1    3    3    0    0 -0.89773934303E+01  0.16226918240E+02  0.21709011290E+02  0.28551491022E+02  0.00000000000E+00 0. -1.
</event>
<event>
 7    1  0.2972263E-013  0.7246136E+02  0.7816164E-02  0.1226709E+00
        -11   -1    0    0    0    0  0.00000000000E+00  0.00000000000E+00  0.45593999997E+02  0.45594000000E+02  0.51100000000E-03 0. -1.
         11   -1    0    0    0    0 -0.00000000000E+00 -0.00000000000E+00 -0.45593999997E+02  0.45594000000E+02  0.51100000000E-03 0.  1.
    9900012    2    1    2    0    0  0.11142477464E+02 -0.14945528532E+02 -0.17785877490E+01  0.72461361179E+02  0.69999727588E+02 0.  0.
         12    1    1    2    0    0 -0.11142477464E+02  0.14945528532E+02  0.17785877490E+01  0.18726638821E+02  0.00000000000E+00 0. -1.
         11    1    3    3    0    0 -0.18050324027E+02 -0.13145823612E+02  0.23119802280E+02  0.32142683983E+02  0.51100000000E-03 0. -1.
        -11    1    3    3    0    0  0.21034492898E+01  0.22981178550E-01 -0.81516633287E+01  0.84187078780E+01  0.51100000000E-03 0.  1.
        -12    1    3    3    0    0  0.27089352201E+02 -0.18226860990E+01 -0.16746726701E+02  0.31899969318E+02  0.00000000000E+00 0.  1.
</event>
<event>
 7    1  0.2972263E-013  0.7246153E+02  0.7816164E-02  0.1226708E+00
        -11   -1    0    0    0    0  0.00000000000E+00  0.00000000000E+00  0.45593999997E+02  0.45594000000E+02  0.51100000000E-03 0.  1.
         11   -1    0    0    0    0 -0.00000000000E+00 -0.00000000000E+00 -0.45593999997E+02  0.45594000000E+02  0.51100000000E-03 0. -1.
    9900012    2    1    2    0    0 -0.14963566454E+02  0.10987094392E+02 -0.24609027718E+01  0.72461531923E+02  0.69999950014E+02 0.  0.
         12    1    1    2    0    0  0.14963566454E+02 -0.10987094392E+02  0.24609027718E+01  0.18726468077E+02  0.00000000000E+00 0. -1.
         11    1    3    3    0    0  0.74403879193E+01  0.35720566403E+02  0.42761116750E+01  0.36736948266E+02  0.51100000000E-03 0.  1.
        -11    1    3    3    0    0 -0.25187640716E+01 -0.80224681757E+01  0.13586441655E+01  0.85176336096E+01  0.51100000000E-03 0. -1.
        -12    1    3    3    0    0 -0.19885190302E+02 -0.16711003835E+02 -0.80956586123E+01  0.27206950047E+02  0.00000000000E+00 0.  1.
</event>
<event>
 7    1  0.4617496E-013  0.7246154E+02  0.7816164E-02  0.1226708E+00
        -11   -1    0    0    0    0  0.00000000000E+00  0.00000000000E+00  0.45593999997E+02  0.45594000000E+02  0.51100000000E-03 0. -1.
         11   -1    0    0    0    0 -0.00000000000E+00 -0.00000000000E+00 -0.45593999997E+02  0.45594000000E+02  0.51100000000E-03 0.  1.
    9900012    2    1    2    0    0  0.10970617077E+02  0.13183489337E+01 -0.15119122558E+02  0.72461538778E+02  0.69999958944E+02 0.  0.
         12    1    1    2    0    0 -0.10970617077E+02 -0.13183489337E+01  0.15119122558E+02  0.18726461222E+02  0.00000000000E+00 0. -1.
         11    1    3    3    0    0  0.33666320251E+01 -0.16982018108E+02  0.15611809118E+02  0.23312051270E+02  0.51100000000E-03 0. -1.
        -11    1    3    3    0    0 -0.30054981514E+01  0.17071059442E+01  0.63118847376E+01  0.71963267745E+01  0.51100000000E-03 0.  1.
        -12    1    3    3    0    0  0.10609483204E+02  0.16593261098E+02 -0.37042816413E+02  0.41953160734E+02  0.00000000000E+00 0.  1.
</event>
<event>
 7    1  0.2972263E-013  0.7246163E+02  0.7816164E-02  0.1226708E+00
        -11   -1    0    0    0    0  0.00000000000E+00  0.00000000000E+00  0.45593999997E+02  0.45594000000E+02  0.51100000000E-03 0.  1.
         11   -1    0    0    0    0 -0.00000000000E+00 -0.00000000000E+00 -0.45593999997E+02  0.45594000000E+02  0.51100000000E-03 0. -1.
    9900012    2    1    2    0    0  0.65088962741E+01  0.68885215229E+00  0.17545273917E+02  0.72461631297E+02  0.70000079467E+02 0.  0.
         12    1    1    2    0    0 -0.65088962741E+01 -0.68885215229E+00 -0.17545273917E+02  0.18726368703E+02  0.00000000000E+00 0. -1.
         11    1    3    3    0    0  0.70034853993E+01  0.22554327038E+02 -0.78787191445E+01  0.24896198334E+02  0.51100000000E-03 0. -1.
        -11    1    3    3    0    0 -0.24511785091E+01  0.34258098558E+01 -0.59055271281E+01  0.72539437670E+01  0.51100000000E-03 0.  1.
        -12    1    3    3    0    0  0.19565893839E+01 -0.25291284741E+02  0.31329520189E+02  0.40311489196E+02  0.00000000000E+00 0.  1.
</event>
<event>
 7    1  0.2972263E-013  0.7246159E+02  0.7816164E-02  0.1226708E+00
        -11   -1    0    0    0    0  0.00000000000E+00  0.00000000000E+00  0.45593999997E+02  0.45594000000E+02  0.51100000000E-03 0.  1.
         11   -1    0    0    0    0 -0.00000000000E+00 -0.00000000000E+00 -0.45593999997E+02  0.45594000000E+02  0.51100000000E-03 0. -1.
    9900012    2    1    2    0    0 -0.42434904316E+01  0.17712651070E+02  0.43512316440E+01  0.72461589885E+02  0.70000025520E+02 0.  0.
         12    1    1    2    0    0  0.42434904316E+01 -0.17712651070E+02 -0.43512316440E+01  0.18726410115E+02  0.00000000000E+00 0. -1.
         11    1    3    3    0    0 -0.92470954622E+01 -0.21597260344E+02  0.13207135100E+02  0.26951416413E+02  0.51100000000E-03 0. -1.
        -11    1    3    3    0    0  0.84549538743E+00  0.19273630809E+02  0.60218710995E+01  0.20210161771E+02  0.51100000000E-03 0.  1.
        -12    1    3    3    0    0  0.41581096432E+01  0.20036280605E+02 -0.14877774556E+02  0.25300011700E+02  0.00000000000E+00 0.  1.
</event>
<event>
 7    1  0.2972263E-013  0.7246161E+02  0.7816164E-02  0.1226708E+00
        -11   -1    0    0    0    0  0.00000000000E+00  0.00000000000E+00  0.45593999997E+02  0.45594000000E+02  0.51100000000E-03 0.  1.
         11   -1    0    0    0    0 -0.00000000000E+00 -0.00000000000E+00 -0.45593999997E+02  0.45594000000E+02  0.51100000000E-03 0. -1.
    9900012    2    1    2    0    0 -0.31598540954E+01 -0.75778136734E+01  0.16830621963E+02  0.72461607565E+02  0.70000048551E+02 0.  0.
         12    1    1    2    0    0  0.31598540954E+01  0.75778136734E+01 -0.16830621963E+02  0.18726392435E+02  0.00000000000E+00 0. -1.
         11    1    3    3    0    0 -0.13592829629E+02 -0.16646510698E+02 -0.14631076523E+02  0.25998841055E+02  0.51100000000E-03 0. -1.
        -11    1    3    3    0    0  0.22678672616E+01  0.58638906518E+01 -0.55741580983E+01  0.84023612311E+01  0.51100000000E-03 0.  1.
        -12    1    3    3    0    0  0.81651082720E+01  0.32048063727E+01  0.37035856585E+02  0.38060405278E+02  0.00000000000E+00 0.  1.
</event>
<event>
 7    1  0.2972263E-013  0.7246155E+02  0.7816164E-02  0.1226708E+00
        -11   -1    0    0    0    0  0.00000000000E+00  0.00000000000E+00  0.45593999997E+02  0.45594000000E+02  0.51100000000E-03 0.  1.
         11   -1    0    0    0    0 -0.00000000000E+00 -0.00000000000E+00 -0.45593999997E+02  0.45594000000E+02  0.51100000000E-03 0. -1.
    9900012    2    1    2    0    0 -0.36001293470E+01 -0.80375587924E+01  0.16526238698E+02  0.72461552174E+02  0.69999976395E+02 0.  0.
         12    1    1    2    0    0  0.36001293470E+01  0.80375587924E+01 -0.16526238698E+02  0.18726447826E+02  0.00000000000E+00 0. -1.
         11    1    3    3    0    0  0.18064926475E+02 -0.14089639551E+02 -0.11357003293E+02  0.25570315510E+02  0.51100000000E-03 0. -1.
        -11    1    3    3    0    0 -0.94395229051E+00 -0.50754689233E+01  0.22067013076E+02  0.22662843976E+02  0.51100000000E-03 0.  1.
        -12    1    3    3    0    0 -0.20721103531E+02  0.11127549682E+02  0.58162289151E+01  0.24228392689E+02  0.00000000000E+00 0.  1.
</event>
<event>
 7    1  0.2972263E-013  0.7246153E+02  0.7816164E-02  0.1226708E+00
        -11   -1    0    0    0    0  0.00000000000E+00  0.00000000000E+00  0.45593999997E+02  0.45594000000E+02  0.51100000000E-03 0. -1.
         11   -1    0    0    0    0 -0.00000000000E+00 -0.00000000000E+00 -0.45593999997E+02  0.45594000000E+02  0.51100000000E-03 0.  1.
    9900012    2    1    2    0    0 -0.75822131960E+01 -0.17108592368E+02  0.69759597303E+00  0.72461533972E+02  0.69999952683E+02 0.  0.
         12    1    1    2    0    0  0.75822131960E+01  0.17108592368E+02 -0.69759597303E+00  0.18726466028E+02  0.00000000000E+00 0. -1.
         11    1    3    3    0    0 -0.41224577249E+01 -0.11154630165E+02 -0.95032491743E+01  0.15222751950E+02  0.51100000000E-03 0. -1.
        -11    1    3    3    0    0 -0.19968461863E+02  0.17326038425E+02 -0.12999609467E+01  0.26469245841E+02  0.51100000000E-03 0.  1.
         12    1    3    3    0    0  0.16508706392E+02 -0.23280000628E+02  0.11500806094E+02  0.30769536181E+02  0.00000000000E+00 0. -1.
</event>
<event>
 7    1  0.4095057E-013  0.7246159E+02  0.7816164E-02  0.1226708E+00
        -11   -1    0    0    0    0  0.00000000000E+00  0.00000000000E+00  0.45593999997E+02  0.45594000000E+02  0.51100000000E-03 0. -1.
         11   -1    0    0    0    0 -0.00000000000E+00 -0.00000000000E+00 -0.45593999997E+02  0.45594000000E+02  0.51100000000E-03 0.  1.
    9900012    2    1    2    0    0 -0.18875570555E+01  0.66855976135E+01 -0.17390175919E+02  0.72461593362E+02  0.70000030050E+02 0.  0.
         12    1    1    2    0    0  0.18875570555E+01 -0.66855976135E+01  0.17390175919E+02  0.18726406638E+02  0.00000000000E+00 0. -1.
         11    1    3    3    0    0 -0.37614902164E+01 -0.23225020131E+02  0.33242332110E+01  0.23761331937E+02  0.51100000000E-03 0. -1.
        -11    1    3    3    0    0 -0.11602753102E+02  0.40432498955E+00 -0.47122248094E+01  0.12529661654E+02  0.51100000000E-03 0.  1.
        -12    1    3    3    0    0  0.13476686263E+02  0.29506292755E+02 -0.16002184320E+02  0.36170599771E+02  0.00000000000E+00 0.  1.
</event>
<event>
 7    1  0.2972263E-013  0.7246159E+02  0.7816164E-02  0.1226708E+00
        -11   -1    0    0    0    0  0.00000000000E+00  0.00000000000E+00  0.45593999997E+02  0.45594000000E+02  0.51100000000E-03 0.  1.
         11   -1    0    0    0    0 -0.00000000000E+00 -0.00000000000E+00 -0.45593999997E+02  0.45594000000E+02  0.51100000000E-03 0. -1.
    9900012    2    1    2    0    0 -0.10244074780E+02  0.43902027653E+00  0.15669867236E+02  0.72461586940E+02  0.70000021684E+02 0.  0.
         12    1    1    2    0    0  0.10244074780E+02 -0.43902027653E+00 -0.15669867236E+02  0.18726413060E+02  0.00000000000E+00 0. -1.
         11    1    3    3    0    0 -0.11490007564E+02  0.28395975369E+02  0.23322076118E+02  0.38500271761E+02  0.51100000000E-03 0. -1.
        -11    1    3    3    0    0  0.62927088095E+01 -0.63222467138E+01  0.28827735234E+01  0.93743997738E+01  0.51100000000E-03 0.  1.
        -12    1    3    3    0    0 -0.50467760252E+01 -0.21634708378E+02 -0.10534982406E+02  0.24586915405E+02  0.00000000000E+00 0.  1.
</event>
<event>
 7    1  0.2972263E-013  0.7246158E+02  0.7816164E-02  0.1226708E+00
        -11   -1    0    0    0    0  0.00000000000E+00  0.00000000000E+00  0.45593999997E+02  0.45594000000E+02  0.51100000000E-03 0. -1.
         11   -1    0    0    0    0 -0.00000000000E+00 -0.00000000000E+00 -0.45593999997E+02  0.45594000000E+02  0.51100000000E-03 0.  1.
    9900012    2    1    2    0    0  0.12593478226E+02  0.12340731019E+02 -0.63079019392E+01  0.72461575814E+02  0.70000007190E+02 0.  0.
         12    1    1    2    0    0 -0.12593478226E+02 -0.12340731019E+02  0.63079019392E+01  0.18726424186E+02  0.00000000000E+00 0. -1.
         11    1    3    3    0    0  0.78978295554E+01 -0.15821000537E+01 -0.45118000435E+01  0.92322853162E+01  0.51100000000E-03 0. -1.
        -11    1    3    3    0    0  0.32451483101E+02  0.12070690046E+01  0.15857555905E+01  0.32512618967E+02  0.51100000000E-03 0.  1.
         12    1    3    3    0    0 -0.27755834430E+02  0.12715762069E+02 -0.33818574863E+01  0.30716671531E+02  0.00000000000E+00 0. -1.
</event>
<event>
 7    1  0.2972263E-013  0.7246155E+02  0.7816164E-02  0.1226708E+00
        -11   -1    0    0    0    0  0.00000000000E+00  0.00000000000E+00  0.45593999997E+02  0.45594000000E+02  0.51100000000E-03 0.  1.
         11   -1    0    0    0    0 -0.00000000000E+00 -0.00000000000E+00 -0.45593999997E+02  0.45594000000E+02  0.51100000000E-03 0. -1.
    9900012    2    1    2    0    0 -0.13456121978E+02  0.62234147971E+00  0.13008669386E+02  0.72461547939E+02  0.69999970878E+02 0.  0.
         12    1    1    2    0    0  0.13456121978E+02 -0.62234147971E+00 -0.13008669386E+02  0.18726452061E+02  0.00000000000E+00 0. -1.
         11    1    3    3    0    0 -0.13933991229E+02  0.14024412631E+02 -0.50285037257E+01  0.20399169375E+02  0.51100000000E-03 0. -1.
        -11    1    3    3    0    0 -0.22100745722E+02 -0.55164269629E+00  0.12847876808E+02  0.25569810517E+02  0.51100000000E-03 0.  1.
         12    1    3    3    0    0  0.22578614973E+02 -0.12850428455E+02  0.51892963032E+01  0.26492568047E+02  0.00000000000E+00 0. -1.
</event>
<event>
 7    1  0.2972263E-013  0.7246159E+02  0.7816164E-02  0.1226708E+00
        -11   -1    0    0    0    0  0.00000000000E+00  0.00000000000E+00  0.45593999997E+02  0.45594000000E+02  0.51100000000E-03 0. -1.
         11   -1    0    0    0    0 -0.00000000000E+00 -0.00000000000E+00 -0.45593999997E+02  0.45594000000E+02  0.51100000000E-03 0.  1.
    9900012    2    1    2    0    0  0.11556279573E+02  0.13950526402E+02  0.47448429360E+01  0.72461593005E+02  0.70000029584E+02 0.  0.
         12    1    1    2    0    0 -0.11556279573E+02 -0.13950526402E+02 -0.47448429360E+01  0.18726406995E+02  0.00000000000E+00 0. -1.
         11    1    3    3    0    0  0.22976936782E+02  0.28622648644E+02  0.64594137470E+01  0.37268212534E+02  0.51100000000E-03 0. -1.
        -11    1    3    3    0    0  0.29703025920E+01  0.74911140287E+01 -0.33279482034E+01  0.87186424622E+01  0.51100000000E-03 0.  1.
        -12    1    3    3    0    0 -0.14390959802E+02 -0.22163236270E+02  0.16133773924E+01  0.26474738008E+02  0.00000000000E+00 0.  1.
</event>
<event>
 7    1  0.2972263E-013  0.7246156E+02  0.7816164E-02  0.1226708E+00
        -11   -1    0    0    0    0  0.00000000000E+00  0.00000000000E+00  0.45593999997E+02  0.45594000000E+02  0.51100000000E-03 0. -1.
         11   -1    0    0    0    0 -0.00000000000E+00 -0.00000000000E+00 -0.45593999997E+02  0.45594000000E+02  0.51100000000E-03 0.  1.
    9900012    2    1    2    0    0 -0.15617735233E+02  0.81125617979E+01 -0.63993967460E+01  0.72461559029E+02  0.69999985324E+02 0.  0.
         12    1    1    2    0    0  0.15617735233E+02 -0.81125617979E+01  0.63993967460E+01  0.18726440971E+02  0.00000000000E+00 0. -1.
         11    1    3    3    0    0 -0.48285223704E-01  0.10136824950E+00 -0.25607207826E+01  0.25631812602E+01  0.51100000000E-03 0. -1.
        -11    1    3    3    0    0 -0.20542518782E+01  0.36351184834E+02 -0.10309862006E+02  0.37840743180E+02  0.51100000000E-03 0.  1.
         12    1    3    3    0    0 -0.13515198132E+02 -0.28339991285E+02  0.64711860429E+01  0.32057634588E+02  0.00000000000E+00 0. -1.
</event>
<event>
 7    1  0.2972263E-013  0.7246154E+02  0.7816164E-02  0.1226708E+00
        -11   -1    0    0    0    0  0.00000000000E+00  0.00000000000E+00  0.45593999997E+02  0.45594000000E+02  0.51100000000E-03 0. -1.
         11   -1    0    0    0    0 -0.00000000000E+00 -0.00000000000E+00 -0.45593999997E+02  0.45594000000E+02  0.51100000000E-03 0.  1.
    9900012    2    1    2    0    0  0.18267093868E+02 -0.41149338698E+01 -0.24663110571E+00  0.72461542085E+02  0.69999963252E+02 0.  0.
         12    1    1    2    0    0 -0.18267093868E+02  0.41149338698E+01  0.24663110571E+00  0.18726457915E+02  0.00000000000E+00 0. -1.
         11    1    3    3    0    0  0.19283984485E+00 -0.97872089400E+00 -0.14232459522E+01  0.17380193025E+01  0.51100000000E-03 0. -1.
        -11    1    3    3    0    0  0.37532208564E+02 -0.12401061720E+02 -0.16516617931E+02  0.42839837530E+02  0.51100000000E-03 0.  1.
         12    1    3    3    0    0 -0.19457954540E+02  0.92648487442E+01  0.17693232778E+02  0.27883685252E+02  0.00000000000E+00 0. -1.
</event>
<event>
 7    1  0.2972263E-013  0.7246150E+02  0.7816164E-02  0.1226708E+00
        -11   -1    0    0    0    0  0.00000000000E+00  0.00000000000E+00  0.45593999997E+02  0.45594000000E+02  0.51100000000E-03 0.  1.
         11   -1    0    0    0    0 -0.00000000000E+00 -0.00000000000E+00 -0.45593999997E+02  0.45594000000E+02  0.51100000000E-03 0. -1.
    9900012    2    1    2    0    0  0.78975022942E+01  0.42556301596E+01  0.16437782475E+02  0.72461504780E+02  0.69999914655E+02 0.  0.
         12    1    1    2    0    0 -0.78975022942E+01 -0.42556301596E+01 -0.16437782475E+02  0.18726495220E+02  0.00000000000E+00 0. -1.
         11    1    3    3    0    0 -0.55512571867E+01  0.33051104504E+02  0.10870125431E+02  0.35232819820E+02  0.51100000000E-03 0. -1.
        -11    1    3    3    0    0  0.23821635078E+01  0.22899842084E+01 -0.12540419418E+01  0.35343106974E+01  0.51100000000E-03 0.  1.
        -12    1    3    3    0    0  0.11066595973E+02 -0.31085458553E+02  0.68216989854E+01  0.33694374262E+02  0.00000000000E+00 0.  1.
</event>
<event>
 7    1  0.2972263E-013  0.7246163E+02  0.7816164E-02  0.1226708E+00
        -11   -1    0    0    0    0  0.00000000000E+00  0.00000000000E+00  0.45593999997E+02  0.45594000000E+02  0.51100000000E-03 0.  1.
         11   -1    0    0    0    0 -0.00000000000E+00 -0.00000000000E+00 -0.45593999997E+02  0.45594000000E+02  0.51100000000E-03 0. -1.
    9900012    2    1    2    0    0  0.75402475032E+01  0.63019717862E+01  0.15940723754E+02  0.72461632104E+02  0.70000080518E+02 0.  0.
         12    1    1    2    0    0 -0.75402475032E+01 -0.63019717862E+01 -0.15940723754E+02  0.18726367896E+02  0.00000000000E+00 0. -1.
         11    1    3    3    0    0 -0.31422505002E+01 -0.10368927309E+02  0.67294858479E+01  0.12754386374E+02  0.51100000000E-03 0. -1.
        -11    1    3    3    0    0 -0.19550386031E+02 -0.68010249386E+01  0.39400511826E+01  0.21071201621E+02  0.51100000000E-03 0.  1.
        -12    1    3    3    0    0  0.30232884034E+02  0.23471924034E+02  0.52711867231E+01  0.38636044108E+02  0.00000000000E+00 0.  1.
</event>
<event>
 7    1  0.2972263E-013  0.7246160E+02  0.7816164E-02  0.1226708E+00
        -11   -1    0    0    0    0  0.00000000000E+00  0.00000000000E+00  0.45593999997E+02  0.45594000000E+02  0.51100000000E-03 0. -1.
         11   -1    0    0    0    0 -0.00000000000E+00 -0.00000000000E+00 -0.45593999997E+02  0.45594000000E+02  0.51100000000E-03 0.  1.
    9900012    2    1    2    0    0 -0.79585715685E+01  0.21176745021E+01 -0.16818283305E+02  0.72461599918E+02  0.70000038590E+02 0.  0.
         12    1    1    2    0    0  0.79585715685E+01 -0.21176745021E+01  0.16818283305E+02  0.18726400082E+02  0.00000000000E+00 0. -1.
         11    1    3    3    0    0 -0.60987390490E+01 -0.29039298768E+01  0.27013826035E+01  0.72749498245E+01  0.51100000000E-03 0. -1.
        -11    1    3    3    0    0 -0.11843441093E+02 -0.10493610385E+02 -0.36706546163E+02  0.39971908727E+02  0.51100000000E-03 0.  1.
         12    1    3    3    0    0  0.99836085736E+01  0.15515214763E+02  0.17186880254E+02  0.25214741366E+02  0.00000000000E+00 0. -1.
</event>
<event>
 7    1  0.2972263E-013  0.7246157E+02  0.7816164E-02  0.1226708E+00
        -11   -1    0    0    0    0  0.00000000000E+00  0.00000000000E+00  0.45593999997E+02  0.45594000000E+02  0.51100000000E-03 0.  1.
         11   -1    0    0    0    0 -0.00000000000E+00 -0.00000000000E+00 -0.45593999997E+02  0.45594000000E+02  0.51100000000E-03 0. -1.
    9900012    2    1    2    0    0 -0.17411173578E+02 -0.14100612199E+01  0.67484660553E+01  0.72461573963E+02  0.70000004779E+02 0.  0.
         12    1    1    2    0    0  0.17411173578E+02  0.14100612199E+01 -0.67484660553E+01  0.18726426037E+02  0.00000000000E+00 0. -1.
         11    1    3    3    0    0  0.11458152708E+02 -0.61422545519E+01 -0.20842835676E+02  0.24565022974E+02  0.51100000000E-03 0. -1.
        -11    1    3    3    0    0  0.38257951986E+01 -0.36950064631E+01  0.47626850441E+01  0.71395343513E+01  0.51100000000E-03 0.  1.
         12    1    3    3    0    0 -0.32695121485E+02  0.84271997951E+01  0.22828616687E+02  0.40757016637E+02  0.00000000000E+00 0. -1.
</event>
<event>
 7    1  0.2972263E-013  0.7246153E+02  0.7816164E-02  0.1226708E+00
        -11   -1    0    0    0    0  0.00000000000E+00  0.00000000000E+00  0.45593999997E+02  0.45594000000E+02  0.51100000000E-03 0.  1.
         11   -1    0    0    0    0 -0.00000000000E+00 -0.00000000000E+00 -0.45593999997E+02  0.45594000000E+02  0.51100000000E-03 0. -1.
    9900012    2    1    2    0    0 -0.16299083124E+02  0.33537388632E+01  0.85891170267E+01  0.72461531931E+02  0.69999950025E+02 0.  0.
         12    1    1    2    0    0  0.16299083124E+02 -0.33537388632E+01 -0.85891170267E+01  0.18726468069E+02  0.00000000000E+00 0. -1.
         11    1    3    3    0    0 -0.19603139949E+02  0.21636660876E+01 -0.15876601573E+02  0.25318590493E+02  0.51100000000E-03 0. -1.
        -11    1    3    3    0    0 -0.14851186386E+02  0.61484827563E+01 -0.25229923407E+00  0.16075609862E+02  0.51100000000E-03 0.  1.
        -12    1    3    3    0    0  0.18155243211E+02 -0.49584099807E+01  0.24718017834E+02  0.31067331576E+02  0.00000000000E+00 0.  1.
</event>
<event>
 7    1  0.2972263E-013  0.7246158E+02  0.7816164E-02  0.1226708E+00
        -11   -1    0    0    0    0  0.00000000000E+00  0.00000000000E+00  0.45593999997E+02  0.45594000000E+02  0.51100000000E-03 0.  1.
         11   -1    0    0    0    0 -0.00000000000E+00 -0.00000000000E+00 -0.45593999997E+02  0.45594000000E+02  0.51100000000E-03 0. -1.
    9900012    2    1    2    0    0 -0.29275841084E+01  0.73161742369E+01  0.16987692370E+02  0.72461578926E+02  0.70000011245E+02 0.  0.
         12    1    1    2    0    0  0.29275841084E+01 -0.73161742369E+01 -0.16987692370E+02  0.18726421074E+02  0.00000000000E+00 0. -1.
         11    1    3    3    0    0 -0.16322717732E+02  0.11387733408E+02 -0.14860194509E+01  0.19957951808E+02  0.51100000000E-03 0. -1.
        -11    1    3    3    0    0  0.33021536779E+01 -0.11155967194E+02  0.32089739516E+02  0.34133725338E+02  0.51100000000E-03 0.  1.
         12    1    3    3    0    0  0.10092979945E+02  0.70844080226E+01 -0.13616027696E+02  0.18369901780E+02  0.00000000000E+00 0. -1.
</event>
<event>
 7    1  0.2972263E-013  0.7246155E+02  0.7816164E-02  0.1226708E+00
        -11   -1    0    0    0    0  0.00000000000E+00  0.00000000000E+00  0.45593999997E+02  0.45594000000E+02  0.51100000000E-03 0. -1.
         11   -1    0    0    0    0 -0.00000000000E+00 -0.00000000000E+00 -0.45593999997E+02  0.45594000000E+02  0.51100000000E-03 0.  1.
    9900012    2    1    2    0    0 -0.16419925344E+01 -0.18379704582E+02 -0.31890895978E+01  0.72461548856E+02  0.69999972072E+02 0.  0.
         12    1    1    2    0    0  0.16419925344E+01  0.18379704582E+02  0.31890895978E+01  0.18726451144E+02  0.00000000000E+00 0. -1.
         11    1    3    3    0    0 -0.82287905675E+00  0.19278394656E+02  0.69202466561E+01  0.20499352294E+02  0.51100000000E-03 0. -1.
        -11    1    3    3    0    0 -0.16158667592E+02 -0.12800171008E+02  0.11766411420E+01  0.20647794091E+02  0.51100000000E-03 0.  1.
         12    1    3    3    0    0  0.15339554115E+02 -0.24857928229E+02 -0.11285977396E+02  0.31314402470E+02  0.00000000000E+00 0. -1.
</event>
<event>
 7    1  0.2972263E-013  0.7246157E+02  0.7816164E-02  0.1226708E+00
        -11   -1    0    0    0    0  0.00000000000E+00  0.00000000000E+00  0.45593999997E+02  0.45594000000E+02  0.51100000000E-03 0. -1.
         11   -1    0    0    0    0 -0.00000000000E+00 -0.00000000000E+00 -0.45593999997E+02  0.45594000000E+02  0.51100000000E-03 0.  1.
    9900012    2    1    2    0    0 -0.40650572740E+01 -0.10751920789E+02 -0.14783457759E+02  0.72461571760E+02  0.70000001909E+02 0.  0.
         12    1    1    2    0    0  0.40650572740E+01  0.10751920789E+02  0.14783457759E+02  0.18726428240E+02  0.00000000000E+00 0. -1.
         11    1    3    3    0    0  0.15873266109E+01 -0.18108969131E+02  0.22325744715E+01  0.18314987245E+02  0.51100000000E-03 0. -1.
        -11    1    3    3    0    0 -0.26071743193E+02 -0.21277061199E+01 -0.39497131465E+00  0.26161401512E+02  0.51100000000E-03 0.  1.
         12    1    3    3    0    0  0.20419359308E+02  0.94847544618E+01 -0.16621060916E+02  0.27985183003E+02  0.00000000000E+00 0. -1.
</event>
<event>
 7    1  0.2972263E-013  0.7246158E+02  0.7816164E-02  0.1226708E+00
        -11   -1    0    0    0    0  0.00000000000E+00  0.00000000000E+00  0.45593999997E+02  0.45594000000E+02  0.51100000000E-03 0. -1.
         11   -1    0    0    0    0 -0.00000000000E+00 -0.00000000000E+00 -0.45593999997E+02  0.45594000000E+02  0.51100000000E-03 0.  1.
    9900012    2    1    2    0    0  0.50066963622E+01 -0.61397258849E+01 -0.16968071944E+02  0.72461582620E+02  0.70000016056E+02 0.  0.
         12    1    1    2    0    0 -0.50066963622E+01  0.61397258849E+01  0.16968071944E+02  0.18726417380E+02  0.00000000000E+00 0. -1.
         11    1    3    3    0    0  0.18764517932E+02  0.16433932639E+02 -0.11947354724E+02  0.27657197262E+02  0.51100000000E-03 0. -1.
        -11    1    3    3    0    0  0.48135595644E+01 -0.90780953830E+01  0.12313838879E+02  0.16037855208E+02  0.51100000000E-03 0.  1.
        -12    1    3    3    0    0 -0.18571381135E+02 -0.13495563141E+02 -0.17334556099E+02  0.28766530150E+02  0.00000000000E+00 0.  1.
</event>
<event>
 7    1  0.2972263E-013  0.7246161E+02  0.7816164E-02  0.1226708E+00
        -11   -1    0    0    0    0  0.00000000000E+00  0.00000000000E+00  0.45593999997E+02  0.45594000000E+02  0.51100000000E-03 0.  1.
         11   -1    0    0    0    0 -0.00000000000E+00 -0.00000000000E+00 -0.45593999997E+02  0.45594000000E+02  0.51100000000E-03 0. -1.
    9900012    2    1    2    0    0 -0.67038328638E+01  0.68124439897E+01  0.16103629999E+02  0.72461610403E+02  0.70000052249E+02 0.  0.
         12    1    1    2    0    0  0.67038328638E+01 -0.68124439897E+01 -0.16103629999E+02  0.18726389597E+02  0.00000000000E+00 0. -1.
         11    1    3    3    0    0 -0.13919566255E+01  0.12405704093E+02  0.13257965554E+02  0.18210235808E+02  0.51100000000E-03 0. -1.
        -11    1    3    3    0    0  0.13083332283E+02 -0.24638695494E+01 -0.20451383650E+02  0.24402936919E+02  0.51100000000E-03 0.  1.
         12    1    3    3    0    0 -0.18395208521E+02 -0.31293905536E+01  0.23297048096E+02  0.29848437677E+02  0.00000000000E+00 0. -1.
</event>
<event>
 7    1  0.2972263E-013  0.7246159E+02  0.7816164E-02  0.1226708E+00
        -11   -1    0    0    0    0  0.00000000000E+00  0.00000000000E+00  0.45593999997E+02  0.45594000000E+02  0.51100000000E-03 0. -1.
         11   -1    0    0    0    0 -0.00000000000E+00 -0.00000000000E+00 -0.45593999997E+02  0.45594000000E+02  0.51100000000E-03 0.  1.
    9900012    2    1    2    0    0 -0.13987142649E+01 -0.62360301743E+01 -0.17602097772E+02  0.72461592979E+02  0.70000029551E+02 0.  0.
         12    1    1    2    0    0  0.13987142649E+01  0.62360301743E+01  0.17602097772E+02  0.18726407021E+02  0.00000000000E+00 0. -1.
         11    1    3    3    0    0  0.50932672437E+01 -0.13660540035E+02  0.10292419791E+02  0.17846165714E+02  0.51100000000E-03 0. -1.
        -11    1    3    3    0    0  0.17411029027E+02 -0.52974027702E+01 -0.42998899482E+01  0.18700146034E+02  0.51100000000E-03 0.  1.
        -12    1    3    3    0    0 -0.23903010535E+02  0.12721912631E+02 -0.23594627615E+02  0.35915281231E+02  0.00000000000E+00 0.  1.
</event>
<event>
 7    1  0.2972263E-013  0.7246156E+02  0.7816164E-02  0.1226708E+00
        -11   -1    0    0    0    0  0.00000000000E+00  0.00000000000E+00  0.45593999997E+02  0.45594000000E+02  0.51100000000E-03 0.  1.
         11   -1    0    0    0    0 -0.00000000000E+00 -0.00000000000E+00 -0.45593999997E+02  0.45594000000E+02  0.51100000000E-03 0. -1.
    9900012    2    1    2    0    0  0.67259179945E+01  0.12249149386E+02  0.12465949012E+02  0.72461560981E+02  0.69999987868E+02 0.  0.
         12    1    1    2    0    0 -0.67259179945E+01 -0.12249149386E+02 -0.12465949012E+02  0.18726439019E+02  0.00000000000E+00 0. -1.
         11    1    3    3    0    0  0.12026204419E+02 -0.54080758390E+01  0.98887546193E+01  0.16482243330E+02  0.51100000000E-03 0. -1.
        -11    1    3    3    0    0 -0.37595571202E+01 -0.18370103422E+02  0.61714905492E+01  0.19740371459E+02  0.51100000000E-03 0.  1.
        -12    1    3    3    0    0 -0.15407293044E+01  0.36027328647E+02 -0.35942961565E+01  0.36238946192E+02  0.00000000000E+00 0.  1.
</event>
<event>
 7    1  0.2972263E-013  0.7246151E+02  0.7816164E-02  0.1226708E+00
        -11   -1    0    0    0    0  0.00000000000E+00  0.00000000000E+00  0.45593999997E+02  0.45594000000E+02  0.51100000000E-03 0.  1.
         11   -1    0    0    0    0 -0.00000000000E+00 -0.00000000000E+00 -0.45593999997E+02  0.45594000000E+02  0.51100000000E-03 0. -1.
    9900012    2    1    2    0    0  0.10151649075E+01  0.17828746826E+02 -0.56379564068E+01  0.72461512726E+02  0.69999925006E+02 0.  0.
         12    1    1    2    0    0 -0.10151649075E+01 -0.17828746826E+02  0.56379564068E+01  0.18726487274E+02  0.00000000000E+00 0. -1.
         11    1    3    3    0    0  0.54902519248E+01 -0.57371656863E+01  0.12428621508E+02  0.14748849757E+02  0.51100000000E-03 0. -1.
        -11    1    3    3    0    0  0.14442043252E+01  0.41356021289E+01  0.16799636580E+02  0.17361357106E+02  0.51100000000E-03 0.  1.
         12    1    3    3    0    0 -0.59192913425E+01  0.19430310384E+02 -0.34866214495E+02  0.40351305862E+02  0.00000000000E+00 0. -1.
</event>
<event>
 7    1  0.2972263E-013  0.7246158E+02  0.7816164E-02  0.1226708E+00
        -11   -1    0    0    0    0  0.00000000000E+00  0.00000000000E+00  0.45593999997E+02  0.45594000000E+02  0.51100000000E-03 0. -1.
         11   -1    0    0    0    0 -0.00000000000E+00 -0.00000000000E+00 -0.45593999997E+02  0.45594000000E+02  0.51100000000E-03 0.  1.
    9900012    2    1    2    0    0 -0.35772496587E+01 -0.12088670398E+01 -0.18341779136E+02  0.72461576516E+02  0.70000008104E+02 0.  0.
         12    1    1    2    0    0  0.35772496587E+01  0.12088670398E+01  0.18341779136E+02  0.18726423484E+02  0.00000000000E+00 0. -1.
         11    1    3    3    0    0  0.37702425172E+01 -0.26131794191E+02 -0.57363384489E+01  0.27018345163E+02  0.51100000000E-03 0. -1.
        -11    1    3    3    0    0  0.54027062944E+01  0.14824918093E+01  0.93419876999E+01  0.10893105696E+02  0.51100000000E-03 0.  1.
        -12    1    3    3    0    0 -0.12750198470E+02  0.23440435342E+02 -0.21947428387E+02  0.34550125656E+02  0.00000000000E+00 0.  1.
</event>
<event>
 7    1  0.2972263E-013  0.7246155E+02  0.7816164E-02  0.1226708E+00
        -11   -1    0    0    0    0  0.00000000000E+00  0.00000000000E+00  0.45593999997E+02  0.45594000000E+02  0.51100000000E-03 0. -1.
         11   -1    0    0    0    0 -0.00000000000E+00 -0.00000000000E+00 -0.45593999997E+02  0.45594000000E+02  0.51100000000E-03 0.  1.
    9900012    2    1    2    0    0 -0.17545784339E+02  0.36344684101E+01 -0.54420584053E+01  0.72461550566E+02  0.69999974301E+02 0.  0.
         12    1    1    2    0    0  0.17545784339E+02 -0.36344684101E+01  0.54420584053E+01  0.18726449434E+02  0.00000000000E+00 0. -1.
         11    1    3    3    0    0 -0.37506837114E+01  0.12872496767E+02 -0.20260567223E+02  0.24295254388E+02  0.51100000000E-03 0. -1.
        -11    1    3    3    0    0  0.81907823942E+01 -0.94288577355E+01 -0.92687798422E+01  0.15553216852E+02  0.51100000000E-03 0.  1.
         12    1    3    3    0    0 -0.21985883022E+02  0.19082937880E+00  0.24087288660E+02  0.32613079326E+02  0.00000000000E+00 0. -1.
</event>
<event>
 7    1  0.2972263E-013  0.7246156E+02  0.7816164E-02  0.1226708E+00
        -11   -1    0    0    0    0  0.00000000000E+00  0.00000000000E+00  0.45593999997E+02  0.45594000000E+02  0.51100000000E-03 0. -1.
         11   -1    0    0    0    0 -0.00000000000E+00 -0.00000000000E+00 -0.45593999997E+02  0.45594000000E+02  0.51100000000E-03 0.  1.
    9900012    2    1    2    0    0 -0.74220180560E+01 -0.15654848141E+02  0.71076685813E+01  0.72461559468E+02  0.69999985896E+02 0.  0.
         12    1    1    2    0    0  0.74220180560E+01  0.15654848141E+02 -0.71076685813E+01  0.18726440532E+02  0.00000000000E+00 0. -1.
         11    1    3    3    0    0 -0.59400751970E+01 -0.76287188610E+01  0.33051492908E+02  0.34436652399E+02  0.51100000000E-03 0. -1.
        -11    1    3    3    0    0 -0.44363988787E+01 -0.13603580505E+02 -0.35276986573E+01  0.14737153580E+02  0.51100000000E-03 0.  1.
        -12    1    3    3    0    0  0.29544560197E+01  0.55774512243E+01 -0.22416125669E+02  0.23287753488E+02  0.00000000000E+00 0.  1.
</event>
<event>
 7    1  0.2972263E-013  0.7246236E+02  0.7816164E-02  0.1226706E+00
        -11   -1    0    0    0    0  0.00000000000E+00  0.00000000000E+00  0.45593999997E+02  0.45594000000E+02  0.51100000000E-03 0. -1.
         11   -1    0    0    0    0 -0.00000000000E+00 -0.00000000000E+00 -0.45593999997E+02  0.45594000000E+02  0.51100000000E-03 0.  1.
    9900012    2    1    2    0    0  0.14853908001E+02  0.11244398935E+02  0.18906689433E+01  0.72462356637E+02  0.70001024350E+02 0.  0.
         12    1    1    2    0    0 -0.14853908001E+02 -0.11244398935E+02 -0.18906689433E+01  0.18725643363E+02  0.00000000000E+00 0. -1.
         11    1    3    3    0    0 -0.47712750517E+01 -0.13019529845E+02  0.22476568857E+02  0.26409645413E+02  0.51100000000E-03 0. -1.
        -11    1    3    3    0    0  0.22281410228E+02  0.64665281378E+01 -0.11519881185E+02  0.25903376048E+02  0.51100000000E-03 0.  1.
        -12    1    3    3    0    0 -0.26562271748E+01  0.17797400642E+02 -0.90660187288E+01  0.20149335176E+02  0.00000000000E+00 0.  1.
</event>
<event>
 7    1  0.2972263E-013  0.7246157E+02  0.7816164E-02  0.1226708E+00
        -11   -1    0    0    0    0  0.00000000000E+00  0.00000000000E+00  0.45593999997E+02  0.45594000000E+02  0.51100000000E-03 0. -1.
         11   -1    0    0    0    0 -0.00000000000E+00 -0.00000000000E+00 -0.45593999997E+02  0.45594000000E+02  0.51100000000E-03 0.  1.
    9900012    2    1    2    0    0  0.15295832654E+02 -0.10664984439E+02 -0.17247980772E+01  0.72461566328E+02  0.69999994834E+02 0.  0.
         12    1    1    2    0    0 -0.15295832654E+02  0.10664984439E+02  0.17247980772E+01  0.18726433672E+02  0.00000000000E+00 0. -1.
         11    1    3    3    0    0  0.11278791602E+02 -0.79232423174E+01 -0.56525141150E+01  0.14897644945E+02  0.51100000000E-03 0. -1.
        -11    1    3    3    0    0  0.27650235996E+02  0.10743962207E+02 -0.19424071429E+01  0.29727785324E+02  0.51100000000E-03 0.  1.
         12    1    3    3    0    0 -0.23633194944E+02 -0.13485704329E+02  0.58701231807E+01  0.27836136059E+02  0.00000000000E+00 0. -1.
</event>
<event>
 7    1  0.2972263E-013  0.7246156E+02  0.7816164E-02  0.1226708E+00
        -11   -1    0    0    0    0  0.00000000000E+00  0.00000000000E+00  0.45593999997E+02  0.45594000000E+02  0.51100000000E-03 0.  1.
         11   -1    0    0    0    0 -0.00000000000E+00 -0.00000000000E+00 -0.45593999997E+02  0.45594000000E+02  0.51100000000E-03 0. -1.
    9900012    2    1    2    0    0  0.41890706948E+01  0.12657033379E+02  0.13150311112E+02  0.72461561749E+02  0.69999988868E+02 0.  0.
         12    1    1    2    0    0 -0.41890706948E+01 -0.12657033379E+02 -0.13150311112E+02  0.18726438251E+02  0.00000000000E+00 0. -1.
         11    1    3    3    0    0  0.45640157246E+01  0.25251981331E+02  0.10524357614E+02  0.27735444906E+02  0.51100000000E-03 0. -1.
        -11    1    3    3    0    0 -0.18097182985E+02 -0.16226470537E+02 -0.54576971934E+01  0.24911700805E+02  0.51100000000E-03 0.  1.
         12    1    3    3    0    0  0.17722237955E+02  0.36315225853E+01  0.80836506914E+01  0.19814416038E+02  0.00000000000E+00 0. -1.
</event>
<event>
 7    1  0.2972263E-013  0.7246154E+02  0.7816164E-02  0.1226708E+00
        -11   -1    0    0    0    0  0.00000000000E+00  0.00000000000E+00  0.45593999997E+02  0.45594000000E+02  0.51100000000E-03 0. -1.
         11   -1    0    0    0    0 -0.00000000000E+00 -0.00000000000E+00 -0.45593999997E+02  0.45594000000E+02  0.51100000000E-03 0.  1.
    9900012    2    1    2    0    0  0.34492758005E+01  0.78444091051E+01 -0.16650765241E+02  0.72461541689E+02  0.69999962736E+02 0.  0.
         12    1    1    2    0    0 -0.34492758005E+01 -0.78444091051E+01  0.16650765241E+02  0.18726458311E+02  0.00000000000E+00 0. -1.
         11    1    3    3    0    0  0.33878902331E+01 -0.14908091776E+01 -0.29996754065E+01  0.47642801179E+01  0.51100000000E-03 0. -1.
        -11    1    3    3    0    0  0.19602319931E+01 -0.28388828525E+02 -0.74967989453E+01  0.29427369729E+02  0.51100000000E-03 0.  1.
         12    1    3    3    0    0 -0.18988464256E+01  0.37724046807E+02 -0.61542908894E+01  0.38269891842E+02  0.00000000000E+00 0. -1.
</event>
<event>
 7    1  0.2972263E-013  0.7246161E+02  0.7816164E-02  0.1226708E+00
        -11   -1    0    0    0    0  0.00000000000E+00  0.00000000000E+00  0.45593999997E+02  0.45594000000E+02  0.51100000000E-03 0. -1.
         11   -1    0    0    0    0 -0.00000000000E+00 -0.00000000000E+00 -0.45593999997E+02  0.45594000000E+02  0.51100000000E-03 0.  1.
    9900012    2    1    2    0    0 -0.83454976137E+01 -0.83566962116E+01 -0.14532578713E+02  0.72461613641E+02  0.70000056468E+02 0.  0.
         12    1    1    2    0    0  0.83454976137E+01  0.83566962116E+01  0.14532578713E+02  0.18726386359E+02  0.00000000000E+00 0. -1.
         11    1    3    3    0    0  0.11245926973E+02  0.85282067554E+01  0.74515826270E+01  0.15960177563E+02  0.51100000000E-03 0. -1.
        -11    1    3    3    0    0  0.39327036575E+01 -0.96094486680E+01 -0.29078239792E+02  0.30876393757E+02  0.51100000000E-03 0.  1.
         12    1    3    3    0    0 -0.23524128244E+02 -0.72754542991E+01  0.70940784521E+01  0.25625042321E+02  0.00000000000E+00 0. -1.
</event>
<event>
 7    1  0.2972263E-013  0.7246161E+02  0.7816164E-02  0.1226708E+00
        -11   -1    0    0    0    0  0.00000000000E+00  0.00000000000E+00  0.45593999997E+02  0.45594000000E+02  0.51100000000E-03 0. -1.
         11   -1    0    0    0    0 -0.00000000000E+00 -0.00000000000E+00 -0.45593999997E+02  0.45594000000E+02  0.51100000000E-03 0.  1.
    9900012    2    1    2    0    0 -0.15494065765E+02  0.79984710429E+01 -0.68290516489E+01  0.72461613286E+02  0.70000056004E+02 0.  0.
         12    1    1    2    0    0  0.15494065765E+02 -0.79984710429E+01  0.68290516489E+01  0.18726386714E+02  0.00000000000E+00 0. -1.
         11    1    3    3    0    0 -0.14812153002E+02  0.22047272119E+02  0.89014790863E+01  0.28012825895E+02  0.51100000000E-03 0. -1.
        -11    1    3    3    0    0 -0.14404895649E+02  0.70051258007E+01 -0.30736720480E+01  0.16310127721E+02  0.51100000000E-03 0.  1.
        -12    1    3    3    0    0  0.13722982886E+02 -0.21053926877E+02 -0.12656858687E+02  0.28138659670E+02  0.00000000000E+00 0.  1.
</event>
<event>
 7    1  0.2972263E-013  0.7246157E+02  0.7816164E-02  0.1226708E+00
        -11   -1    0    0    0    0  0.00000000000E+00  0.00000000000E+00  0.45593999997E+02  0.45594000000E+02  0.51100000000E-03 0.  1.
         11   -1    0    0    0    0 -0.00000000000E+00 -0.00000000000E+00 -0.45593999997E+02  0.45594000000E+02  0.51100000000E-03 0. -1.
    9900012    2    1    2    0    0 -0.16076045418E+02 -0.95391283271E+01  0.11158377968E+01  0.72461566823E+02  0.69999995478E+02 0.  0.
         12    1    1    2    0    0  0.16076045418E+02  0.95391283271E+01 -0.11158377968E+01  0.18726433177E+02  0.00000000000E+00 0. -1.
         11    1    3    3    0    0  0.14398907119E+02  0.11033161695E+02 -0.18041198271E+01  0.18229482489E+02  0.51100000000E-03 0. -1.
        -11    1    3    3    0    0 -0.58191964918E+01  0.68439879121E-01  0.17853826510E+02  0.18778361301E+02  0.51100000000E-03 0.  1.
        -12    1    3    3    0    0 -0.24655756046E+02 -0.20640729901E+02 -0.14933868886E+02  0.35453723034E+02  0.00000000000E+00 0.  1.
</event>
<event>
 7    1  0.2972263E-013  0.7246159E+02  0.7816164E-02  0.1226708E+00
        -11   -1    0    0    0    0  0.00000000000E+00  0.00000000000E+00  0.45593999997E+02  0.45594000000E+02  0.51100000000E-03 0. -1.
         11   -1    0    0    0    0 -0.00000000000E+00 -0.00000000000E+00 -0.45593999997E+02  0.45594000000E+02  0.51100000000E-03 0.  1.
    9900012    2    1    2    0    0 -0.14658629290E+02 -0.11645031980E+02 -0.44305332824E+00  0.72461588739E+02  0.70000024028E+02 0.  0.
         12    1    1    2    0    0  0.14658629290E+02  0.11645031980E+02  0.44305332824E+00  0.18726411261E+02  0.00000000000E+00 0. -1.
         11    1    3    3    0    0 -0.17588200043E+02 -0.21934692216E+02  0.18144588063E+02  0.33461942257E+02  0.51100000000E-03 0. -1.
        -11    1    3    3    0    0 -0.11921827472E+02  0.80637598076E+01  0.87199800757E+00  0.14419243159E+02  0.51100000000E-03 0.  1.
        -12    1    3    3    0    0  0.14851398225E+02  0.22259004285E+01 -0.19459639399E+02  0.24580403323E+02  0.00000000000E+00 0.  1.
</event>
<event>
 7    1  0.2972263E-013  0.7246146E+02  0.7816164E-02  0.1226708E+00
        -11   -1    0    0    0    0  0.00000000000E+00  0.00000000000E+00  0.45593999997E+02  0.45594000000E+02  0.51100000000E-03 0. -1.
         11   -1    0    0    0    0 -0.00000000000E+00 -0.00000000000E+00 -0.45593999997E+02  0.45594000000E+02  0.51100000000E-03 0.  1.
    9900012    2    1    2    0    0 -0.13600608472E+02  0.12736272119E+02  0.18692291064E+01  0.72461462793E+02  0.69999859960E+02 0.  0.
         12    1    1    2    0    0  0.13600608472E+02 -0.12736272119E+02 -0.18692291064E+01  0.18726537207E+02  0.00000000000E+00 0. -1.
         11    1    3    3    0    0 -0.29196867186E+01  0.17086172361E+02 -0.32188058746E+00  0.17336823926E+02  0.51100000000E-03 0. -1.
        -11    1    3    3    0    0  0.20022595164E+02 -0.12111390504E+02  0.38411700559E+00  0.23403795487E+02  0.51100000000E-03 0.  1.
         12    1    3    3    0    0 -0.30703516918E+02  0.77614902624E+01  0.18069926883E+01  0.31720843381E+02  0.00000000000E+00 0. -1.
</event>
<event>
 7    1  0.2972263E-013  0.7246152E+02  0.7816164E-02  0.1226708E+00
        -11   -1    0    0    0    0  0.00000000000E+00  0.00000000000E+00  0.45593999997E+02  0.45594000000E+02  0.51100000000E-03 0. -1.
         11   -1    0    0    0    0 -0.00000000000E+00 -0.00000000000E+00 -0.45593999997E+02  0.45594000000E+02  0.51100000000E-03 0.  1.
    9900012    2    1    2    0    0 -0.72483008246E+01  0.16893360220E+02  0.35717700881E+01  0.72461520728E+02  0.69999935431E+02 0.  0.
         12    1    1    2    0    0  0.72483008246E+01 -0.16893360220E+02 -0.35717700881E+01  0.18726479272E+02  0.00000000000E+00 0. -1.
         11    1    3    3    0    0  0.18866261723E+01  0.30371883121E+01  0.23136567023E+01  0.42587414519E+01  0.51100000000E-03 0. -1.
        -11    1    3    3    0    0 -0.98736305265E+01  0.38215923040E+02 -0.10926989767E+02  0.40955395971E+02  0.51100000000E-03 0.  1.
         12    1    3    3    0    0  0.73870352961E+00 -0.24359751132E+02  0.12185103153E+02  0.27247383305E+02  0.00000000000E+00 0. -1.
</event>
<event>
 7    1  0.2972263E-013  0.7246157E+02  0.7816164E-02  0.1226708E+00
        -11   -1    0    0    0    0  0.00000000000E+00  0.00000000000E+00  0.45593999997E+02  0.45594000000E+02  0.51100000000E-03 0.  1.
         11   -1    0    0    0    0 -0.00000000000E+00 -0.00000000000E+00 -0.45593999997E+02  0.45594000000E+02  0.51100000000E-03 0. -1.
    9900012    2    1    2    0    0 -0.67279805439E+01  0.13820655306E+02  0.10695930628E+02  0.72461570354E+02  0.70000000078E+02 0.  0.
         12    1    1    2    0    0  0.67279805439E+01 -0.13820655306E+02 -0.10695930628E+02  0.18726429646E+02  0.00000000000E+00 0. -1.
         11    1    3    3    0    0  0.11549315173E+02 -0.58043500148E+01  0.89177796417E+01  0.15703628691E+02  0.51100000000E-03 0. -1.
        -11    1    3    3    0    0  0.54213145865E+01 -0.10171308802E+02 -0.11649611123E+02  0.16387788569E+02  0.51100000000E-03 0.  1.
         12    1    3    3    0    0 -0.23698610303E+02  0.29796314123E+02  0.13427762110E+02  0.40370153095E+02  0.00000000000E+00 0. -1.
</event>
<event>
 7    1  0.2972263E-013  0.7246163E+02  0.7816164E-02  0.1226708E+00
        -11   -1    0    0    0    0  0.00000000000E+00  0.00000000000E+00  0.45593999997E+02  0.45594000000E+02  0.51100000000E-03 0.  1.
         11   -1    0    0    0    0 -0.00000000000E+00 -0.00000000000E+00 -0.45593999997E+02  0.45594000000E+02  0.51100000000E-03 0. -1.
    9900012    2    1    2    0    0 -0.12279629108E+02  0.86733970177E+01  0.11165123840E+02  0.72461625625E+02  0.70000072079E+02 0.  0.
         12    1    1    2    0    0  0.12279629108E+02 -0.86733970177E+01 -0.11165123840E+02  0.18726374375E+02  0.00000000000E+00 0. -1.
         11    1    3    3    0    0  0.20320409841E+02  0.10686986975E+02 -0.99711977214E+01  0.25031091286E+02  0.51100000000E-03 0. -1.
        -11    1    3    3    0    0 -0.76894231213E+00  0.54691462754E+01  0.12415953885E+02  0.13588919913E+02  0.51100000000E-03 0.  1.
         12    1    3    3    0    0 -0.31831096637E+02 -0.74827362325E+01  0.87203676761E+01  0.33841614427E+02  0.00000000000E+00 0. -1.
</event>
<event>
 7    1  0.2972263E-013  0.7246183E+02  0.7816164E-02  0.1226707E+00
        -11   -1    0    0    0    0  0.00000000000E+00  0.00000000000E+00  0.45593999997E+02  0.45594000000E+02  0.51100000000E-03 0. -1.
         11   -1    0    0    0    0 -0.00000000000E+00 -0.00000000000E+00 -0.45593999997E+02  0.45594000000E+02  0.51100000000E-03 0.  1.
    9900012    2    1    2    0    0  0.87850892043E+01 -0.15004571075E+01 -0.16469371757E+02  0.72461831948E+02  0.70000340851E+02 0.  0.
         12    1    1    2    0    0 -0.87850892043E+01  0.15004571075E+01  0.16469371757E+02  0.18726168052E+02  0.00000000000E+00 0. -1.
         11    1    3    3    0    0  0.13735325478E+02 -0.21704959983E+00  0.19216154540E+02  0.23621322403E+02  0.51100000000E-03 0. -1.
        -11    1    3    3    0    0 -0.64551840364E+00  0.10390316978E+02  0.65313050590E+00  0.10430817831E+02  0.51100000000E-03 0.  1.
        -12    1    3    3    0    0 -0.43047178699E+01 -0.11673724485E+02 -0.36338656803E+02  0.38409691714E+02  0.00000000000E+00 0.  1.
</event>
<event>
 7    1  0.2972263E-013  0.7246157E+02  0.7816164E-02  0.1226708E+00
        -11   -1    0    0    0    0  0.00000000000E+00  0.00000000000E+00  0.45593999997E+02  0.45594000000E+02  0.51100000000E-03 0.  1.
         11   -1    0    0    0    0 -0.00000000000E+00 -0.00000000000E+00 -0.45593999997E+02  0.45594000000E+02  0.51100000000E-03 0. -1.
    9900012    2    1    2    0    0 -0.42864195572E+01  0.13545798259E+02  0.12199065770E+02  0.72461568179E+02  0.69999997244E+02 0.  0.
         12    1    1    2    0    0  0.42864195572E+01 -0.13545798259E+02 -0.12199065770E+02  0.18726431821E+02  0.00000000000E+00 0. -1.
         11    1    3    3    0    0 -0.15949531769E+02 -0.19881532568E+02  0.62215745679E+01  0.26236823193E+02  0.51100000000E-03 0.  1.
        -11    1    3    3    0    0  0.73398725785E+01  0.41621414952E+01 -0.96083013202E+01  0.12787361175E+02  0.51100000000E-03 0. -1.
        -12    1    3    3    0    0  0.43232396330E+01  0.29265189332E+02  0.15585792522E+02  0.33437383811E+02  0.00000000000E+00 0.  1.
</event>
<event>
 7    1  0.2972263E-013  0.7246158E+02  0.7816164E-02  0.1226708E+00
        -11   -1    0    0    0    0  0.00000000000E+00  0.00000000000E+00  0.45593999997E+02  0.45594000000E+02  0.51100000000E-03 0.  1.
         11   -1    0    0    0    0 -0.00000000000E+00 -0.00000000000E+00 -0.45593999997E+02  0.45594000000E+02  0.51100000000E-03 0. -1.
    9900012    2    1    2    0    0 -0.12926244560E+02  0.12387445441E+02  0.54901934634E+01  0.72461579433E+02  0.70000011905E+02 0.  0.
         12    1    1    2    0    0  0.12926244560E+02 -0.12387445441E+02 -0.54901934634E+01  0.18726420567E+02  0.00000000000E+00 0. -1.
         11    1    3    3    0    0  0.46775421967E+01  0.89665527965E+01  0.12225454846E+02  0.15866323345E+02  0.51100000000E-03 0. -1.
        -11    1    3    3    0    0 -0.36119896044E+02 -0.35654577358E+01 -0.26839156934E+01  0.36394543311E+02  0.51100000000E-03 0.  1.
         12    1    3    3    0    0  0.18516109288E+02  0.69863503803E+01 -0.40513456887E+01  0.20200712777E+02  0.00000000000E+00 0. -1.
</event>
<event>
 7    1  0.2972263E-013  0.7246155E+02  0.7816164E-02  0.1226708E+00
        -11   -1    0    0    0    0  0.00000000000E+00  0.00000000000E+00  0.45593999997E+02  0.45594000000E+02  0.51100000000E-03 0. -1.
         11   -1    0    0    0    0 -0.00000000000E+00 -0.00000000000E+00 -0.45593999997E+02  0.45594000000E+02  0.51100000000E-03 0.  1.
    9900012    2    1    2    0    0 -0.48264807751E+01  0.17981654973E+02  0.20112562335E+01  0.72461548551E+02  0.69999971675E+02 0.  0.
         12    1    1    2    0    0  0.48264807751E+01 -0.17981654973E+02 -0.20112562335E+01  0.18726451449E+02  0.00000000000E+00 0. -1.
         11    1    3    3    0    0 -0.80786772396E+01  0.98485065170E+01  0.16156825623E+02  0.20574283002E+02  0.51100000000E-03 0. -1.
        -11    1    3    3    0    0 -0.20843491544E+02  0.12941792395E+02 -0.23946086133E+01  0.24651070582E+02  0.51100000000E-03 0.  1.
         12    1    3    3    0    0  0.24095688009E+02 -0.48086439393E+01 -0.11750960776E+02  0.27236194968E+02  0.00000000000E+00 0. -1.
</event>
<event>
 7    1  0.2972263E-013  0.7246156E+02  0.7816164E-02  0.1226708E+00
        -11   -1    0    0    0    0  0.00000000000E+00  0.00000000000E+00  0.45593999997E+02  0.45594000000E+02  0.51100000000E-03 0.  1.
         11   -1    0    0    0    0 -0.00000000000E+00 -0.00000000000E+00 -0.45593999997E+02  0.45594000000E+02  0.51100000000E-03 0. -1.
    9900012    2    1    2    0    0 -0.60376360206E+01  0.12290514735E+02  0.12773796410E+02  0.72461556774E+02  0.69999982387E+02 0.  0.
         12    1    1    2    0    0  0.60376360206E+01 -0.12290514735E+02 -0.12773796410E+02  0.18726443226E+02  0.00000000000E+00 0. -1.
         11    1    3    3    0    0 -0.13959109788E+02  0.76693690364E+01  0.17875729513E+02  0.23941964693E+02  0.51100000000E-03 0.  1.
        -11    1    3    3    0    0 -0.13633374169E+02  0.18164756136E+02 -0.99351907498E+00  0.22733550914E+02  0.51100000000E-03 0. -1.
         12    1    3    3    0    0  0.21554847937E+02 -0.13543610438E+02 -0.41084140279E+01  0.25786041167E+02  0.00000000000E+00 0. -1.
</event>
<event>
 7    1  0.2972263E-013  0.7246158E+02  0.7816164E-02  0.1226708E+00
        -11   -1    0    0    0    0  0.00000000000E+00  0.00000000000E+00  0.45593999997E+02  0.45594000000E+02  0.51100000000E-03 0.  1.
         11   -1    0    0    0    0 -0.00000000000E+00 -0.00000000000E+00 -0.45593999997E+02  0.45594000000E+02  0.51100000000E-03 0. -1.
    9900012    2    1    2    0    0 -0.62892225484E+01  0.15696795150E+02  0.80458042028E+01  0.72461583805E+02  0.70000017600E+02 0.  0.
         12    1    1    2    0    0  0.62892225484E+01 -0.15696795150E+02 -0.80458042028E+01  0.18726416195E+02  0.00000000000E+00 0. -1.
         11    1    3    3    0    0  0.11928077129E+02 -0.18549027023E+02  0.19581258688E+01  0.22140001912E+02  0.51100000000E-03 0. -1.
        -11    1    3    3    0    0 -0.11226000286E+02 -0.83540323033E+00 -0.57527423733E+01  0.12641796789E+02  0.51100000000E-03 0.  1.
         12    1    3    3    0    0 -0.69912993917E+01  0.35081225403E+02  0.11840420707E+02  0.37679785104E+02  0.00000000000E+00 0. -1.
</event>
<event>
 7    1  0.2972263E-013  0.7246181E+02  0.7816164E-02  0.1226707E+00
        -11   -1    0    0    0    0  0.00000000000E+00  0.00000000000E+00  0.45593999997E+02  0.45594000000E+02  0.51100000000E-03 0.  1.
         11   -1    0    0    0    0 -0.00000000000E+00 -0.00000000000E+00 -0.45593999997E+02  0.45594000000E+02  0.51100000000E-03 0. -1.
    9900012    2    1    2    0    0  0.74048960548E+01  0.17111213224E+02  0.17447753148E+01  0.72461805927E+02  0.70000306955E+02 0.  0.
         12    1    1    2    0    0 -0.74048960548E+01 -0.17111213224E+02 -0.17447753148E+01  0.18726194073E+02  0.00000000000E+00 0. -1.
         11    1    3    3    0    0 -0.10486143068E+02  0.54835381955E+01 -0.11598958498E+02  0.16569979664E+02  0.51100000000E-03 0. -1.
        -11    1    3    3    0    0 -0.71045587181E+00  0.20647803471E+01 -0.18042954454E+02  0.18174605116E+02  0.51100000000E-03 0.  1.
        -12    1    3    3    0    0  0.18601494994E+02  0.95628946809E+01  0.31386688267E+02  0.37717221147E+02  0.00000000000E+00 0.  1.
</event>
<event>
 7    1  0.2972263E-013  0.7246160E+02  0.7816164E-02  0.1226708E+00
        -11   -1    0    0    0    0  0.00000000000E+00  0.00000000000E+00  0.45593999997E+02  0.45594000000E+02  0.51100000000E-03 0. -1.
         11   -1    0    0    0    0 -0.00000000000E+00 -0.00000000000E+00 -0.45593999997E+02  0.45594000000E+02  0.51100000000E-03 0.  1.
    9900012    2    1    2    0    0 -0.10770912352E+02 -0.12479290833E+02 -0.88844076945E+01  0.72461602785E+02  0.70000042325E+02 0.  0.
         12    1    1    2    0    0  0.10770912352E+02  0.12479290833E+02  0.88844076945E+01  0.18726397215E+02  0.00000000000E+00 0. -1.
         11    1    3    3    0    0  0.22311155468E+02 -0.20246984868E+02 -0.25201590580E+00  0.30129579600E+02  0.51100000000E-03 0. -1.
        -11    1    3    3    0    0 -0.97783000230E+01 -0.80976157154E+01  0.47762356696E+00  0.12704906774E+02  0.51100000000E-03 0.  1.
        -12    1    3    3    0    0 -0.23303767797E+02  0.15865309751E+02 -0.91100153556E+01  0.29627116411E+02  0.00000000000E+00 0.  1.
</event>
<event>
 7    1  0.2972263E-013  0.7246156E+02  0.7816164E-02  0.1226708E+00
        -11   -1    0    0    0    0  0.00000000000E+00  0.00000000000E+00  0.45593999997E+02  0.45594000000E+02  0.51100000000E-03 0. -1.
         11   -1    0    0    0    0 -0.00000000000E+00 -0.00000000000E+00 -0.45593999997E+02  0.45594000000E+02  0.51100000000E-03 0.  1.
    9900012    2    1    2    0    0  0.37114395540E+01 -0.18292963228E+02  0.15074373666E+01  0.72461557342E+02  0.69999983127E+02 0.  0.
         12    1    1    2    0    0 -0.37114395540E+01  0.18292963228E+02 -0.15074373666E+01  0.18726442658E+02  0.00000000000E+00 0. -1.
         11    1    3    3    0    0 -0.19600164856E+02 -0.25178420631E+02 -0.16683114801E+02  0.36006189018E+02  0.51100000000E-03 0.  1.
        -11    1    3    3    0    0  0.81015594117E+00 -0.40987434058E+01  0.87484696338E+01  0.96949353454E+01  0.51100000000E-03 0. -1.
        -12    1    3    3    0    0  0.22501448469E+02  0.10984200809E+02  0.94420825339E+01  0.26760432979E+02  0.00000000000E+00 0.  1.
</event>
<event>
 7    1  0.2972263E-013  0.7246156E+02  0.7816164E-02  0.1226708E+00
        -11   -1    0    0    0    0  0.00000000000E+00  0.00000000000E+00  0.45593999997E+02  0.45594000000E+02  0.51100000000E-03 0. -1.
         11   -1    0    0    0    0 -0.00000000000E+00 -0.00000000000E+00 -0.45593999997E+02  0.45594000000E+02  0.51100000000E-03 0.  1.
    9900012    2    1    2    0    0 -0.10877312556E+02 -0.10655075886E+01 -0.15206195398E+02  0.72461558444E+02  0.69999984563E+02 0.  0.
         12    1    1    2    0    0  0.10877312556E+02  0.10655075886E+01  0.15206195398E+02  0.18726441556E+02  0.00000000000E+00 0. -1.
         11    1    3    3    0    0 -0.82656865425E+01  0.28658899705E+02 -0.42511131661E+01  0.30128492656E+02  0.51100000000E-03 0. -1.
        -11    1    3    3    0    0  0.12237895207E+02 -0.14128323818E+02 -0.88944857756E+01  0.20699939383E+02  0.51100000000E-03 0.  1.
        -12    1    3    3    0    0 -0.14849521220E+02 -0.15596083476E+02 -0.20605964566E+01  0.21633126404E+02  0.00000000000E+00 0.  1.
</event>
<event>
 7    1  0.5421261E-013  0.7246163E+02  0.7816164E-02  0.1226708E+00
        -11   -1    0    0    0    0  0.00000000000E+00  0.00000000000E+00  0.45593999997E+02  0.45594000000E+02  0.51100000000E-03 0. -1.
         11   -1    0    0    0    0 -0.00000000000E+00 -0.00000000000E+00 -0.45593999997E+02  0.45594000000E+02  0.51100000000E-03 0.  1.
    9900012    2    1    2    0    0  0.70691569961E+01 -0.13108555929E+01 -0.17291200652E+02  0.72461629743E+02  0.70000077442E+02 0.  0.
         12    1    1    2    0    0 -0.70691569961E+01  0.13108555929E+01  0.17291200652E+02  0.18726370257E+02  0.00000000000E+00 0. -1.
         11    1    3    3    0    0  0.52671765510E+01 -0.70257821477E+01  0.18874651050E+02  0.20817233633E+02  0.51100000000E-03 0. -1.
        -11    1    3    3    0    0 -0.59828833626E+01 -0.12921817415E+02 -0.62548911119E+01  0.15552875031E+02  0.51100000000E-03 0.  1.
        -12    1    3    3    0    0  0.77848638077E+01  0.18636743970E+02 -0.29910960590E+02  0.36091521078E+02  0.00000000000E+00 0.  1.
</event>
<event>
 7    1  0.2972263E-013  0.7246161E+02  0.7816164E-02  0.1226708E+00
        -11   -1    0    0    0    0  0.00000000000E+00  0.00000000000E+00  0.45593999997E+02  0.45594000000E+02  0.51100000000E-03 0.  1.
         11   -1    0    0    0    0 -0.00000000000E+00 -0.00000000000E+00 -0.45593999997E+02  0.45594000000E+02  0.51100000000E-03 0. -1.
    9900012    2    1    2    0    0  0.17104703145E+02  0.29615100719E+00  0.76170299666E+01  0.72461608981E+02  0.70000050396E+02 0.  0.
         12    1    1    2    0    0 -0.17104703145E+02 -0.29615100719E+00 -0.76170299666E+01  0.18726391019E+02  0.00000000000E+00 0. -1.
         11    1    3    3    0    0  0.25232651037E+02  0.62406246060E+01 -0.73113631093E+01  0.27001631517E+02  0.51100000000E-03 0. -1.
        -11    1    3    3    0    0  0.75154442944E+01  0.40961422609E-01 -0.11756841556E+02  0.13953741592E+02  0.51100000000E-03 0.  1.
        -12    1    3    3    0    0 -0.15643392186E+02 -0.59854350214E+01  0.26685234632E+02  0.31506235872E+02  0.00000000000E+00 0.  1.
</event>
<event>
 7    1  0.2972263E-013  0.7246158E+02  0.7816164E-02  0.1226708E+00
        -11   -1    0    0    0    0  0.00000000000E+00  0.00000000000E+00  0.45593999997E+02  0.45594000000E+02  0.51100000000E-03 0.  1.
         11   -1    0    0    0    0 -0.00000000000E+00 -0.00000000000E+00 -0.45593999997E+02  0.45594000000E+02  0.51100000000E-03 0. -1.
    9900012    2    1    2    0    0  0.10502624629E+02  0.15411152044E+02  0.16941270686E+01  0.72461580216E+02  0.70000012924E+02 0.  0.
         12    1    1    2    0    0 -0.10502624629E+02 -0.15411152044E+02 -0.16941270686E+01  0.18726419784E+02  0.00000000000E+00 0. -1.
         11    1    3    3    0    0 -0.14273417229E+02  0.97462195687E+01 -0.31936632598E+01  0.17576083766E+02  0.51100000000E-03 0. -1.
        -11    1    3    3    0    0 -0.13157486375E+02 -0.27388197249E+01 -0.57261889609E+01  0.14608553025E+02  0.51100000000E-03 0.  1.
         12    1    3    3    0    0  0.37933528233E+02  0.84037522000E+01  0.10613979289E+02  0.40276943425E+02  0.00000000000E+00 0. -1.
</event>
<event>
 7    1  0.2972263E-013  0.7246159E+02  0.7816164E-02  0.1226708E+00
        -11   -1    0    0    0    0  0.00000000000E+00  0.00000000000E+00  0.45593999997E+02  0.45594000000E+02  0.51100000000E-03 0. -1.
         11   -1    0    0    0    0 -0.00000000000E+00 -0.00000000000E+00 -0.45593999997E+02  0.45594000000E+02  0.51100000000E-03 0.  1.
    9900012    2    1    2    0    0  0.11073064733E+02  0.15063767786E+02  0.10717483011E+01  0.72461587986E+02  0.70000023047E+02 0.  0.
         12    1    1    2    0    0 -0.11073064733E+02 -0.15063767786E+02 -0.10717483011E+01  0.18726412014E+02  0.00000000000E+00 0. -1.
         11    1    3    3    0    0  0.17118424690E+02 -0.32592250534E+01  0.10986783725E+02  0.20600301666E+02  0.51100000000E-03 0. -1.
        -11    1    3    3    0    0  0.20391195015E+02  0.88963202634E+01 -0.83092073554E+01  0.23748437328E+02  0.51100000000E-03 0.  1.
         12    1    3    3    0    0 -0.26436554973E+02  0.94266725759E+01 -0.16058280689E+01  0.28112848992E+02  0.00000000000E+00 0. -1.
</event>
<event>
 7    1  0.2972263E-013  0.7246159E+02  0.7816164E-02  0.1226708E+00
        -11   -1    0    0    0    0  0.00000000000E+00  0.00000000000E+00  0.45593999997E+02  0.45594000000E+02  0.51100000000E-03 0.  1.
         11   -1    0    0    0    0 -0.00000000000E+00 -0.00000000000E+00 -0.45593999997E+02  0.45594000000E+02  0.51100000000E-03 0. -1.
    9900012    2    1    2    0    0  0.92352809128E+01 -0.14076263711E+02 -0.82004232270E+01  0.72461586710E+02  0.70000021385E+02 0.  0.
         12    1    1    2    0    0 -0.92352809128E+01  0.14076263711E+02  0.82004232270E+01  0.18726413290E+02  0.00000000000E+00 0. -1.
         11    1    3    3    0    0 -0.19418073577E+02  0.46354413790E+01 -0.22404223476E+02  0.30008300985E+02  0.51100000000E-03 0. -1.
        -11    1    3    3    0    0  0.31037555941E+01 -0.69357852243E+01 -0.43476587419E+01  0.87544589932E+01  0.51100000000E-03 0.  1.
        -12    1    3    3    0    0  0.25549598896E+02 -0.11775919866E+02  0.18551458991E+02  0.33698826732E+02  0.00000000000E+00 0.  1.
</event>
<event>
 7    1  0.2972263E-013  0.7246157E+02  0.7816164E-02  0.1226708E+00
        -11   -1    0    0    0    0  0.00000000000E+00  0.00000000000E+00  0.45593999997E+02  0.45594000000E+02  0.51100000000E-03 0. -1.
         11   -1    0    0    0    0 -0.00000000000E+00 -0.00000000000E+00 -0.45593999997E+02  0.45594000000E+02  0.51100000000E-03 0.  1.
    9900012    2    1    2    0    0  0.15370829125E+02  0.68007521322E+01 -0.82563081637E+01  0.72461568358E+02  0.69999997478E+02 0.  0.
         12    1    1    2    0    0 -0.15370829125E+02 -0.68007521322E+01  0.82563081637E+01  0.18726431642E+02  0.00000000000E+00 0. -1.
         11    1    3    3    0    0 -0.12732923424E+02 -0.50125723831E+00 -0.41067216971E+01  0.13388194841E+02  0.51100000000E-03 0. -1.
        -11    1    3    3    0    0  0.51530071675E+01  0.10775604234E+02 -0.25104926784E+02  0.27801519357E+02  0.51100000000E-03 0.  1.
         12    1    3    3    0    0  0.22950745381E+02 -0.34735948631E+01  0.20955340317E+02  0.31271854160E+02  0.00000000000E+00 0. -1.
</event>
<event>
 7    1  0.2972263E-013  0.7246156E+02  0.7816164E-02  0.1226708E+00
        -11   -1    0    0    0    0  0.00000000000E+00  0.00000000000E+00  0.45593999997E+02  0.45594000000E+02  0.51100000000E-03 0.  1.
         11   -1    0    0    0    0 -0.00000000000E+00 -0.00000000000E+00 -0.45593999997E+02  0.45594000000E+02  0.51100000000E-03 0. -1.
    9900012    2    1    2    0    0  0.11219683355E+02  0.50226244802E+01  0.14126981283E+02  0.72461557428E+02  0.69999983239E+02 0.  0.
         12    1    1    2    0    0 -0.11219683355E+02 -0.50226244802E+01 -0.14126981283E+02  0.18726442572E+02  0.00000000000E+00 0. -1.
         11    1    3    3    0    0 -0.32763448489E+01 -0.18901118934E+02  0.10445672280E+02  0.21842591471E+02  0.51100000000E-03 0. -1.
        -11    1    3    3    0    0 -0.58581796588E+01 -0.87160777305E+01 -0.42748331568E+01  0.11338539531E+02  0.51100000000E-03 0.  1.
        -12    1    3    3    0    0  0.20354207862E+02  0.32639821145E+02  0.79561421598E+01  0.39280426425E+02  0.00000000000E+00 0.  1.
</event>
<event>
 7    1  0.2972263E-013  0.7246157E+02  0.7816164E-02  0.1226708E+00
        -11   -1    0    0    0    0  0.00000000000E+00  0.00000000000E+00  0.45593999997E+02  0.45594000000E+02  0.51100000000E-03 0. -1.
         11   -1    0    0    0    0 -0.00000000000E+00 -0.00000000000E+00 -0.45593999997E+02  0.45594000000E+02  0.51100000000E-03 0.  1.
    9900012    2    1    2    0    0 -0.18075488497E+02 -0.48525338521E+01 -0.63928594372E+00  0.72461573333E+02  0.70000003958E+02 0.  0.
         12    1    1    2    0    0  0.18075488497E+02  0.48525338521E+01  0.63928594372E+00  0.18726426667E+02  0.00000000000E+00 0. -1.
         11    1    3    3    0    0  0.55186087488E+01 -0.22804599289E+01  0.61692357071E+01  0.85857445502E+01  0.51100000000E-03 0. -1.
        -11    1    3    3    0    0  0.13224560406E+02  0.10784482682E+02 -0.16275501458E+02  0.23581476048E+02  0.51100000000E-03 0.  1.
        -12    1    3    3    0    0 -0.36818657652E+02 -0.13356556605E+02  0.94669798070E+01  0.40294352735E+02  0.00000000000E+00 0.  1.
</event>
<event>
 7    1  0.2972263E-013  0.7246156E+02  0.7816164E-02  0.1226708E+00
        -11   -1    0    0    0    0  0.00000000000E+00  0.00000000000E+00  0.45593999997E+02  0.45594000000E+02  0.51100000000E-03 0. -1.
         11   -1    0    0    0    0 -0.00000000000E+00 -0.00000000000E+00 -0.45593999997E+02  0.45594000000E+02  0.51100000000E-03 0.  1.
    9900012    2    1    2    0    0 -0.15977062734E+02  0.34202670113E+01 -0.91495813630E+01  0.72461558823E+02  0.69999985056E+02 0.  0.
         12    1    1    2    0    0  0.15977062734E+02 -0.34202670113E+01  0.91495813630E+01  0.18726441177E+02  0.00000000000E+00 0. -1.
         11    1    3    3    0    0  0.13259113474E+02 -0.25809639611E+01 -0.25782901716E+01  0.13751837898E+02  0.51100000000E-03 0. -1.
        -11    1    3    3    0    0 -0.87871408597E+01 -0.19073081524E+02 -0.14347011109E+02  0.25432911972E+02  0.51100000000E-03 0.  1.
         12    1    3    3    0    0 -0.20449035349E+02  0.25074312497E+02  0.77757199180E+01  0.33276808954E+02  0.00000000000E+00 0. -1.
</event>
<event>
 7    1  0.2972263E-013  0.7246149E+02  0.7816164E-02  0.1226708E+00
        -11   -1    0    0    0    0  0.00000000000E+00  0.00000000000E+00  0.45593999997E+02  0.45594000000E+02  0.51100000000E-03 0. -1.
         11   -1    0    0    0    0 -0.00000000000E+00 -0.00000000000E+00 -0.45593999997E+02  0.45594000000E+02  0.51100000000E-03 0.  1.
    9900012    2    1    2    0    0 -0.20120330560E+00  0.18015204354E+02  0.51082507863E+01  0.72461486796E+02  0.69999891228E+02 0.  0.
         12    1    1    2    0    0  0.20120330560E+00 -0.18015204354E+02 -0.51082507863E+01  0.18726513204E+02  0.00000000000E+00 0. -1.
         11    1    3    3    0    0  0.28696781709E+02  0.20372814574E+02  0.12883800649E+02  0.37477315453E+02  0.51100000000E-03 0. -1.
        -11    1    3    3    0    0 -0.80122224439E+00  0.49952381472E+01 -0.14085213691E+01  0.52515039694E+01  0.51100000000E-03 0.  1.
        -12    1    3    3    0    0 -0.28096762771E+02 -0.73528483675E+01 -0.63670284931E+01  0.29732667373E+02  0.00000000000E+00 0.  1.
</event>
<event>
 7    1  0.2972263E-013  0.7246154E+02  0.7816164E-02  0.1226708E+00
        -11   -1    0    0    0    0  0.00000000000E+00  0.00000000000E+00  0.45593999997E+02  0.45594000000E+02  0.51100000000E-03 0.  1.
         11   -1    0    0    0    0 -0.00000000000E+00 -0.00000000000E+00 -0.45593999997E+02  0.45594000000E+02  0.51100000000E-03 0. -1.
    9900012    2    1    2    0    0 -0.12437417728E+02 -0.78215197088E+01  0.11610976744E+02  0.72461539811E+02  0.69999960289E+02 0.  0.
         12    1    1    2    0    0  0.12437417728E+02  0.78215197088E+01 -0.11610976744E+02  0.18726460189E+02  0.00000000000E+00 0. -1.
         11    1    3    3    0    0 -0.30128265364E+02  0.80671178634E+01  0.13642666440E+02  0.34042812932E+02  0.51100000000E-03 0. -1.
        -11    1    3    3    0    0  0.70852432547E+01  0.83072334613E+01 -0.46577729029E+01  0.11870368505E+02  0.51100000000E-03 0.  1.
        -12    1    3    3    0    0  0.10605604381E+02 -0.24195871033E+02  0.26260832063E+01  0.26548358374E+02  0.00000000000E+00 0.  1.
</event>
<event>
 7    1  0.2972263E-013  0.7246159E+02  0.7816164E-02  0.1226708E+00
        -11   -1    0    0    0    0  0.00000000000E+00  0.00000000000E+00  0.45593999997E+02  0.45594000000E+02  0.51100000000E-03 0. -1.
         11   -1    0    0    0    0 -0.00000000000E+00 -0.00000000000E+00 -0.45593999997E+02  0.45594000000E+02  0.51100000000E-03 0.  1.
    9900012    2    1    2    0    0 -0.17941801219E+02 -0.44584328138E+01  0.29820629932E+01  0.72461586733E+02  0.70000021415E+02 0.  0.
         12    1    1    2    0    0  0.17941801219E+02  0.44584328138E+01 -0.29820629932E+01  0.18726413267E+02  0.00000000000E+00 0. -1.
         11    1    3    3    0    0 -0.87305726698E+01 -0.52481406879E+01 -0.16915915064E+02  0.19746241732E+02  0.51100000000E-03 0. -1.
        -11    1    3    3    0    0  0.19402113784E+02 -0.39593814652E+01  0.75769995855E+01  0.21202114136E+02  0.51100000000E-03 0.  1.
         12    1    3    3    0    0 -0.28613342333E+02  0.47490893394E+01  0.12320978472E+02  0.31513230865E+02  0.00000000000E+00 0. -1.
</event>
<event>
 7    1  0.2972263E-013  0.7246155E+02  0.7816164E-02  0.1226708E+00
        -11   -1    0    0    0    0  0.00000000000E+00  0.00000000000E+00  0.45593999997E+02  0.45594000000E+02  0.51100000000E-03 0. -1.
         11   -1    0    0    0    0 -0.00000000000E+00 -0.00000000000E+00 -0.45593999997E+02  0.45594000000E+02  0.51100000000E-03 0.  1.
    9900012    2    1    2    0    0 -0.99576652270E+01  0.13466350267E+02 -0.83774890664E+01  0.72461547871E+02  0.69999970790E+02 0.  0.
         12    1    1    2    0    0  0.99576652270E+01 -0.13466350267E+02  0.83774890664E+01  0.18726452129E+02  0.00000000000E+00 0. -1.
         11    1    3    3    0    0 -0.22669559244E+01  0.16602974629E+02 -0.46186773102E+01  0.17381888161E+02  0.51100000000E-03 0. -1.
        -11    1    3    3    0    0 -0.16596356889E+02  0.16834871589E+02 -0.17358360765E+02  0.29328563758E+02  0.51100000000E-03 0.  1.
         12    1    3    3    0    0  0.89056475865E+01 -0.19971495952E+02  0.13599549008E+02  0.25751095952E+02  0.00000000000E+00 0. -1.
</event>
<event>
 7    1  0.2972263E-013  0.7246153E+02  0.7816164E-02  0.1226708E+00
        -11   -1    0    0    0    0  0.00000000000E+00  0.00000000000E+00  0.45593999997E+02  0.45594000000E+02  0.51100000000E-03 0.  1.
         11   -1    0    0    0    0 -0.00000000000E+00 -0.00000000000E+00 -0.45593999997E+02  0.45594000000E+02  0.51100000000E-03 0. -1.
    9900012    2    1    2    0    0 -0.25349618077E+01  0.18286229048E+02 -0.31414019259E+01  0.72461531827E+02  0.69999949889E+02 0.  0.
         12    1    1    2    0    0  0.25349618077E+01 -0.18286229048E+02  0.31414019259E+01  0.18726468173E+02  0.00000000000E+00 0. -1.
         11    1    3    3    0    0  0.24681047971E+01  0.20332876723E+01  0.24100409549E+02  0.24311633856E+02  0.51100000000E-03 0. -1.
        -11    1    3    3    0    0  0.37696009684E+00  0.18104673730E+02  0.21287486970E+01  0.18233290462E+02  0.51100000000E-03 0.  1.
         12    1    3    3    0    0 -0.53800267016E+01 -0.18517323546E+01 -0.29370560172E+02  0.29916607509E+02  0.00000000000E+00 0. -1.
</event>
<event>
 7    1  0.2972263E-013  0.7246155E+02  0.7816164E-02  0.1226708E+00
        -11   -1    0    0    0    0  0.00000000000E+00  0.00000000000E+00  0.45593999997E+02  0.45594000000E+02  0.51100000000E-03 0. -1.
         11   -1    0    0    0    0 -0.00000000000E+00 -0.00000000000E+00 -0.45593999997E+02  0.45594000000E+02  0.51100000000E-03 0.  1.
    9900012    2    1    2    0    0 -0.17009563297E+02  0.68025148179E+01 -0.38833698260E+01  0.72461547784E+02  0.69999970676E+02 0.  0.
         12    1    1    2    0    0  0.17009563297E+02 -0.68025148179E+01  0.38833698260E+01  0.18726452216E+02  0.00000000000E+00 0. -1.
         11    1    3    3    0    0 -0.19498706045E+02 -0.74652762264E+01 -0.21577766697E+01  0.20990137851E+02  0.51100000000E-03 0. -1.
        -11    1    3    3    0    0 -0.21284905110E+02  0.67112165438E+01  0.93245327918E+01  0.24187486952E+02  0.51100000000E-03 0.  1.
        -12    1    3    3    0    0  0.23774047858E+02  0.75565745004E+01 -0.11050125948E+02  0.27283922981E+02  0.00000000000E+00 0.  1.
</event>
<event>
 7    1  0.2972263E-013  0.7246161E+02  0.7816164E-02  0.1226708E+00
        -11   -1    0    0    0    0  0.00000000000E+00  0.00000000000E+00  0.45593999997E+02  0.45594000000E+02  0.51100000000E-03 0.  1.
         11   -1    0    0    0    0 -0.00000000000E+00 -0.00000000000E+00 -0.45593999997E+02  0.45594000000E+02  0.51100000000E-03 0. -1.
    9900012    2    1    2    0    0 -0.70921875433E+01  0.16569038657E+02  0.50838321705E+01  0.72461614452E+02  0.70000057523E+02 0.  0.
         12    1    1    2    0    0  0.70921875433E+01 -0.16569038657E+02 -0.50838321705E+01  0.18726385548E+02  0.00000000000E+00 0. -1.
         11    1    3    3    0    0 -0.21055036204E+02  0.40118012690E+01 -0.57906401488E+01  0.22202265933E+02  0.51100000000E-03 0. -1.
        -11    1    3    3    0    0 -0.12764490012E+02  0.15919067186E+02  0.11286810034E+02  0.23318254359E+02  0.51100000000E-03 0.  1.
         12    1    3    3    0    0  0.26727338673E+02 -0.33618297979E+01 -0.41233771506E+00  0.26941094159E+02  0.00000000000E+00 0. -1.
</event>
<event>
 7    1  0.2972263E-013  0.7246156E+02  0.7816164E-02  0.1226708E+00
        -11   -1    0    0    0    0  0.00000000000E+00  0.00000000000E+00  0.45593999997E+02  0.45594000000E+02  0.51100000000E-03 0. -1.
         11   -1    0    0    0    0 -0.00000000000E+00 -0.00000000000E+00 -0.45593999997E+02  0.45594000000E+02  0.51100000000E-03 0.  1.
    9900012    2    1    2    0    0 -0.14842387918E+02  0.11107070249E+02 -0.26488170168E+01  0.72461555591E+02  0.69999980846E+02 0.  0.
         12    1    1    2    0    0  0.14842387918E+02 -0.11107070249E+02  0.26488170168E+01  0.18726444409E+02  0.00000000000E+00 0. -1.
         11    1    3    3    0    0 -0.75024352635E+01  0.13340254953E+02  0.13119032924E+02  0.20158322406E+02  0.51100000000E-03 0. -1.
        -11    1    3    3    0    0 -0.37889420734E+01  0.12054007314E+02  0.14143278901E+02  0.18965429410E+02  0.51100000000E-03 0.  1.
        -12    1    3    3    0    0 -0.35510105812E+01 -0.14287192018E+02 -0.29911128842E+02  0.33337803775E+02  0.00000000000E+00 0.  1.
</event>
<event>
 7    1  0.2972263E-013  0.7246158E+02  0.7816164E-02  0.1226708E+00
        -11   -1    0    0    0    0  0.00000000000E+00  0.00000000000E+00  0.45593999997E+02  0.45594000000E+02  0.51100000000E-03 0. -1.
         11   -1    0    0    0    0 -0.00000000000E+00 -0.00000000000E+00 -0.45593999997E+02  0.45594000000E+02  0.51100000000E-03 0.  1.
    9900012    2    1    2    0    0  0.64697821991E+01  0.10984689116E+02 -0.13717045422E+02  0.72461579846E+02  0.70000012443E+02 0.  0.
         12    1    1    2    0    0 -0.64697821991E+01 -0.10984689116E+02  0.13717045422E+02  0.18726420154E+02  0.00000000000E+00 0. -1.
         11    1    3    3    0    0 -0.18204094070E+00 -0.15357987223E+02 -0.12431131178E+02  0.19759401131E+02  0.51100000000E-03 0. -1.
        -11    1    3    3    0    0  0.18164976601E+02  0.21988194392E+02 -0.16642300744E+02  0.33021405813E+02  0.51100000000E-03 0.  1.
         12    1    3    3    0    0 -0.11513153461E+02  0.43544819461E+01  0.15356386500E+02  0.19680772901E+02  0.00000000000E+00 0. -1.
</event>
<event>
 7    1  0.2972263E-013  0.7246156E+02  0.7816164E-02  0.1226708E+00
        -11   -1    0    0    0    0  0.00000000000E+00  0.00000000000E+00  0.45593999997E+02  0.45594000000E+02  0.51100000000E-03 0. -1.
         11   -1    0    0    0    0 -0.00000000000E+00 -0.00000000000E+00 -0.45593999997E+02  0.45594000000E+02  0.51100000000E-03 0.  1.
    9900012    2    1    2    0    0 -0.55544591642E+01  0.15125348306E+02 -0.95420822557E+01  0.72461561156E+02  0.69999988096E+02 0.  0.
         12    1    1    2    0    0  0.55544591642E+01 -0.15125348306E+02  0.95420822557E+01  0.18726438844E+02  0.00000000000E+00 0. -1.
         11    1    3    3    0    0 -0.12663930698E+02  0.29029865923E+02  0.41016162572E+01  0.31936366613E+02  0.51100000000E-03 0. -1.
        -11    1    3    3    0    0 -0.89577312841E+01  0.71284248818E+01 -0.62559392092E+01  0.13045771986E+02  0.51100000000E-03 0.  1.
        -12    1    3    3    0    0  0.16067202818E+02 -0.21032942499E+02 -0.73877593037E+01  0.27479422558E+02  0.00000000000E+00 0.  1.
</event>
<event>
 7    1  0.2972263E-013  0.7246154E+02  0.7816164E-02  0.1226708E+00
        -11   -1    0    0    0    0  0.00000000000E+00  0.00000000000E+00  0.45593999997E+02  0.45594000000E+02  0.51100000000E-03 0.  1.
         11   -1    0    0    0    0 -0.00000000000E+00 -0.00000000000E+00 -0.45593999997E+02  0.45594000000E+02  0.51100000000E-03 0. -1.
    9900012    2    1    2    0    0 -0.85286098037E+01 -0.63451423545E-01  0.16671506193E+02  0.72461539309E+02  0.69999959636E+02 0.  0.
         12    1    1    2    0    0  0.85286098037E+01  0.63451423545E-01 -0.16671506193E+02  0.18726460691E+02  0.00000000000E+00 0. -1.
         11    1    3    3    0    0 -0.16128250258E+02 -0.15792471686E+01  0.10572295560E+02  0.19349106224E+02  0.51100000000E-03 0. -1.
        -11    1    3    3    0    0  0.20806371516E+02 -0.55832403957E+00  0.23355142124E+02  0.31283853428E+02  0.51100000000E-03 0.  1.
         12    1    3    3    0    0 -0.13206731061E+02  0.20741197847E+01 -0.17255931491E+02  0.21828579657E+02  0.00000000000E+00 0. -1.
</event>
<event>
 7    1  0.2972263E-013  0.7246158E+02  0.7816164E-02  0.1226708E+00
        -11   -1    0    0    0    0  0.00000000000E+00  0.00000000000E+00  0.45593999997E+02  0.45594000000E+02  0.51100000000E-03 0.  1.
         11   -1    0    0    0    0 -0.00000000000E+00 -0.00000000000E+00 -0.45593999997E+02  0.45594000000E+02  0.51100000000E-03 0. -1.
    9900012    2    1    2    0    0 -0.80304003467E+01  0.15352988449E+02  0.71047327386E+01  0.72461579858E+02  0.70000012458E+02 0.  0.
         12    1    1    2    0    0  0.80304003467E+01 -0.15352988449E+02 -0.71047327386E+01  0.18726420142E+02  0.00000000000E+00 0. -1.
         11    1    3    3    0    0 -0.15023708096E+02 -0.34178122898E+01  0.27833433536E+01  0.15656955205E+02  0.51100000000E-03 0. -1.
        -11    1    3    3    0    0  0.13083587968E+01 -0.17939772057E+02  0.75684626901E+01  0.19514836713E+02  0.51100000000E-03 0.  1.
         12    1    3    3    0    0  0.56849489525E+01  0.36710572796E+02 -0.32470733050E+01  0.37289787940E+02  0.00000000000E+00 0. -1.
</event>
<event>
 7    1  0.2972263E-013  0.7246156E+02  0.7816164E-02  0.1226708E+00
        -11   -1    0    0    0    0  0.00000000000E+00  0.00000000000E+00  0.45593999997E+02  0.45594000000E+02  0.51100000000E-03 0.  1.
         11   -1    0    0    0    0 -0.00000000000E+00 -0.00000000000E+00 -0.45593999997E+02  0.45594000000E+02  0.51100000000E-03 0. -1.
    9900012    2    1    2    0    0 -0.34571101276E+01  0.15002020820E+02  0.10661481368E+02  0.72461563498E+02  0.69999991147E+02 0.  0.
         12    1    1    2    0    0  0.34571101276E+01 -0.15002020820E+02 -0.10661481368E+02  0.18726436502E+02  0.00000000000E+00 0. -1.
         11    1    3    3    0    0 -0.12165455825E+02 -0.26369262812E+00  0.50342742788E+01  0.13168590168E+02  0.51100000000E-03 0. -1.
        -11    1    3    3    0    0 -0.17048670204E+02 -0.14123096880E+01  0.19221206024E+02  0.25731430891E+02  0.51100000000E-03 0.  1.
         12    1    3    3    0    0  0.25757015902E+02  0.16678023136E+02 -0.13593998936E+02  0.33561542440E+02  0.00000000000E+00 0. -1.
</event>
<event>
 7    1  0.2972263E-013  0.7246159E+02  0.7816164E-02  0.1226708E+00
        -11   -1    0    0    0    0  0.00000000000E+00  0.00000000000E+00  0.45593999997E+02  0.45594000000E+02  0.51100000000E-03 0.  1.
         11   -1    0    0    0    0 -0.00000000000E+00 -0.00000000000E+00 -0.45593999997E+02  0.45594000000E+02  0.51100000000E-03 0. -1.
    9900012    2    1    2    0    0  0.11373918582E+02 -0.14592775702E+02 -0.28919181047E+01  0.72461593059E+02  0.70000029655E+02 0.  0.
         12    1    1    2    0    0 -0.11373918582E+02  0.14592775702E+02  0.28919181047E+01  0.18726406941E+02  0.00000000000E+00 0. -1.
         11    1    3    3    0    0 -0.12617442162E+02 -0.12144114079E+02  0.18085584947E+01  0.17605403647E+02  0.51100000000E-03 0. -1.
        -11    1    3    3    0    0  0.65666312746E+00  0.15558612596E+02  0.13163256055E+02  0.20390511092E+02  0.51100000000E-03 0.  1.
         12    1    3    3    0    0  0.23334697617E+02 -0.18007274219E+02 -0.17863732654E+02  0.34465678319E+02  0.00000000000E+00 0. -1.
</event>
<event>
 7    1  0.2972263E-013  0.7246161E+02  0.7816164E-02  0.1226708E+00
        -11   -1    0    0    0    0  0.00000000000E+00  0.00000000000E+00  0.45593999997E+02  0.45594000000E+02  0.51100000000E-03 0. -1.
         11   -1    0    0    0    0 -0.00000000000E+00 -0.00000000000E+00 -0.45593999997E+02  0.45594000000E+02  0.51100000000E-03 0.  1.
    9900012    2    1    2    0    0 -0.14252643296E+01 -0.32973181398E+01 -0.18378628973E+02  0.72461609845E+02  0.70000051522E+02 0.  0.
         12    1    1    2    0    0  0.14252643296E+01  0.32973181398E+01  0.18378628973E+02  0.18726390155E+02  0.00000000000E+00 0. -1.
         11    1    3    3    0    0 -0.44992757939E+01  0.16507784640E+02 -0.62591982368E+01  0.18218891273E+02  0.51100000000E-03 0. -1.
        -11    1    3    3    0    0 -0.42878457461E+01 -0.95805961612E+01 -0.30332091661E+02  0.32096872569E+02  0.51100000000E-03 0.  1.
         12    1    3    3    0    0  0.73618572103E+01 -0.10224506619E+02  0.18212660925E+02  0.22145846002E+02  0.00000000000E+00 0. -1.
</event>
<event>
 7    1  0.2972263E-013  0.7246156E+02  0.7816164E-02  0.1226708E+00
        -11   -1    0    0    0    0  0.00000000000E+00  0.00000000000E+00  0.45593999997E+02  0.45594000000E+02  0.51100000000E-03 0.  1.
         11   -1    0    0    0    0 -0.00000000000E+00 -0.00000000000E+00 -0.45593999997E+02  0.45594000000E+02  0.51100000000E-03 0. -1.
    9900012    2    1    2    0    0 -0.11554915888E+02 -0.39012997915E+01  0.14210675030E+02  0.72461561309E+02  0.69999988295E+02 0.  0.
         12    1    1    2    0    0  0.11554915888E+02  0.39012997915E+01 -0.14210675030E+02  0.18726438691E+02  0.00000000000E+00 0. -1.
         11    1    3    3    0    0 -0.27143816631E+01  0.25335223494E+01  0.60941762462E+01  0.71362166230E+01  0.51100000000E-03 0. -1.
        -11    1    3    3    0    0 -0.12589672494E+02  0.26941002747E+02  0.10787305906E+02  0.31633581073E+02  0.51100000000E-03 0.  1.
         12    1    3    3    0    0  0.37491382690E+01 -0.33375824888E+02 -0.26708071220E+01  0.33691763613E+02  0.00000000000E+00 0. -1.
</event>
<event>
 7    1  0.2972263E-013  0.7246161E+02  0.7816164E-02  0.1226708E+00
        -11   -1    0    0    0    0  0.00000000000E+00  0.00000000000E+00  0.45593999997E+02  0.45594000000E+02  0.51100000000E-03 0.  1.
         11   -1    0    0    0    0 -0.00000000000E+00 -0.00000000000E+00 -0.45593999997E+02  0.45594000000E+02  0.51100000000E-03 0. -1.
    9900012    2    1    2    0    0 -0.13340020859E+02 -0.43895516222E+00  0.13135030636E+02  0.72461605046E+02  0.70000045271E+02 0.  0.
         12    1    1    2    0    0  0.13340020859E+02  0.43895516222E+00 -0.13135030636E+02  0.18726394954E+02  0.00000000000E+00 0. -1.
         11    1    3    3    0    0  0.35722669490E+00 -0.19366624622E+01 -0.15880926025E+02  0.16002564922E+02  0.51100000000E-03 0. -1.
        -11    1    3    3    0    0 -0.18417068448E+02  0.15759953383E+02  0.51970070995E+00  0.24245301194E+02  0.51100000000E-03 0.  1.
         12    1    3    3    0    0  0.47198208944E+01 -0.14262246083E+02  0.28496255952E+02  0.32213738930E+02  0.00000000000E+00 0. -1.
</event>
<event>
 7    1  0.2972263E-013  0.7246153E+02  0.7816164E-02  0.1226708E+00
        -11   -1    0    0    0    0  0.00000000000E+00  0.00000000000E+00  0.45593999997E+02  0.45594000000E+02  0.51100000000E-03 0.  1.
         11   -1    0    0    0    0 -0.00000000000E+00 -0.00000000000E+00 -0.45593999997E+02  0.45594000000E+02  0.51100000000E-03 0. -1.
    9900012    2    1    2    0    0  0.12441448806E+02 -0.13409169584E+02  0.40106272328E+01  0.72461531883E+02  0.69999949962E+02 0.  0.
         12    1    1    2    0    0 -0.12441448806E+02  0.13409169584E+02 -0.40106272328E+01  0.18726468117E+02  0.00000000000E+00 0. -1.
         11    1    3    3    0    0  0.35554973171E+00  0.44615606961E+01 -0.18080602112E+02  0.18626328475E+02  0.51100000000E-03 0. -1.
        -11    1    3    3    0    0 -0.13476126855E+02 -0.19169671417E+02  0.11957283115E+02  0.26307012696E+02  0.51100000000E-03 0.  1.
         12    1    3    3    0    0  0.25562025929E+02  0.12989411365E+01  0.10133946230E+02  0.27528190712E+02  0.00000000000E+00 0. -1.
</event>
<event>
 7    1  0.2972263E-013  0.7246154E+02  0.7816164E-02  0.1226708E+00
        -11   -1    0    0    0    0  0.00000000000E+00  0.00000000000E+00  0.45593999997E+02  0.45594000000E+02  0.51100000000E-03 0. -1.
         11   -1    0    0    0    0 -0.00000000000E+00 -0.00000000000E+00 -0.45593999997E+02  0.45594000000E+02  0.51100000000E-03 0.  1.
    9900012    2    1    2    0    0  0.10302755279E+02 -0.18330605264E+01 -0.15529757022E+02  0.72461541969E+02  0.69999963101E+02 0.  0.
         12    1    1    2    0    0 -0.10302755279E+02  0.18330605264E+01  0.15529757022E+02  0.18726458031E+02  0.00000000000E+00 0. -1.
         11    1    3    3    0    0  0.22428920235E+01 -0.17544771639E+02  0.50496734094E+00  0.17694761055E+02  0.51100000000E-03 0. -1.
        -11    1    3    3    0    0  0.12281216346E+02 -0.11899470476E+02  0.70827004318E+01  0.18509195504E+02  0.51100000000E-03 0.  1.
        -12    1    3    3    0    0 -0.42213530901E+01  0.27611181589E+02 -0.23117424794E+02  0.36257585410E+02  0.00000000000E+00 0.  1.
</event>
<event>
 7    1  0.2972263E-013  0.7246157E+02  0.7816164E-02  0.1226708E+00
        -11   -1    0    0    0    0  0.00000000000E+00  0.00000000000E+00  0.45593999997E+02  0.45594000000E+02  0.51100000000E-03 0.  1.
         11   -1    0    0    0    0 -0.00000000000E+00 -0.00000000000E+00 -0.45593999997E+02  0.45594000000E+02  0.51100000000E-03 0. -1.
    9900012    2    1    2    0    0  0.50397118256E+01 -0.16793773449E+02  0.65764608636E+01  0.72461565223E+02  0.69999993394E+02 0.  0.
         12    1    1    2    0    0 -0.50397118256E+01  0.16793773449E+02 -0.65764608636E+01  0.18726434777E+02  0.00000000000E+00 0. -1.
         11    1    3    3    0    0  0.13410474948E+02 -0.11540602286E+02 -0.31985387938E+01  0.17979348991E+02  0.51100000000E-03 0. -1.
        -11    1    3    3    0    0  0.69968984878E+01 -0.22195700497E+02  0.18774832791E+02  0.29901505909E+02  0.51100000000E-03 0.  1.
         12    1    3    3    0    0 -0.15367661610E+02  0.16942529334E+02 -0.89998331336E+01  0.24580710324E+02  0.00000000000E+00 0. -1.
</event>
<event>
 7    1  0.2972263E-013  0.7246160E+02  0.7816164E-02  0.1226708E+00
        -11   -1    0    0    0    0  0.00000000000E+00  0.00000000000E+00  0.45593999997E+02  0.45594000000E+02  0.51100000000E-03 0.  1.
         11   -1    0    0    0    0 -0.00000000000E+00 -0.00000000000E+00 -0.45593999997E+02  0.45594000000E+02  0.51100000000E-03 0. -1.
    9900012    2    1    2    0    0 -0.11453504062E+01 -0.98923657795E+01  0.15858982714E+02  0.72461599892E+02  0.70000038556E+02 0.  0.
         12    1    1    2    0    0  0.11453504062E+01  0.98923657795E+01 -0.15858982714E+02  0.18726400108E+02  0.00000000000E+00 0. -1.
         11    1    3    3    0    0 -0.48736980186E-01  0.41504131646E+01 -0.62786288663E+01  0.75265852438E+01  0.51100000000E-03 0. -1.
        -11    1    3    3    0    0  0.25199955466E+02  0.52752810893E+01  0.44033451691E+00  0.25749956132E+02  0.51100000000E-03 0.  1.
         12    1    3    3    0    0 -0.26296568892E+02 -0.19318060033E+02  0.21697277064E+02  0.39185058516E+02  0.00000000000E+00 0. -1.
</event>
<event>
 7    1  0.2972263E-013  0.7246158E+02  0.7816164E-02  0.1226708E+00
        -11   -1    0    0    0    0  0.00000000000E+00  0.00000000000E+00  0.45593999997E+02  0.45594000000E+02  0.51100000000E-03 0.  1.
         11   -1    0    0    0    0 -0.00000000000E+00 -0.00000000000E+00 -0.45593999997E+02  0.45594000000E+02  0.51100000000E-03 0. -1.
    9900012    2    1    2    0    0  0.66144395394E+01  0.27853234356E+01  0.17296531608E+02  0.72461579020E+02  0.70000011367E+02 0.  0.
         12    1    1    2    0    0 -0.66144395394E+01 -0.27853234356E+01 -0.17296531608E+02  0.18726420980E+02  0.00000000000E+00 0. -1.
         11    1    3    3    0    0 -0.10808109202E+02 -0.35401008018E+01 -0.10106868159E+02  0.15215003202E+02  0.51100000000E-03 0. -1.
        -11    1    3    3    0    0 -0.11333380785E+02 -0.33447144494E+01  0.23957467606E+02  0.26713159475E+02  0.51100000000E-03 0.  1.
        -12    1    3    3    0    0  0.28755929526E+02  0.96701386868E+01  0.34459321598E+01  0.30533416343E+02  0.00000000000E+00 0.  1.
</event>
<event>
 7    1  0.2972263E-013  0.7246157E+02  0.7816164E-02  0.1226708E+00
        -11   -1    0    0    0    0  0.00000000000E+00  0.00000000000E+00  0.45593999997E+02  0.45594000000E+02  0.51100000000E-03 0. -1.
         11   -1    0    0    0    0 -0.00000000000E+00 -0.00000000000E+00 -0.45593999997E+02  0.45594000000E+02  0.51100000000E-03 0.  1.
    9900012    2    1    2    0    0  0.20693270788E+01 -0.17948373886E+02 -0.49247136214E+01  0.72461573646E+02  0.70000004367E+02 0.  0.
         12    1    1    2    0    0 -0.20693270788E+01  0.17948373886E+02  0.49247136214E+01  0.18726426354E+02  0.00000000000E+00 0. -1.
         11    1    3    3    0    0  0.33471375776E+02 -0.48080982358E+01  0.62463401380E+01  0.34387026193E+02  0.51100000000E-03 0. -1.
        -11    1    3    3    0    0  0.16127412782E+00 -0.30986850803E+01 -0.20519693083E+01  0.37200049562E+01  0.51100000000E-03 0.  1.
        -12    1    3    3    0    0 -0.31563322825E+02 -0.10041590570E+02 -0.91190844511E+01  0.34354542497E+02  0.00000000000E+00 0.  1.
</event>
<event>
 7    1  0.2972263E-013  0.7246157E+02  0.7816164E-02  0.1226708E+00
        -11   -1    0    0    0    0  0.00000000000E+00  0.00000000000E+00  0.45593999997E+02  0.45594000000E+02  0.51100000000E-03 0. -1.
         11   -1    0    0    0    0 -0.00000000000E+00 -0.00000000000E+00 -0.45593999997E+02  0.45594000000E+02  0.51100000000E-03 0.  1.
    9900012    2    1    2    0    0  0.18411862984E+02  0.60903765456E+00 -0.33632663560E+01  0.72461569855E+02  0.69999999427E+02 0.  0.
         12    1    1    2    0    0 -0.18411862984E+02 -0.60903765456E+00  0.33632663560E+01  0.18726430145E+02  0.00000000000E+00 0. -1.
         11    1    3    3    0    0 -0.89483226910E+01  0.17392949476E+02  0.16776808600E+02  0.25769138083E+02  0.51100000000E-03 0. -1.
        -11    1    3    3    0    0 -0.14736316582E+01 -0.32614030523E+01  0.49785772320E+01  0.61314412376E+01  0.51100000000E-03 0.  1.
        -12    1    3    3    0    0  0.28833817333E+02 -0.13522508769E+02 -0.25118652188E+02  0.40560990535E+02  0.00000000000E+00 0.  1.
</event>
<event>
 7    1  0.2972263E-013  0.7246179E+02  0.7816164E-02  0.1226707E+00
        -11   -1    0    0    0    0  0.00000000000E+00  0.00000000000E+00  0.45593999997E+02  0.45594000000E+02  0.51100000000E-03 0.  1.
         11   -1    0    0    0    0 -0.00000000000E+00 -0.00000000000E+00 -0.45593999997E+02  0.45594000000E+02  0.51100000000E-03 0. -1.
    9900012    2    1    2    0    0 -0.14388132675E+02  0.10591142447E+01 -0.11938622947E+02  0.72461793691E+02  0.70000291014E+02 0.  0.
         12    1    1    2    0    0  0.14388132675E+02 -0.10591142447E+01  0.11938622947E+02  0.18726206309E+02  0.00000000000E+00 0. -1.
         11    1    3    3    0    0 -0.11209423664E+02 -0.18713483990E+02  0.22160498764E+02  0.31095552216E+02  0.51100000000E-03 0.  1.
        -11    1    3    3    0    0  0.10731915054E+01  0.14133455000E+01 -0.12818675128E+02  0.12940931875E+02  0.51100000000E-03 0. -1.
        -12    1    3    3    0    0 -0.42519005170E+01  0.18359252735E+02 -0.21280446583E+02  0.28425309599E+02  0.00000000000E+00 0.  1.
</event>
<event>
 7    1  0.2972263E-013  0.7246157E+02  0.7816164E-02  0.1226708E+00
        -11   -1    0    0    0    0  0.00000000000E+00  0.00000000000E+00  0.45593999997E+02  0.45594000000E+02  0.51100000000E-03 0.  1.
         11   -1    0    0    0    0 -0.00000000000E+00 -0.00000000000E+00 -0.45593999997E+02  0.45594000000E+02  0.51100000000E-03 0. -1.
    9900012    2    1    2    0    0 -0.18628508153E+02  0.12567186629E+01 -0.14417654929E+01  0.72461565595E+02  0.69999993878E+02 0.  0.
         12    1    1    2    0    0  0.18628508153E+02 -0.12567186629E+01  0.14417654929E+01  0.18726434405E+02  0.00000000000E+00 0. -1.
         11    1    3    3    0    0 -0.17368697162E+02  0.45124141229E-03 -0.22885098740E+02  0.28729764808E+02  0.51100000000E-03 0. -1.
        -11    1    3    3    0    0 -0.60442065476E+01  0.15660715511E+02 -0.79728421799E+00  0.16805537941E+02  0.51100000000E-03 0.  1.
        -12    1    3    3    0    0  0.47843955573E+01 -0.14404448089E+02  0.22240617465E+02  0.26926262846E+02  0.00000000000E+00 0.  1.
</event>
<event>
 7    1  0.2972263E-013  0.7246159E+02  0.7816164E-02  0.1226708E+00
        -11   -1    0    0    0    0  0.00000000000E+00  0.00000000000E+00  0.45593999997E+02  0.45594000000E+02  0.51100000000E-03 0. -1.
         11   -1    0    0    0    0 -0.00000000000E+00 -0.00000000000E+00 -0.45593999997E+02  0.45594000000E+02  0.51100000000E-03 0.  1.
    9900012    2    1    2    0    0  0.10161171039E+02 -0.13498621289E+02 -0.80756537969E+01  0.72461591966E+02  0.70000028231E+02 0.  0.
         12    1    1    2    0    0 -0.10161171039E+02  0.13498621289E+02  0.80756537969E+01  0.18726408034E+02  0.00000000000E+00 0. -1.
         11    1    3    3    0    0 -0.83586803012E+01  0.33705098993E+00  0.93527546180E+01  0.12548113761E+02  0.51100000000E-03 0. -1.
        -11    1    3    3    0    0  0.27052418411E+02  0.12053864489E+02 -0.12799672094E+02  0.32263920979E+02  0.51100000000E-03 0.  1.
         12    1    3    3    0    0 -0.85325670700E+01 -0.25889536768E+02 -0.46287363205E+01  0.27649557226E+02  0.00000000000E+00 0. -1.
</event>
<event>
 7    1  0.2972263E-013  0.7246165E+02  0.7816164E-02  0.1226708E+00
        -11   -1    0    0    0    0  0.00000000000E+00  0.00000000000E+00  0.45593999997E+02  0.45594000000E+02  0.51100000000E-03 0. -1.
         11   -1    0    0    0    0 -0.00000000000E+00 -0.00000000000E+00 -0.45593999997E+02  0.45594000000E+02  0.51100000000E-03 0.  1.
    9900012    2    1    2    0    0  0.16390120084E+02  0.71181373877E+01 -0.56010972966E+01  0.72461649390E+02  0.70000103037E+02 0.  0.
         12    1    1    2    0    0 -0.16390120084E+02 -0.71181373877E+01  0.56010972966E+01  0.18726350610E+02  0.00000000000E+00 0. -1.
         11    1    3    3    0    0  0.17784845134E+02 -0.71963131285E+01  0.10797544293E+00  0.19185914053E+02  0.51100000000E-03 0. -1.
        -11    1    3    3    0    0  0.41375069228E+01 -0.78250524561E+01  0.18191257811E+02  0.20230478751E+02  0.51100000000E-03 0.  1.
         12    1    3    3    0    0 -0.55322319731E+01  0.22139502972E+02 -0.23900330550E+02  0.33045256587E+02  0.00000000000E+00 0. -1.
</event>
<event>
 7    1  0.2972263E-013  0.7246159E+02  0.7816164E-02  0.1226708E+00
        -11   -1    0    0    0    0  0.00000000000E+00  0.00000000000E+00  0.45593999997E+02  0.45594000000E+02  0.51100000000E-03 0. -1.
         11   -1    0    0    0    0 -0.00000000000E+00 -0.00000000000E+00 -0.45593999997E+02  0.45594000000E+02  0.51100000000E-03 0.  1.
    9900012    2    1    2    0    0 -0.97696880117E+01 -0.15425713045E+02 -0.41567851819E+01  0.72461593782E+02  0.70000030597E+02 0.  0.
         12    1    1    2    0    0  0.97696880117E+01  0.15425713045E+02  0.41567851819E+01  0.18726406218E+02  0.00000000000E+00 0. -1.
         11    1    3    3    0    0 -0.31218156200E+00  0.40667874256E+01 -0.69505128953E+01  0.80588986258E+01  0.51100000000E-03 0. -1.
        -11    1    3    3    0    0 -0.14065794407E+00 -0.10944898547E+02 -0.28565312905E+02  0.30590647108E+02  0.51100000000E-03 0.  1.
         12    1    3    3    0    0 -0.93168485057E+01 -0.85476019240E+01  0.31359040618E+02  0.33812048048E+02  0.00000000000E+00 0. -1.
</event>
<event>
 7    1  0.2972263E-013  0.7246172E+02  0.7816164E-02  0.1226708E+00
        -11   -1    0    0    0    0  0.00000000000E+00  0.00000000000E+00  0.45593999997E+02  0.45594000000E+02  0.51100000000E-03 0. -1.
         11   -1    0    0    0    0 -0.00000000000E+00 -0.00000000000E+00 -0.45593999997E+02  0.45594000000E+02  0.51100000000E-03 0.  1.
    9900012    2    1    2    0    0 -0.79179553679E+01 -0.13597827309E+02 -0.10152770690E+02  0.72461716935E+02  0.70000191027E+02 0.  0.
         12    1    1    2    0    0  0.79179553679E+01  0.13597827309E+02  0.10152770690E+02  0.18726283065E+02  0.00000000000E+00 0. -1.
         11    1    3    3    0    0 -0.75333524702E+01  0.24578917502E+02 -0.19601366962E+01  0.25782100790E+02  0.51100000000E-03 0. -1.
        -11    1    3    3    0    0 -0.10732945508E+00  0.23446452525E+01 -0.56028518119E+01  0.60746053089E+01  0.51100000000E-03 0.  1.
        -12    1    3    3    0    0 -0.27727344262E+00 -0.40521390064E+02 -0.25897821819E+01  0.40605010836E+02  0.00000000000E+00 0.  1.
</event>
<event>
 7    1  0.2972263E-013  0.7246174E+02  0.7816164E-02  0.1226708E+00
        -11   -1    0    0    0    0  0.00000000000E+00  0.00000000000E+00  0.45593999997E+02  0.45594000000E+02  0.51100000000E-03 0. -1.
         11   -1    0    0    0    0 -0.00000000000E+00 -0.00000000000E+00 -0.45593999997E+02  0.45594000000E+02  0.51100000000E-03 0.  1.
    9900012    2    1    2    0    0  0.91878824647E+01  0.11612088463E+02 -0.11463645956E+02  0.72461736057E+02  0.70000215937E+02 0.  0.
         12    1    1    2    0    0 -0.91878824647E+01 -0.11612088463E+02  0.11463645956E+02  0.18726263943E+02  0.00000000000E+00 0. -1.
         11    1    3    3    0    0 -0.79526127707E+00  0.26982925606E+02 -0.55750758803E+00  0.27000398696E+02  0.51100000000E-03 0. -1.
        -11    1    3    3    0    0  0.24032932658E+02 -0.16769904682E+02 -0.11109519935E+02  0.31340596495E+02  0.51100000000E-03 0.  1.
         12    1    3    3    0    0 -0.14049788916E+02  0.13990675386E+01  0.20338156733E+00  0.14120740867E+02  0.00000000000E+00 0. -1.
</event>
<event>
 7    1  0.2972263E-013  0.7246152E+02  0.7816164E-02  0.1226708E+00
        -11   -1    0    0    0    0  0.00000000000E+00  0.00000000000E+00  0.45593999997E+02  0.45594000000E+02  0.51100000000E-03 0. -1.
         11   -1    0    0    0    0 -0.00000000000E+00 -0.00000000000E+00 -0.45593999997E+02  0.45594000000E+02  0.51100000000E-03 0.  1.
    9900012    2    1    2    0    0  0.16883484266E+02 -0.60912433525E+01 -0.53409563276E+01  0.72461518723E+02  0.69999932819E+02 0.  0.
         12    1    1    2    0    0 -0.16883484266E+02  0.60912433525E+01  0.53409563276E+01  0.18726481277E+02  0.00000000000E+00 0. -1.
         11    1    3    3    0    0  0.27708625007E+02  0.12458642891E+02  0.85217112832E-01  0.30380798948E+02  0.51100000000E-03 0.  1.
        -11    1    3    3    0    0 -0.99969807108E+01 -0.32819275714E-01 -0.17362093799E+02  0.20034545210E+02  0.51100000000E-03 0. -1.
         12    1    3    3    0    0 -0.82816003095E+00 -0.18517066968E+02  0.11935920359E+02  0.22046174565E+02  0.00000000000E+00 0. -1.
</event>
<event>
 7    1  0.2972263E-013  0.7246160E+02  0.7816164E-02  0.1226708E+00
        -11   -1    0    0    0    0  0.00000000000E+00  0.00000000000E+00  0.45593999997E+02  0.45594000000E+02  0.51100000000E-03 0. -1.
         11   -1    0    0    0    0 -0.00000000000E+00 -0.00000000000E+00 -0.45593999997E+02  0.45594000000E+02  0.51100000000E-03 0.  1.
    9900012    2    1    2    0    0  0.17900794530E+02 -0.54727229932E+01  0.53740281927E+00  0.72461603028E+02  0.70000042642E+02 0.  0.
         12    1    1    2    0    0 -0.17900794530E+02  0.54727229932E+01 -0.53740281927E+00  0.18726396972E+02  0.00000000000E+00 0. -1.
         11    1    3    3    0    0  0.74355855020E+01 -0.18748575586E+02 -0.26664610814E+02  0.33433493511E+02  0.51100000000E-03 0. -1.
        -11    1    3    3    0    0  0.67745701739E+01  0.48747746584E+00 -0.18777986289E+01  0.70468832311E+01  0.51100000000E-03 0.  1.
        -12    1    3    3    0    0  0.36906388539E+01  0.12788375127E+02  0.29079812262E+02  0.31981226286E+02  0.00000000000E+00 0.  1.
</event>
<event>
 7    1  0.2972263E-013  0.7246156E+02  0.7816164E-02  0.1226708E+00
        -11   -1    0    0    0    0  0.00000000000E+00  0.00000000000E+00  0.45593999997E+02  0.45594000000E+02  0.51100000000E-03 0.  1.
         11   -1    0    0    0    0 -0.00000000000E+00 -0.00000000000E+00 -0.45593999997E+02  0.45594000000E+02  0.51100000000E-03 0. -1.
    9900012    2    1    2    0    0 -0.13585351313E+02 -0.11380226044E+02  0.60504611224E+01  0.72461564277E+02  0.69999992161E+02 0.  0.
         12    1    1    2    0    0  0.13585351313E+02  0.11380226044E+02 -0.60504611224E+01  0.18726435723E+02  0.00000000000E+00 0. -1.
         11    1    3    3    0    0  0.11468022907E+02 -0.79874990300E+01  0.46590168685E+01  0.14731670937E+02  0.51100000000E-03 0. -1.
        -11    1    3    3    0    0  0.13869029464E+02  0.48408988763E+01 -0.81763617818E+01  0.16811816453E+02  0.51100000000E-03 0.  1.
        -12    1    3    3    0    0 -0.38922403684E+02 -0.82336258901E+01  0.95678060358E+01  0.40918076887E+02  0.00000000000E+00 0.  1.
</event>
<event>
 7    1  0.2972263E-013  0.7246168E+02  0.7816164E-02  0.1226708E+00
        -11   -1    0    0    0    0  0.00000000000E+00  0.00000000000E+00  0.45593999997E+02  0.45594000000E+02  0.51100000000E-03 0.  1.
         11   -1    0    0    0    0 -0.00000000000E+00 -0.00000000000E+00 -0.45593999997E+02  0.45594000000E+02  0.51100000000E-03 0. -1.
    9900012    2    1    2    0    0  0.11987379218E+02 -0.89666269494E+01  0.11250667798E+02  0.72461676675E+02  0.70000138581E+02 0.  0.
         12    1    1    2    0    0 -0.11987379218E+02  0.89666269494E+01 -0.11250667798E+02  0.18726323325E+02  0.00000000000E+00 0. -1.
         11    1    3    3    0    0 -0.22643658186E+02  0.21842421213E+01  0.21457619798E+01  0.22849736638E+02  0.51100000000E-03 0. -1.
        -11    1    3    3    0    0  0.13535516181E+02 -0.20302379758E+02 -0.11633003446E+01  0.24428468845E+02  0.51100000000E-03 0.  1.
        -12    1    3    3    0    0  0.21095521222E+02  0.91515106874E+01  0.10268206163E+02  0.25183471193E+02  0.00000000000E+00 0.  1.
</event>
<event>
 7    1  0.2972263E-013  0.7246157E+02  0.7816164E-02  0.1226708E+00
        -11   -1    0    0    0    0  0.00000000000E+00  0.00000000000E+00  0.45593999997E+02  0.45594000000E+02  0.51100000000E-03 0. -1.
         11   -1    0    0    0    0 -0.00000000000E+00 -0.00000000000E+00 -0.45593999997E+02  0.45594000000E+02  0.51100000000E-03 0.  1.
    9900012    2    1    2    0    0  0.14373418864E+02 -0.51741594638E+01 -0.10831075737E+02  0.72461566874E+02  0.69999995544E+02 0.  0.
         12    1    1    2    0    0 -0.14373418864E+02  0.51741594638E+01  0.10831075737E+02  0.18726433126E+02  0.00000000000E+00 0. -1.
         11    1    3    3    0    0  0.34606759499E+01 -0.78203429105E+01 -0.16867884632E+02  0.18911889739E+02  0.51100000000E-03 0. -1.
        -11    1    3    3    0    0  0.30574275810E+02  0.10062123591E+02  0.40839768034E+01  0.32445516474E+02  0.51100000000E-03 0.  1.
         12    1    3    3    0    0 -0.19661532896E+02 -0.74159401439E+01  0.19528320912E+01  0.21104160661E+02  0.00000000000E+00 0. -1.
</event>
<event>
 7    1  0.2972263E-013  0.7246154E+02  0.7816164E-02  0.1226708E+00
        -11   -1    0    0    0    0  0.00000000000E+00  0.00000000000E+00  0.45593999997E+02  0.45594000000E+02  0.51100000000E-03 0. -1.
         11   -1    0    0    0    0 -0.00000000000E+00 -0.00000000000E+00 -0.45593999997E+02  0.45594000000E+02  0.51100000000E-03 0.  1.
    9900012    2    1    2    0    0 -0.17668232409E+02 -0.12112829084E+01  0.60865963247E+01  0.72461540175E+02  0.69999960764E+02 0.  0.
         12    1    1    2    0    0  0.17668232409E+02  0.12112829084E+01 -0.60865963247E+01  0.18726459825E+02  0.00000000000E+00 0. -1.
         11    1    3    3    0    0  0.52488722973E+01 -0.16470267762E+02 -0.12561672589E+02  0.21368575035E+02  0.51100000000E-03 0. -1.
        -11    1    3    3    0    0  0.57192681148E+01  0.43942285651E+01 -0.78016017515E+01  0.10624700589E+02  0.51100000000E-03 0.  1.
         12    1    3    3    0    0 -0.28636372821E+02  0.10864756288E+02  0.26449870665E+02  0.40468264551E+02  0.00000000000E+00 0. -1.
</event>
<event>
 7    1  0.3822101E-013  0.7246156E+02  0.7816164E-02  0.1226708E+00
        -11   -1    0    0    0    0  0.00000000000E+00  0.00000000000E+00  0.45593999997E+02  0.45594000000E+02  0.51100000000E-03 0. -1.
         11   -1    0    0    0    0 -0.00000000000E+00 -0.00000000000E+00 -0.45593999997E+02  0.45594000000E+02  0.51100000000E-03 0.  1.
    9900012    2    1    2    0    0 -0.25271444367E+01  0.11724681045E+02 -0.14381407402E+02  0.72461561912E+02  0.69999989080E+02 0.  0.
         12    1    1    2    0    0  0.25271444367E+01 -0.11724681045E+02  0.14381407402E+02  0.18726438088E+02  0.00000000000E+00 0. -1.
         11    1    3    3    0    0 -0.12256091738E+02 -0.94918853940E+01  0.15006621157E+02  0.21575596210E+02  0.51100000000E-03 0. -1.
        -11    1    3    3    0    0 -0.68384555766E+00  0.10889008570E+02  0.60908051051E+01  0.12495441548E+02  0.51100000000E-03 0.  1.
        -12    1    3    3    0    0  0.10412792859E+02  0.10327557868E+02 -0.35478833664E+02  0.38390524154E+02  0.00000000000E+00 0.  1.
</event>
<event>
 7    1  0.2972263E-013  0.7246159E+02  0.7816164E-02  0.1226708E+00
        -11   -1    0    0    0    0  0.00000000000E+00  0.00000000000E+00  0.45593999997E+02  0.45594000000E+02  0.51100000000E-03 0.  1.
         11   -1    0    0    0    0 -0.00000000000E+00 -0.00000000000E+00 -0.45593999997E+02  0.45594000000E+02  0.51100000000E-03 0. -1.
    9900012    2    1    2    0    0  0.13284246245E+01 -0.16413191500E+02  0.89174541138E+01  0.72461586700E+02  0.70000021371E+02 0.  0.
         12    1    1    2    0    0 -0.13284246245E+01  0.16413191500E+02 -0.89174541138E+01  0.18726413300E+02  0.00000000000E+00 0. -1.
         11    1    3    3    0    0  0.56226699809E+01  0.27968695795E+00 -0.12440386869E+02  0.13654884409E+02  0.51100000000E-03 0. -1.
        -11    1    3    3    0    0  0.21820842716E+02  0.18264447252E+01  0.35831919387E+01  0.22188383039E+02  0.51100000000E-03 0.  1.
        -12    1    3    3    0    0 -0.26115088072E+02 -0.18519323184E+02  0.17774649044E+02  0.36618319252E+02  0.00000000000E+00 0.  1.
</event>
<event>
 7    1  0.2972263E-013  0.7246156E+02  0.7816164E-02  0.1226708E+00
        -11   -1    0    0    0    0  0.00000000000E+00  0.00000000000E+00  0.45593999997E+02  0.45594000000E+02  0.51100000000E-03 0.  1.
         11   -1    0    0    0    0 -0.00000000000E+00 -0.00000000000E+00 -0.45593999997E+02  0.45594000000E+02  0.51100000000E-03 0. -1.
    9900012    2    1    2    0    0  0.22751843942E+01 -0.87940422292E+01  0.16375829925E+02  0.72461562846E+02  0.69999990297E+02 0.  0.
         12    1    1    2    0    0 -0.22751843942E+01  0.87940422292E+01 -0.16375829925E+02  0.18726437154E+02  0.00000000000E+00 0. -1.
         11    1    3    3    0    0  0.18929783059E+01 -0.26379287104E+02  0.10741755425E+02  0.28545322994E+02  0.51100000000E-03 0. -1.
        -11    1    3    3    0    0 -0.18929443187E+02  0.40754346626E+01  0.62296215326E+01  0.20340628598E+02  0.51100000000E-03 0.  1.
        -12    1    3    3    0    0  0.19311649275E+02  0.13509810212E+02 -0.59554703309E+00  0.23575611253E+02  0.00000000000E+00 0.  1.
</event>
<event>
 7    1  0.2972263E-013  0.7246159E+02  0.7816164E-02  0.1226708E+00
        -11   -1    0    0    0    0  0.00000000000E+00  0.00000000000E+00  0.45593999997E+02  0.45594000000E+02  0.51100000000E-03 0. -1.
         11   -1    0    0    0    0 -0.00000000000E+00 -0.00000000000E+00 -0.45593999997E+02  0.45594000000E+02  0.51100000000E-03 0.  1.
    9900012    2    1    2    0    0  0.55930140044E+01  0.73382605528E+01 -0.16295597577E+02  0.72461591536E+02  0.70000027671E+02 0.  0.
         12    1    1    2    0    0 -0.55930140044E+01 -0.73382605528E+01  0.16295597577E+02  0.18726408464E+02  0.00000000000E+00 0. -1.
         11    1    3    3    0    0 -0.13816998798E+02 -0.49586748584E+01  0.91615069088E+01  0.17304078168E+02  0.51100000000E-03 0.  1.
        -11    1    3    3    0    0 -0.10869890642E+02  0.13256443286E+02 -0.28994728479E+01  0.17386625728E+02  0.51100000000E-03 0. -1.
        -12    1    3    3    0    0  0.30279903444E+02 -0.95950787497E+00 -0.22557631637E+02  0.37770887639E+02  0.00000000000E+00 0.  1.
</event>
<event>
 7    1  0.2972263E-013  0.7246158E+02  0.7816164E-02  0.1226708E+00
        -11   -1    0    0    0    0  0.00000000000E+00  0.00000000000E+00  0.45593999997E+02  0.45594000000E+02  0.51100000000E-03 0.  1.
         11   -1    0    0    0    0 -0.00000000000E+00 -0.00000000000E+00 -0.45593999997E+02  0.45594000000E+02  0.51100000000E-03 0. -1.
    9900012    2    1    2    0    0  0.28634600036E+01 -0.11382770958E+02  0.14591496366E+02  0.72461584324E+02  0.70000018276E+02 0.  0.
         12    1    1    2    0    0 -0.28634600036E+01  0.11382770958E+02 -0.14591496366E+02  0.18726415676E+02  0.00000000000E+00 0. -1.
         11    1    3    3    0    0  0.10245062718E+02 -0.40862260832E+01 -0.53037716826E+01  0.12238813178E+02  0.51100000000E-03 0. -1.
        -11    1    3    3    0    0  0.79104570103E+01  0.21893550210E+02  0.39387600307E+01  0.23609673902E+02  0.51100000000E-03 0.  1.
        -12    1    3    3    0    0 -0.15292059724E+02 -0.29190095084E+02  0.15956508018E+02  0.36613097244E+02  0.00000000000E+00 0.  1.
</event>
<event>
 7    1  0.2972263E-013  0.7246150E+02  0.7816164E-02  0.1226708E+00
        -11   -1    0    0    0    0  0.00000000000E+00  0.00000000000E+00  0.45593999997E+02  0.45594000000E+02  0.51100000000E-03 0. -1.
         11   -1    0    0    0    0 -0.00000000000E+00 -0.00000000000E+00 -0.45593999997E+02  0.45594000000E+02  0.51100000000E-03 0.  1.
    9900012    2    1    2    0    0 -0.55481545814E+01 -0.17752254904E+02  0.21811400720E+01  0.72461496177E+02  0.69999903448E+02 0.  0.
         12    1    1    2    0    0  0.55481545814E+01  0.17752254904E+02 -0.21811400720E+01  0.18726503823E+02  0.00000000000E+00 0. -1.
         11    1    3    3    0    0 -0.41515381891E-01 -0.87566104813E+00  0.10891601135E+02  0.10926823937E+02  0.51100000000E-03 0. -1.
        -11    1    3    3    0    0 -0.19425412799E+01  0.71139943137E+01  0.21536718639E+02  0.22764284125E+02  0.51100000000E-03 0.  1.
        -12    1    3    3    0    0 -0.35640979196E+01 -0.23990588169E+02 -0.30247179702E+02  0.38770388115E+02  0.00000000000E+00 0.  1.
</event>
<event>
 7    1  0.4839826E-013  0.7246156E+02  0.7816164E-02  0.1226708E+00
        -11   -1    0    0    0    0  0.00000000000E+00  0.00000000000E+00  0.45593999997E+02  0.45594000000E+02  0.51100000000E-03 0. -1.
         11   -1    0    0    0    0 -0.00000000000E+00 -0.00000000000E+00 -0.45593999997E+02  0.45594000000E+02  0.51100000000E-03 0.  1.
    9900012    2    1    2    0    0  0.51875771989E+01 -0.86751457504E+01 -0.15764215629E+02  0.72461558657E+02  0.69999984840E+02 0.  0.
         12    1    1    2    0    0 -0.51875771989E+01  0.86751457504E+01  0.15764215629E+02  0.18726441343E+02  0.00000000000E+00 0. -1.
         11    1    3    3    0    0 -0.45345416571E+01 -0.82725940331E-01  0.23231449457E+02  0.23670005402E+02  0.51100000000E-03 0. -1.
        -11    1    3    3    0    0 -0.21815680521E+01  0.72642692164E+01 -0.40138672555E+01  0.85813738422E+01  0.51100000000E-03 0.  1.
        -12    1    3    3    0    0  0.11903686908E+02 -0.15856689026E+02 -0.34981797831E+02  0.40210179412E+02  0.00000000000E+00 0.  1.
</event>
<event>
 7    1  0.2972263E-013  0.7246161E+02  0.7816164E-02  0.1226708E+00
        -11   -1    0    0    0    0  0.00000000000E+00  0.00000000000E+00  0.45593999997E+02  0.45594000000E+02  0.51100000000E-03 0. -1.
         11   -1    0    0    0    0 -0.00000000000E+00 -0.00000000000E+00 -0.45593999997E+02  0.45594000000E+02  0.51100000000E-03 0.  1.
    9900012    2    1    2    0    0  0.64484888159E+01 -0.44019325231E+01 -0.17021099008E+02  0.72461606076E+02  0.70000046613E+02 0.  0.
         12    1    1    2    0    0 -0.64484888159E+01  0.44019325231E+01  0.17021099008E+02  0.18726393924E+02  0.00000000000E+00 0. -1.
         11    1    3    3    0    0 -0.65738338944E+01 -0.15496878968E+02  0.36550523371E+01  0.17225793383E+02  0.51100000000E-03 0. -1.
        -11    1    3    3    0    0 -0.10968922793E+02 -0.10192306093E+02 -0.17460098149E+02  0.23001204281E+02  0.51100000000E-03 0.  1.
         12    1    3    3    0    0  0.23991245503E+02  0.21287252538E+02 -0.32160531959E+01  0.32234608413E+02  0.00000000000E+00 0. -1.
</event>
<event>
 7    1  0.2972263E-013  0.7246165E+02  0.7816164E-02  0.1226708E+00
        -11   -1    0    0    0    0  0.00000000000E+00  0.00000000000E+00  0.45593999997E+02  0.45594000000E+02  0.51100000000E-03 0.  1.
         11   -1    0    0    0    0 -0.00000000000E+00 -0.00000000000E+00 -0.45593999997E+02  0.45594000000E+02  0.51100000000E-03 0. -1.
    9900012    2    1    2    0    0  0.17379312048E+02  0.45493663169E+01  0.52857411735E+01  0.72461647422E+02  0.70000100473E+02 0.  0.
         12    1    1    2    0    0 -0.17379312048E+02 -0.45493663169E+01 -0.52857411735E+01  0.18726352578E+02  0.00000000000E+00 0. -1.
         11    1    3    3    0    0 -0.23559469785E+01 -0.46090253572E+01 -0.15076835078E+02  0.15940657363E+02  0.51100000000E-03 0. -1.
        -11    1    3    3    0    0 -0.14503298924E+02  0.80981598979E+01  0.13904792921E+02  0.21662620799E+02  0.51100000000E-03 0.  1.
        -12    1    3    3    0    0  0.34238557951E+02  0.10602317762E+01  0.64577833306E+01  0.34858369260E+02  0.00000000000E+00 0.  1.
</event>
<event>
 7    1  0.2972263E-013  0.7246160E+02  0.7816164E-02  0.1226708E+00
        -11   -1    0    0    0    0  0.00000000000E+00  0.00000000000E+00  0.45593999997E+02  0.45594000000E+02  0.51100000000E-03 0. -1.
         11   -1    0    0    0    0 -0.00000000000E+00 -0.00000000000E+00 -0.45593999997E+02  0.45594000000E+02  0.51100000000E-03 0.  1.
    9900012    2    1    2    0    0  0.83946089042E+01 -0.12429006308E+02 -0.11212859466E+02  0.72461604888E+02  0.70000045065E+02 0.  0.
         12    1    1    2    0    0 -0.83946089042E+01  0.12429006308E+02  0.11212859466E+02  0.18726395112E+02  0.00000000000E+00 0. -1.
         11    1    3    3    0    0 -0.10608347658E+02 -0.56209232120E+01 -0.13578973220E+02  0.18125129841E+02  0.51100000000E-03 0. -1.
        -11    1    3    3    0    0 -0.54931918687E+01 -0.20269095101E+02 -0.10600704156E+02  0.23524164215E+02  0.51100000000E-03 0.  1.
         12    1    3    3    0    0  0.24496148431E+02  0.13461012005E+02  0.12966817910E+02  0.30812310833E+02  0.00000000000E+00 0. -1.
</event>
<event>
 7    1  0.2972263E-013  0.7246176E+02  0.7816164E-02  0.1226708E+00
        -11   -1    0    0    0    0  0.00000000000E+00  0.00000000000E+00  0.45593999997E+02  0.45594000000E+02  0.51100000000E-03 0.  1.
         11   -1    0    0    0    0 -0.00000000000E+00 -0.00000000000E+00 -0.45593999997E+02  0.45594000000E+02  0.51100000000E-03 0. -1.
    9900012    2    1    2    0    0 -0.32085743606E+01  0.11778374928E+02  0.14200244221E+02  0.72461761688E+02  0.70000249326E+02 0.  0.
         12    1    1    2    0    0  0.32085743606E+01 -0.11778374928E+02 -0.14200244221E+02  0.18726238312E+02  0.00000000000E+00 0. -1.
         11    1    3    3    0    0  0.14561760307E+02  0.70771312147E+01  0.52397784461E+01  0.17017224448E+02  0.51100000000E-03 0. -1.
        -11    1    3    3    0    0  0.17533228164E+02 -0.54536078708E-01 -0.31615248078E+01  0.17816068686E+02  0.51100000000E-03 0.  1.
        -12    1    3    3    0    0 -0.35303562832E+02  0.47557797922E+01  0.12121990583E+02  0.37628468555E+02  0.00000000000E+00 0.  1.
</event>
<event>
 7    1  0.2972263E-013  0.7246158E+02  0.7816164E-02  0.1226708E+00
        -11   -1    0    0    0    0  0.00000000000E+00  0.00000000000E+00  0.45593999997E+02  0.45594000000E+02  0.51100000000E-03 0. -1.
         11   -1    0    0    0    0 -0.00000000000E+00 -0.00000000000E+00 -0.45593999997E+02  0.45594000000E+02  0.51100000000E-03 0.  1.
    9900012    2    1    2    0    0  0.80269215542E+01  0.75062276957E+00 -0.16902184246E+02  0.72461581857E+02  0.70000015062E+02 0.  0.
         12    1    1    2    0    0 -0.80269215542E+01 -0.75062276957E+00  0.16902184246E+02  0.18726418143E+02  0.00000000000E+00 0. -1.
         11    1    3    3    0    0  0.18125689623E+02  0.27781366139E+02  0.29409918762E+01  0.33301566965E+02  0.51100000000E-03 0. -1.
        -11    1    3    3    0    0 -0.14576174703E+01 -0.97861151338E+01  0.19207968352E+01  0.10078797490E+02  0.51100000000E-03 0.  1.
        -12    1    3    3    0    0 -0.86411505985E+01 -0.17244628235E+02 -0.21763972958E+02  0.29081217402E+02  0.00000000000E+00 0.  1.
</event>
<event>
 7    1  0.2972263E-013  0.7246163E+02  0.7816164E-02  0.1226708E+00
        -11   -1    0    0    0    0  0.00000000000E+00  0.00000000000E+00  0.45593999997E+02  0.45594000000E+02  0.51100000000E-03 0.  1.
         11   -1    0    0    0    0 -0.00000000000E+00 -0.00000000000E+00 -0.45593999997E+02  0.45594000000E+02  0.51100000000E-03 0. -1.
    9900012    2    1    2    0    0  0.10887270192E+02  0.14673274482E+02  0.41035624046E+01  0.72461631941E+02  0.70000080306E+02 0.  0.
         12    1    1    2    0    0 -0.10887270192E+02 -0.14673274482E+02 -0.41035624046E+01  0.18726368059E+02  0.00000000000E+00 0. -1.
         11    1    3    3    0    0  0.81230979520E+01  0.14027390376E+01 -0.23574899062E+01  0.85738063930E+01  0.51100000000E-03 0. -1.
        -11    1    3    3    0    0  0.17959761063E+02 -0.19977979529E+02  0.48326389438E+01  0.27295184244E+02  0.51100000000E-03 0.  1.
         12    1    3    3    0    0 -0.15195588822E+02  0.33248514973E+02  0.16284133670E+01  0.36592641305E+02  0.00000000000E+00 0. -1.
</event>
<event>
 7    1  0.2972263E-013  0.7246159E+02  0.7816164E-02  0.1226708E+00
        -11   -1    0    0    0    0  0.00000000000E+00  0.00000000000E+00  0.45593999997E+02  0.45594000000E+02  0.51100000000E-03 0.  1.
         11   -1    0    0    0    0 -0.00000000000E+00 -0.00000000000E+00 -0.45593999997E+02  0.45594000000E+02  0.51100000000E-03 0. -1.
    9900012    2    1    2    0    0 -0.16927944915E+02  0.78436575395E+01  0.16124621240E+01  0.72461593064E+02  0.70000029662E+02 0.  0.
         12    1    1    2    0    0  0.16927944915E+02 -0.78436575395E+01 -0.16124621240E+01  0.18726406936E+02  0.00000000000E+00 0. -1.
         11    1    3    3    0    0 -0.51060704934E+01 -0.60796419944E+01  0.28311473877E+01  0.84290805225E+01  0.51100000000E-03 0. -1.
        -11    1    3    3    0    0 -0.34362522146E+02 -0.87404835468E-01  0.91158707568E+01  0.35551225967E+02  0.51100000000E-03 0.  1.
         12    1    3    3    0    0  0.22540647725E+02  0.14010704369E+02 -0.10334556021E+02  0.28481286574E+02  0.00000000000E+00 0. -1.
</event>
<event>
 7    1  0.2972263E-013  0.7246157E+02  0.7816164E-02  0.1226708E+00
        -11   -1    0    0    0    0  0.00000000000E+00  0.00000000000E+00  0.45593999997E+02  0.45594000000E+02  0.51100000000E-03 0.  1.
         11   -1    0    0    0    0 -0.00000000000E+00 -0.00000000000E+00 -0.45593999997E+02  0.45594000000E+02  0.51100000000E-03 0. -1.
    9900012    2    1    2    0    0  0.12999444448E+02  0.13164069316E+02  0.28984165753E+01  0.72461572269E+02  0.70000002572E+02 0.  0.
         12    1    1    2    0    0 -0.12999444448E+02 -0.13164069316E+02 -0.28984165753E+01  0.18726427731E+02  0.00000000000E+00 0. -1.
         11    1    3    3    0    0  0.76890906165E+01 -0.22398074454E+02 -0.23301748578E+01  0.23795494718E+02  0.51100000000E-03 0. -1.
        -11    1    3    3    0    0 -0.12504417720E+00  0.42086226338E+01  0.14839439881E+02  0.15425210429E+02  0.51100000000E-03 0.  1.
        -12    1    3    3    0    0  0.54353980090E+01  0.31353521136E+02 -0.96108484483E+01  0.33240867122E+02  0.00000000000E+00 0.  1.
</event>
<event>
 7    1  0.2972263E-013  0.7246145E+02  0.7816164E-02  0.1226708E+00
        -11   -1    0    0    0    0  0.00000000000E+00  0.00000000000E+00  0.45593999997E+02  0.45594000000E+02  0.51100000000E-03 0.  1.
         11   -1    0    0    0    0 -0.00000000000E+00 -0.00000000000E+00 -0.45593999997E+02  0.45594000000E+02  0.51100000000E-03 0. -1.
    9900012    2    1    2    0    0  0.11179977696E+02 -0.63388558125E+01 -0.13620227852E+02  0.72461451972E+02  0.69999845864E+02 0.  0.
         12    1    1    2    0    0 -0.11179977696E+02  0.63388558125E+01  0.13620227852E+02  0.18726548028E+02  0.00000000000E+00 0. -1.
         11    1    3    3    0    0  0.44066624575E+01 -0.83939850809E+01 -0.35231021072E+02  0.36484277512E+02  0.51100000000E-03 0. -1.
        -11    1    3    3    0    0 -0.24339943642E+01  0.11348821670E+02  0.11126864743E+01  0.11660109490E+02  0.51100000000E-03 0.  1.
        -12    1    3    3    0    0  0.92073096028E+01 -0.92936924020E+01  0.20498106746E+02  0.24317064970E+02  0.00000000000E+00 0.  1.
</event>
<event>
 7    1  0.2972263E-013  0.7246158E+02  0.7816164E-02  0.1226708E+00
        -11   -1    0    0    0    0  0.00000000000E+00  0.00000000000E+00  0.45593999997E+02  0.45594000000E+02  0.51100000000E-03 0.  1.
         11   -1    0    0    0    0 -0.00000000000E+00 -0.00000000000E+00 -0.45593999997E+02  0.45594000000E+02  0.51100000000E-03 0. -1.
    9900012    2    1    2    0    0 -0.15602606894E+02 -0.10334799665E+02  0.65518791185E+00  0.72461582905E+02  0.70000016428E+02 0.  0.
         12    1    1    2    0    0  0.15602606894E+02  0.10334799665E+02 -0.65518791185E+00  0.18726417095E+02  0.00000000000E+00 0. -1.
         11    1    3    3    0    0  0.99738704018E+01 -0.27436226455E+02  0.16059539087E+02  0.33318664571E+02  0.51100000000E-03 0. -1.
        -11    1    3    3    0    0 -0.14107300425E+01 -0.34761076451E+01 -0.38228719701E+01  0.53561024985E+01  0.51100000000E-03 0.  1.
        -12    1    3    3    0    0 -0.24165747254E+02  0.20577534435E+02 -0.11581479205E+02  0.33786815836E+02  0.00000000000E+00 0.  1.
</event>
<event>
 7    1  0.3016091E-013  0.7246157E+02  0.7816164E-02  0.1226708E+00
        -11   -1    0    0    0    0  0.00000000000E+00  0.00000000000E+00  0.45593999997E+02  0.45594000000E+02  0.51100000000E-03 0. -1.
         11   -1    0    0    0    0 -0.00000000000E+00 -0.00000000000E+00 -0.45593999997E+02  0.45594000000E+02  0.51100000000E-03 0.  1.
    9900012    2    1    2    0    0  0.30243501373E-01  0.72079436423E+01 -0.17283627184E+02  0.72461571220E+02  0.70000001205E+02 0.  0.
         12    1    1    2    0    0 -0.30243501373E-01 -0.72079436423E+01  0.17283627184E+02  0.18726428780E+02  0.00000000000E+00 0. -1.
         11    1    3    3    0    0 -0.81312990110E+01  0.10122172527E+02  0.23150192341E+02  0.26542565926E+02  0.51100000000E-03 0. -1.
        -11    1    3    3    0    0  0.53790701812E+01 -0.94625517749E+01 -0.10401593063E+02  0.15055478093E+02  0.51100000000E-03 0.  1.
        -12    1    3    3    0    0  0.27824723312E+01  0.65483228903E+01 -0.30032226463E+02  0.30863527200E+02  0.00000000000E+00 0.  1.
</event>
<event>
 7    1  0.2972263E-013  0.7246163E+02  0.7816164E-02  0.1226708E+00
        -11   -1    0    0    0    0  0.00000000000E+00  0.00000000000E+00  0.45593999997E+02  0.45594000000E+02  0.51100000000E-03 0.  1.
         11   -1    0    0    0    0 -0.00000000000E+00 -0.00000000000E+00 -0.45593999997E+02  0.45594000000E+02  0.51100000000E-03 0. -1.
    9900012    2    1    2    0    0 -0.96102467205E+01 -0.15135594357E+02  0.54068400570E+01  0.72461628809E+02  0.70000076226E+02 0.  0.
         12    1    1    2    0    0  0.96102467205E+01  0.15135594357E+02 -0.54068400570E+01  0.18726371191E+02  0.00000000000E+00 0. -1.
         11    1    3    3    0    0  0.68762567675E+00 -0.93128918573E+01 -0.30032028536E+02  0.31450366008E+02  0.51100000000E-03 0. -1.
        -11    1    3    3    0    0  0.34069502114E+01 -0.39004911453E-01  0.10859722726E+01  0.35760546925E+01  0.51100000000E-03 0.  1.
        -12    1    3    3    0    0 -0.13704822609E+02 -0.57836975885E+01  0.34352896320E+02  0.37435208108E+02  0.00000000000E+00 0.  1.
</event>
<event>
 7    1  0.2972263E-013  0.7246156E+02  0.7816164E-02  0.1226708E+00
        -11   -1    0    0    0    0  0.00000000000E+00  0.00000000000E+00  0.45593999997E+02  0.45594000000E+02  0.51100000000E-03 0.  1.
         11   -1    0    0    0    0 -0.00000000000E+00 -0.00000000000E+00 -0.45593999997E+02  0.45594000000E+02  0.51100000000E-03 0. -1.
    9900012    2    1    2    0    0 -0.15245715297E+02 -0.93561653326E+01 -0.55416470892E+01  0.72461561014E+02  0.69999987910E+02 0.  0.
         12    1    1    2    0    0  0.15245715297E+02  0.93561653326E+01  0.55416470892E+01  0.18726438986E+02  0.00000000000E+00 0. -1.
         11    1    3    3    0    0 -0.19141854470E+02 -0.20256360912E+02  0.24180658420E+01  0.27974591912E+02  0.51100000000E-03 0. -1.
        -11    1    3    3    0    0 -0.14473298428E+01 -0.45512407522E+01  0.15315824426E+02  0.16043161601E+02  0.51100000000E-03 0.  1.
         12    1    3    3    0    0  0.53434690158E+01  0.15451436332E+02 -0.23275537357E+02  0.28443807500E+02  0.00000000000E+00 0. -1.
</event>
<event>
 7    1  0.2972263E-013  0.7246154E+02  0.7816164E-02  0.1226708E+00
        -11   -1    0    0    0    0  0.00000000000E+00  0.00000000000E+00  0.45593999997E+02  0.45594000000E+02  0.51100000000E-03 0.  1.
         11   -1    0    0    0    0 -0.00000000000E+00 -0.00000000000E+00 -0.45593999997E+02  0.45594000000E+02  0.51100000000E-03 0. -1.
    9900012    2    1    2    0    0 -0.14787519773E+02  0.69445432935E+01  0.91532905841E+01  0.72461544086E+02  0.69999965859E+02 0.  0.
         12    1    1    2    0    0  0.14787519773E+02 -0.69445432935E+01 -0.91532905841E+01  0.18726455914E+02  0.00000000000E+00 0. -1.
         11    1    3    3    0    0  0.80809919908E+01  0.27774034814E+01 -0.14747921813E-01  0.85449762678E+01  0.51100000000E-03 0. -1.
        -11    1    3    3    0    0 -0.22253340533E+02  0.27584448356E+02  0.16877591986E+02  0.39255140650E+02  0.51100000000E-03 0.  1.
         12    1    3    3    0    0 -0.61517123093E+00 -0.23417308544E+02 -0.77095534802E+01  0.24661427168E+02  0.00000000000E+00 0. -1.
</event>
<event>
 7    1  0.2972263E-013  0.7246174E+02  0.7816164E-02  0.1226708E+00
        -11   -1    0    0    0    0  0.00000000000E+00  0.00000000000E+00  0.45593999997E+02  0.45594000000E+02  0.51100000000E-03 0. -1.
         11   -1    0    0    0    0 -0.00000000000E+00 -0.00000000000E+00 -0.45593999997E+02  0.45594000000E+02  0.51100000000E-03 0.  1.
    9900012    2    1    2    0    0  0.48333689256E+01 -0.58041317367E+01 -0.17135448023E+02  0.72461735574E+02  0.70000215307E+02 0.  0.
         12    1    1    2    0    0 -0.48333689256E+01  0.58041317367E+01  0.17135448023E+02  0.18726264426E+02  0.00000000000E+00 0. -1.
         11    1    3    3    0    0 -0.17852402758E+02  0.17788695351E+01  0.19373790158E+02  0.26404855735E+02  0.51100000000E-03 0. -1.
        -11    1    3    3    0    0 -0.15958374289E+01 -0.23700035201E+01 -0.65257957077E+01  0.71238770107E+01  0.51100000000E-03 0.  1.
        -12    1    3    3    0    0  0.24281609112E+02 -0.52129977517E+01 -0.29983442474E+02  0.38933002828E+02  0.00000000000E+00 0.  1.
</event>
<event>
 7    1  0.2972263E-013  0.7246153E+02  0.7816164E-02  0.1226708E+00
        -11   -1    0    0    0    0  0.00000000000E+00  0.00000000000E+00  0.45593999997E+02  0.45594000000E+02  0.51100000000E-03 0. -1.
         11   -1    0    0    0    0 -0.00000000000E+00 -0.00000000000E+00 -0.45593999997E+02  0.45594000000E+02  0.51100000000E-03 0.  1.
    9900012    2    1    2    0    0 -0.40963031915E+01  0.39498687772E+01 -0.17840950380E+02  0.72461530134E+02  0.69999947683E+02 0.  0.
         12    1    1    2    0    0  0.40963031915E+01 -0.39498687772E+01  0.17840950380E+02  0.18726469866E+02  0.00000000000E+00 0. -1.
         11    1    3    3    0    0 -0.20478615993E+01  0.22550289668E+02  0.32839746556E+01  0.22879986692E+02  0.51100000000E-03 0. -1.
        -11    1    3    3    0    0 -0.17587625076E+02  0.22071852786E+01 -0.14179391292E+02  0.22699148890E+02  0.51100000000E-03 0.  1.
        -12    1    3    3    0    0  0.15539183484E+02 -0.20807606169E+02 -0.69455337438E+01  0.26882394552E+02  0.00000000000E+00 0.  1.
</event>
<event>
 7    1  0.2972263E-013  0.7246155E+02  0.7816164E-02  0.1226708E+00
        -11   -1    0    0    0    0  0.00000000000E+00  0.00000000000E+00  0.45593999997E+02  0.45594000000E+02  0.51100000000E-03 0. -1.
         11   -1    0    0    0    0 -0.00000000000E+00 -0.00000000000E+00 -0.45593999997E+02  0.45594000000E+02  0.51100000000E-03 0.  1.
    9900012    2    1    2    0    0 -0.16347505652E+02 -0.48334755220E+01  0.77509152612E+01  0.72461545075E+02  0.69999967148E+02 0.  0.
         12    1    1    2    0    0  0.16347505652E+02  0.48334755220E+01 -0.77509152612E+01  0.18726454925E+02  0.00000000000E+00 0. -1.
         11    1    3    3    0    0  0.15622595655E+02  0.13491288269E+01  0.17640654460E+02  0.23602506935E+02  0.51100000000E-03 0. -1.
        -11    1    3    3    0    0  0.75177593087E+01 -0.63302550209E+00 -0.40349428493E+01  0.85555940979E+01  0.51100000000E-03 0.  1.
        -12    1    3    3    0    0 -0.39487860616E+02 -0.55495788468E+01 -0.58547963493E+01  0.40303444042E+02  0.00000000000E+00 0.  1.
</event>
<event>
 7    1  0.2972263E-013  0.7246156E+02  0.7816164E-02  0.1226708E+00
        -11   -1    0    0    0    0  0.00000000000E+00  0.00000000000E+00  0.45593999997E+02  0.45594000000E+02  0.51100000000E-03 0.  1.
         11   -1    0    0    0    0 -0.00000000000E+00 -0.00000000000E+00 -0.45593999997E+02  0.45594000000E+02  0.51100000000E-03 0. -1.
    9900012    2    1    2    0    0 -0.66918019813E+00 -0.12191349947E+02  0.14198693983E+02  0.72461555424E+02  0.69999980628E+02 0.  0.
         12    1    1    2    0    0  0.66918019813E+00  0.12191349947E+02 -0.14198693983E+02  0.18726444576E+02  0.00000000000E+00 0. -1.
         11    1    3    3    0    0  0.27462656199E+01 -0.20383070918E+02 -0.15408623606E+02  0.25698973454E+02  0.51100000000E-03 0. -1.
        -11    1    3    3    0    0  0.18910879778E+01 -0.12435901897E+02  0.19455441232E+02  0.23167694394E+02  0.51100000000E-03 0.  1.
        -12    1    3    3    0    0 -0.53065337958E+01  0.20627622868E+02  0.10151876357E+02  0.23594887575E+02  0.00000000000E+00 0.  1.
</event>
<event>
 7    1  0.2972263E-013  0.7246158E+02  0.7816164E-02  0.1226708E+00
        -11   -1    0    0    0    0  0.00000000000E+00  0.00000000000E+00  0.45593999997E+02  0.45594000000E+02  0.51100000000E-03 0.  1.
         11   -1    0    0    0    0 -0.00000000000E+00 -0.00000000000E+00 -0.45593999997E+02  0.45594000000E+02  0.51100000000E-03 0. -1.
    9900012    2    1    2    0    0  0.55919485383E+01 -0.15846841543E+02  0.82635563737E+01  0.72461584452E+02  0.70000018443E+02 0.  0.
         12    1    1    2    0    0 -0.55919485383E+01  0.15846841543E+02 -0.82635563737E+01  0.18726415548E+02  0.00000000000E+00 0. -1.
         11    1    3    3    0    0  0.65365467930E+01 -0.22501329199E+02  0.10036900697E+01  0.23453009481E+02  0.51100000000E-03 0. -1.
        -11    1    3    3    0    0 -0.82302421783E+01  0.12660855251E+02  0.24830353266E+02  0.29061668665E+02  0.51100000000E-03 0.  1.
         12    1    3    3    0    0  0.72856439235E+01 -0.60063675951E+01 -0.17570486962E+02  0.19946906305E+02  0.00000000000E+00 0. -1.
</event>
<event>
 7    1  0.2972263E-013  0.7246154E+02  0.7816164E-02  0.1226708E+00
        -11   -1    0    0    0    0  0.00000000000E+00  0.00000000000E+00  0.45593999997E+02  0.45594000000E+02  0.51100000000E-03 0.  1.
         11   -1    0    0    0    0 -0.00000000000E+00 -0.00000000000E+00 -0.45593999997E+02  0.45594000000E+02  0.51100000000E-03 0. -1.
    9900012    2    1    2    0    0 -0.16096890242E+02 -0.70591802618E+01  0.64605145367E+01  0.72461544128E+02  0.69999965914E+02 0.  0.
         12    1    1    2    0    0  0.16096890242E+02  0.70591802618E+01 -0.64605145367E+01  0.18726455872E+02  0.00000000000E+00 0. -1.
         11    1    3    3    0    0 -0.62233634695E+01  0.13049282236E+01 -0.94677751399E+01  0.11404904949E+02  0.51100000000E-03 0. -1.
        -11    1    3    3    0    0 -0.49188876346E+01  0.24679082516E+02  0.10216628800E+02  0.27159382793E+02  0.51100000000E-03 0.  1.
         12    1    3    3    0    0 -0.49546391377E+01 -0.33043191001E+02  0.57116608762E+01  0.33897256386E+02  0.00000000000E+00 0. -1.
</event>
<event>
 7    1  0.2972263E-013  0.7246147E+02  0.7816164E-02  0.1226708E+00
        -11   -1    0    0    0    0  0.00000000000E+00  0.00000000000E+00  0.45593999997E+02  0.45594000000E+02  0.51100000000E-03 0.  1.
         11   -1    0    0    0    0 -0.00000000000E+00 -0.00000000000E+00 -0.45593999997E+02  0.45594000000E+02  0.51100000000E-03 0. -1.
    9900012    2    1    2    0    0  0.11370585805E+02  0.11632734285E+02  0.92775062018E+01  0.72461472030E+02  0.69999871992E+02 0.  0.
         12    1    1    2    0    0 -0.11370585805E+02 -0.11632734285E+02 -0.92775062018E+01  0.18726527970E+02  0.00000000000E+00 0. -1.
         11    1    3    3    0    0  0.29185011823E+01  0.46981077846E+01  0.14980754178E+02  0.15969122139E+02  0.51100000000E-03 0.  1.
        -11    1    3    3    0    0 -0.10652956017E+02 -0.71329283639E+01 -0.23543461114E+02  0.26807810438E+02  0.51100000000E-03 0. -1.
         12    1    3    3    0    0  0.19105040640E+02  0.14067554864E+02  0.17840213139E+02  0.29684539453E+02  0.00000000000E+00 0. -1.
</event>
<event>
 7    1  0.2972263E-013  0.7246145E+02  0.7816164E-02  0.1226708E+00
        -11   -1    0    0    0    0  0.00000000000E+00  0.00000000000E+00  0.45593999997E+02  0.45594000000E+02  0.51100000000E-03 0.  1.
         11   -1    0    0    0    0 -0.00000000000E+00 -0.00000000000E+00 -0.45593999997E+02  0.45594000000E+02  0.51100000000E-03 0. -1.
    9900012    2    1    2    0    0 -0.86959017636E+01  0.16525503207E+02 -0.14045945587E+01  0.72461445336E+02  0.69999837218E+02 0.  0.
         12    1    1    2    0    0  0.86959017636E+01 -0.16525503207E+02  0.14045945587E+01  0.18726554664E+02  0.00000000000E+00 0. -1.
         11    1    3    3    0    0  0.31592824141E+01 -0.12411094418E+01  0.27249335929E+02  0.27459929477E+02  0.51100000000E-03 0. -1.
        -11    1    3    3    0    0  0.21162298967E+01  0.87740583707E+01  0.27820492883E+01  0.94446983950E+01  0.51100000000E-03 0.  1.
         12    1    3    3    0    0 -0.13971414074E+02  0.89925542780E+01 -0.31435979776E+02  0.35556817464E+02  0.00000000000E+00 0. -1.
</event>
<event>
 7    1  0.2972263E-013  0.7246155E+02  0.7816164E-02  0.1226708E+00
        -11   -1    0    0    0    0  0.00000000000E+00  0.00000000000E+00  0.45593999997E+02  0.45594000000E+02  0.51100000000E-03 0. -1.
         11   -1    0    0    0    0 -0.00000000000E+00 -0.00000000000E+00 -0.45593999997E+02  0.45594000000E+02  0.51100000000E-03 0.  1.
    9900012    2    1    2    0    0  0.10408630324E+02 -0.15636270931E+01 -0.15488562964E+02  0.72461545514E+02  0.69999967719E+02 0.  0.
         12    1    1    2    0    0 -0.10408630324E+02  0.15636270931E+01  0.15488562964E+02  0.18726454486E+02  0.00000000000E+00 0. -1.
         11    1    3    3    0    0 -0.17700313921E+02 -0.17702875326E+02  0.23740679890E+01  0.25146154910E+02  0.51100000000E-03 0. -1.
        -11    1    3    3    0    0 -0.28343720219E+00  0.15327669554E+02 -0.49089696333E+01  0.16097073452E+02  0.51100000000E-03 0.  1.
         12    1    3    3    0    0  0.28392381447E+02  0.81157867875E+00 -0.12953661320E+02  0.31218317152E+02  0.00000000000E+00 0. -1.
</event>
<event>
 7    1  0.2972263E-013  0.7246157E+02  0.7816164E-02  0.1226708E+00
        -11   -1    0    0    0    0  0.00000000000E+00  0.00000000000E+00  0.45593999997E+02  0.45594000000E+02  0.51100000000E-03 0.  1.
         11   -1    0    0    0    0 -0.00000000000E+00 -0.00000000000E+00 -0.45593999997E+02  0.45594000000E+02  0.51100000000E-03 0. -1.
    9900012    2    1    2    0    0  0.18162707122E+02 -0.45337978484E+01 -0.48982168723E+00  0.72461570062E+02  0.69999999697E+02 0.  0.
         12    1    1    2    0    0 -0.18162707122E+02  0.45337978484E+01  0.48982168723E+00  0.18726429938E+02  0.00000000000E+00 0. -1.
         11    1    3    3    0    0 -0.17203605384E+01 -0.29852880832E+02  0.29704954170E+01  0.30049591971E+02  0.51100000000E-03 0. -1.
        -11    1    3    3    0    0  0.87071099430E+01 -0.41460713182E+01 -0.49960521508E+01  0.10861132919E+02  0.51100000000E-03 0.  1.
        -12    1    3    3    0    0  0.11175957718E+02  0.29465154302E+02  0.15357350466E+01  0.31550845172E+02  0.00000000000E+00 0.  1.
</event>
<event>
 7    1  0.2972263E-013  0.7246165E+02  0.7816164E-02  0.1226708E+00
        -11   -1    0    0    0    0  0.00000000000E+00  0.00000000000E+00  0.45593999997E+02  0.45594000000E+02  0.51100000000E-03 0. -1.
         11   -1    0    0    0    0 -0.00000000000E+00 -0.00000000000E+00 -0.45593999997E+02  0.45594000000E+02  0.51100000000E-03 0.  1.
    9900012    2    1    2    0    0 -0.14891773447E+02 -0.89650448927E+01  0.69670214183E+01  0.72461646009E+02  0.70000098633E+02 0.  0.
         12    1    1    2    0    0  0.14891773447E+02  0.89650448927E+01 -0.69670214183E+01  0.18726353991E+02  0.00000000000E+00 0. -1.
         11    1    3    3    0    0 -0.22095498076E+02  0.17943394648E+02  0.45670440434E+01  0.28827666196E+02  0.51100000000E-03 0. -1.
        -11    1    3    3    0    0 -0.46730216204E+00  0.36345469323E+01 -0.93338476153E+01  0.10027413140E+02  0.51100000000E-03 0.  1.
        -12    1    3    3    0    0  0.76710267908E+01 -0.30542986473E+02  0.11733824990E+02  0.33606566674E+02  0.00000000000E+00 0.  1.
</event>
<event>
 7    1  0.2972263E-013  0.7246115E+02  0.7816164E-02  0.1226709E+00
        -11   -1    0    0    0    0  0.00000000000E+00  0.00000000000E+00  0.45593999997E+02  0.45594000000E+02  0.51100000000E-03 0.  1.
         11   -1    0    0    0    0 -0.00000000000E+00 -0.00000000000E+00 -0.45593999997E+02  0.45594000000E+02  0.51100000000E-03 0. -1.
    9900012    2    1    2    0    0  0.77591447950E+01  0.12181623681E+02  0.11920516536E+02  0.72461147677E+02  0.69999449460E+02 0.  0.
         12    1    1    2    0    0 -0.77591447950E+01 -0.12181623681E+02 -0.11920516536E+02  0.18726852323E+02  0.00000000000E+00 0. -1.
         11    1    3    3    0    0  0.50697214305E+01  0.11427147532E+02 -0.63070479026E+01  0.14002165176E+02  0.51100000000E-03 0. -1.
        -11    1    3    3    0    0 -0.56430551824E+01 -0.92803462496E+01  0.35323437832E+02  0.36955570065E+02  0.51100000000E-03 0.  1.
         12    1    3    3    0    0  0.83324785469E+01  0.10034822399E+02 -0.17095873393E+02  0.21503412436E+02  0.00000000000E+00 0. -1.
</event>
<event>
 7    1  0.2972263E-013  0.7246158E+02  0.7816164E-02  0.1226708E+00
        -11   -1    0    0    0    0  0.00000000000E+00  0.00000000000E+00  0.45593999997E+02  0.45594000000E+02  0.51100000000E-03 0. -1.
         11   -1    0    0    0    0 -0.00000000000E+00 -0.00000000000E+00 -0.45593999997E+02  0.45594000000E+02  0.51100000000E-03 0.  1.
    9900012    2    1    2    0    0 -0.37662732355E+01 -0.16167552046E+02 -0.86662734224E+01  0.72461578871E+02  0.70000011173E+02 0.  0.
         12    1    1    2    0    0  0.37662732355E+01  0.16167552046E+02  0.86662734224E+01  0.18726421129E+02  0.00000000000E+00 0. -1.
         11    1    3    3    0    0  0.25306490353E+02 -0.11089821147E+02  0.33453347243E+00  0.27631766139E+02  0.51100000000E-03 0. -1.
        -11    1    3    3    0    0 -0.60389344301E+01  0.94158615976E+01 -0.13190336434E+02  0.17294859184E+02  0.51100000000E-03 0.  1.
        -12    1    3    3    0    0 -0.23033829158E+02 -0.14493592497E+02  0.41895295391E+01  0.27534953549E+02  0.00000000000E+00 0.  1.
</event>
<event>
 7    1  0.2972263E-013  0.7246152E+02  0.7816164E-02  0.1226708E+00
        -11   -1    0    0    0    0  0.00000000000E+00  0.00000000000E+00  0.45593999997E+02  0.45594000000E+02  0.51100000000E-03 0.  1.
         11   -1    0    0    0    0 -0.00000000000E+00 -0.00000000000E+00 -0.45593999997E+02  0.45594000000E+02  0.51100000000E-03 0. -1.
    9900012    2    1    2    0    0 -0.12922682045E+02 -0.67067084287E+01  0.11777329043E+02  0.72461517988E+02  0.69999931861E+02 0.  0.
         12    1    1    2    0    0  0.12922682045E+02  0.67067084287E+01 -0.11777329043E+02  0.18726482012E+02  0.00000000000E+00 0. -1.
         11    1    3    3    0    0  0.17844105408E+02 -0.80813637484E+01  0.83088822227E+01  0.21278112273E+02  0.51100000000E-03 0. -1.
        -11    1    3    3    0    0 -0.97427581542E+01 -0.17980294534E+02  0.85372605384E+01  0.22160711761E+02  0.51100000000E-03 0.  1.
        -12    1    3    3    0    0 -0.21024029299E+02  0.19354949854E+02 -0.50688137185E+01  0.29022693954E+02  0.00000000000E+00 0.  1.
</event>
<event>
 7    1  0.2972263E-013  0.7246153E+02  0.7816164E-02  0.1226708E+00
        -11   -1    0    0    0    0  0.00000000000E+00  0.00000000000E+00  0.45593999997E+02  0.45594000000E+02  0.51100000000E-03 0.  1.
         11   -1    0    0    0    0 -0.00000000000E+00 -0.00000000000E+00 -0.45593999997E+02  0.45594000000E+02  0.51100000000E-03 0. -1.
    9900012    2    1    2    0    0 -0.26160526452E+01 -0.16053515129E+02  0.92801677013E+01  0.72461532314E+02  0.69999950524E+02 0.  0.
         12    1    1    2    0    0  0.26160526452E+01  0.16053515129E+02 -0.92801677013E+01  0.18726467686E+02  0.00000000000E+00 0. -1.
         11    1    3    3    0    0  0.12047110313E+02 -0.77694089734E+01 -0.14079829105E+02  0.20093236936E+02  0.51100000000E-03 0. -1.
        -11    1    3    3    0    0  0.99363411518E+01 -0.17585657639E+02  0.13433958775E+02  0.24258142524E+02  0.51100000000E-03 0.  1.
        -12    1    3    3    0    0 -0.24599504110E+02  0.93015514837E+01  0.99260380310E+01  0.28110152854E+02  0.00000000000E+00 0.  1.
</event>
<event>
 7    1  0.2972263E-013  0.7246163E+02  0.7816164E-02  0.1226708E+00
        -11   -1    0    0    0    0  0.00000000000E+00  0.00000000000E+00  0.45593999997E+02  0.45594000000E+02  0.51100000000E-03 0.  1.
         11   -1    0    0    0    0 -0.00000000000E+00 -0.00000000000E+00 -0.45593999997E+02  0.45594000000E+02  0.51100000000E-03 0. -1.
    9900012    2    1    2    0    0 -0.33469571281E+01 -0.14937262024E+02  0.10786697434E+02  0.72461634620E+02  0.70000083797E+02 0.  0.
         12    1    1    2    0    0  0.33469571281E+01  0.14937262024E+02 -0.10786697434E+02  0.18726365380E+02  0.00000000000E+00 0. -1.
         11    1    3    3    0    0  0.16209974451E+02 -0.78348220386E+01 -0.19507100495E+02  0.26545709221E+02  0.51100000000E-03 0. -1.
        -11    1    3    3    0    0  0.70346392116E+01 -0.53495687762E+00  0.51515313719E+01  0.87355940516E+01  0.51100000000E-03 0.  1.
        -12    1    3    3    0    0 -0.26591570791E+02 -0.65674831082E+01  0.25142266557E+02  0.37180331347E+02  0.00000000000E+00 0.  1.
</event>
<event>
 7    1  0.2972263E-013  0.7246164E+02  0.7816164E-02  0.1226708E+00
        -11   -1    0    0    0    0  0.00000000000E+00  0.00000000000E+00  0.45593999997E+02  0.45594000000E+02  0.51100000000E-03 0. -1.
         11   -1    0    0    0    0 -0.00000000000E+00 -0.00000000000E+00 -0.45593999997E+02  0.45594000000E+02  0.51100000000E-03 0.  1.
    9900012    2    1    2    0    0  0.22003115080E+01  0.15581055618E+02 -0.10152141204E+02  0.72461637942E+02  0.70000088124E+02 0.  0.
         12    1    1    2    0    0 -0.22003115080E+01 -0.15581055618E+02  0.10152141204E+02  0.18726362058E+02  0.00000000000E+00 0. -1.
         11    1    3    3    0    0 -0.66514831307E+01  0.20839634711E+01  0.54836162060E+00  0.69918404097E+01  0.51100000000E-03 0. -1.
        -11    1    3    3    0    0 -0.39436304355E+01  0.30315613731E+02 -0.25384746575E+02  0.39736306016E+02  0.51100000000E-03 0.  1.
         12    1    3    3    0    0  0.12795425074E+02 -0.16818521584E+02  0.14684243750E+02  0.25733491517E+02  0.00000000000E+00 0. -1.
</event>
<event>
 7    1  0.2972263E-013  0.7246157E+02  0.7816164E-02  0.1226708E+00
        -11   -1    0    0    0    0  0.00000000000E+00  0.00000000000E+00  0.45593999997E+02  0.45594000000E+02  0.51100000000E-03 0.  1.
         11   -1    0    0    0    0 -0.00000000000E+00 -0.00000000000E+00 -0.45593999997E+02  0.45594000000E+02  0.51100000000E-03 0. -1.
    9900012    2    1    2    0    0  0.68880093593E+01 -0.75584658006E+01 -0.15687702920E+02  0.72461572121E+02  0.70000002380E+02 0.  0.
         12    1    1    2    0    0 -0.68880093593E+01  0.75584658006E+01  0.15687702920E+02  0.18726427879E+02  0.00000000000E+00 0. -1.
         11    1    3    3    0    0 -0.19429164646E+02 -0.16612948459E+02  0.11076596983E+02  0.27859890458E+02  0.51100000000E-03 0. -1.
        -11    1    3    3    0    0  0.38789234321E+01 -0.66494483419E+01 -0.27432571508E+01  0.81723111970E+01  0.51100000000E-03 0.  1.
         12    1    3    3    0    0  0.22438250573E+02  0.15703931000E+02 -0.24021042753E+02  0.36429370466E+02  0.00000000000E+00 0. -1.
</event>
<event>
 7    1  0.2972263E-013  0.7246161E+02  0.7816164E-02  0.1226708E+00
        -11   -1    0    0    0    0  0.00000000000E+00  0.00000000000E+00  0.45593999997E+02  0.45594000000E+02  0.51100000000E-03 0. -1.
         11   -1    0    0    0    0 -0.00000000000E+00 -0.00000000000E+00 -0.45593999997E+02  0.45594000000E+02  0.51100000000E-03 0.  1.
    9900012    2    1    2    0    0  0.18474063520E+02 -0.19691263659E+01  0.23471332864E+01  0.72461614437E+02  0.70000057504E+02 0.  0.
         12    1    1    2    0    0 -0.18474063520E+02  0.19691263659E+01 -0.23471332864E+01  0.18726385563E+02  0.00000000000E+00 0. -1.
         11    1    3    3    0    0  0.10186179621E+02  0.20340566834E+02  0.82065162209E+01  0.24183544470E+02  0.51100000000E-03 0. -1.
        -11    1    3    3    0    0  0.17387309747E+02 -0.23381713911E+01 -0.16324360803E+02  0.23963938357E+02  0.51100000000E-03 0.  1.
        -12    1    3    3    0    0 -0.90994258472E+01 -0.19971521809E+02  0.10464977868E+02  0.24314131609E+02  0.00000000000E+00 0.  1.
</event>
<event>
 7    1  0.2972263E-013  0.7246157E+02  0.7816164E-02  0.1226708E+00
        -11   -1    0    0    0    0  0.00000000000E+00  0.00000000000E+00  0.45593999997E+02  0.45594000000E+02  0.51100000000E-03 0. -1.
         11   -1    0    0    0    0 -0.00000000000E+00 -0.00000000000E+00 -0.45593999997E+02  0.45594000000E+02  0.51100000000E-03 0.  1.
    9900012    2    1    2    0    0 -0.11069025426E+02 -0.12585609620E+02 -0.83521356205E+01  0.72461573144E+02  0.70000003712E+02 0.  0.
         12    1    1    2    0    0  0.11069025426E+02  0.12585609620E+02  0.83521356205E+01  0.18726426856E+02  0.00000000000E+00 0. -1.
         11    1    3    3    0    0 -0.15582454848E+02  0.76105139125E+01 -0.21088479286E+02  0.27303054407E+02  0.51100000000E-03 0. -1.
        -11    1    3    3    0    0  0.87604560590E+01  0.64287548578E+01 -0.59175372087E+01  0.12373024136E+02  0.51100000000E-03 0.  1.
         12    1    3    3    0    0 -0.42470266372E+01 -0.26624878390E+02  0.18653880874E+02  0.32785494601E+02  0.00000000000E+00 0. -1.
</event>
<event>
 7    1  0.2972263E-013  0.7246165E+02  0.7816164E-02  0.1226708E+00
        -11   -1    0    0    0    0  0.00000000000E+00  0.00000000000E+00  0.45593999997E+02  0.45594000000E+02  0.51100000000E-03 0.  1.
         11   -1    0    0    0    0 -0.00000000000E+00 -0.00000000000E+00 -0.45593999997E+02  0.45594000000E+02  0.51100000000E-03 0. -1.
    9900012    2    1    2    0    0 -0.11504712817E+02  0.81223487561E+00  0.14753241747E+02  0.72461647324E+02  0.70000100345E+02 0.  0.
         12    1    1    2    0    0  0.11504712817E+02 -0.81223487561E+00 -0.14753241747E+02  0.18726352676E+02  0.00000000000E+00 0. -1.
         11    1    3    3    0    0  0.29789071235E+00  0.20288502695E+02  0.19560978682E+02  0.28184108426E+02  0.51100000000E-03 0. -1.
        -11    1    3    3    0    0  0.84896359065E+01  0.27305706443E+01 -0.10379054748E+02  0.13684104340E+02  0.51100000000E-03 0.  1.
        -12    1    3    3    0    0 -0.20292239436E+02 -0.22206838464E+02  0.55713178140E+01  0.30593434558E+02  0.00000000000E+00 0.  1.
</event>
<event>
 7    1  0.2972263E-013  0.7246158E+02  0.7816164E-02  0.1226708E+00
        -11   -1    0    0    0    0  0.00000000000E+00  0.00000000000E+00  0.45593999997E+02  0.45594000000E+02  0.51100000000E-03 0.  1.
         11   -1    0    0    0    0 -0.00000000000E+00 -0.00000000000E+00 -0.45593999997E+02  0.45594000000E+02  0.51100000000E-03 0. -1.
    9900012    2    1    2    0    0  0.75387056340E+01  0.10521935600E+02  0.13532758898E+02  0.72461580833E+02  0.70000013729E+02 0.  0.
         12    1    1    2    0    0 -0.75387056340E+01 -0.10521935600E+02 -0.13532758898E+02  0.18726419167E+02  0.00000000000E+00 0. -1.
         11    1    3    3    0    0 -0.15024542360E+02  0.16593302298E+02 -0.21560293707E+01  0.22488286222E+02  0.51100000000E-03 0. -1.
        -11    1    3    3    0    0  0.17199047765E+02  0.15335066033E+02  0.15738928552E+02  0.27904934446E+02  0.51100000000E-03 0.  1.
        -12    1    3    3    0    0  0.53642002297E+01 -0.21406432730E+02 -0.50140283135E-01  0.22068360165E+02  0.00000000000E+00 0.  1.
</event>
<event>
 7    1  0.2972263E-013  0.7246144E+02  0.7816164E-02  0.1226708E+00
        -11   -1    0    0    0    0  0.00000000000E+00  0.00000000000E+00  0.45593999997E+02  0.45594000000E+02  0.51100000000E-03 0.  1.
         11   -1    0    0    0    0 -0.00000000000E+00 -0.00000000000E+00 -0.45593999997E+02  0.45594000000E+02  0.51100000000E-03 0. -1.
    9900012    2    1    2    0    0 -0.14138675619E+02 -0.12237440853E+02  0.10133868965E+01  0.72461439721E+02  0.69999829903E+02 0.  0.
         12    1    1    2    0    0  0.14138675619E+02  0.12237440853E+02 -0.10133868965E+01  0.18726560279E+02  0.00000000000E+00 0. -1.
         11    1    3    3    0    0  0.48856618885E-01 -0.19797957298E+02 -0.25630121923E+02  0.32386179926E+02  0.51100000000E-03 0. -1.
        -11    1    3    3    0    0  0.66188320583E+01 -0.17986229859E+01  0.40434180158E+01  0.79619854291E+01  0.51100000000E-03 0.  1.
        -12    1    3    3    0    0 -0.20806364296E+02  0.93591394307E+01  0.22600090804E+02  0.32113274365E+02  0.00000000000E+00 0.  1.
</event>
<event>
 7    1  0.2972263E-013  0.7246156E+02  0.7816164E-02  0.1226708E+00
        -11   -1    0    0    0    0  0.00000000000E+00  0.00000000000E+00  0.45593999997E+02  0.45594000000E+02  0.51100000000E-03 0.  1.
         11   -1    0    0    0    0 -0.00000000000E+00 -0.00000000000E+00 -0.45593999997E+02  0.45594000000E+02  0.51100000000E-03 0. -1.
    9900012    2    1    2    0    0  0.13011720795E+02  0.24404155080E+01 -0.13244579360E+02  0.72461564452E+02  0.69999992390E+02 0.  0.
         12    1    1    2    0    0 -0.13011720795E+02 -0.24404155080E+01  0.13244579360E+02  0.18726435548E+02  0.00000000000E+00 0. -1.
         11    1    3    3    0    0  0.12107074277E+02  0.20668168572E+01  0.15380590674E+02  0.19682874516E+02  0.51100000000E-03 0.  1.
        -11    1    3    3    0    0 -0.13067928274E+02  0.16709201245E+02 -0.71285662681E+01  0.22378217376E+02  0.51100000000E-03 0. -1.
         12    1    3    3    0    0  0.13972574792E+02 -0.16335602594E+02 -0.21496603767E+02  0.30400472561E+02  0.00000000000E+00 0. -1.
</event>
<event>
 7    1  0.2972263E-013  0.7246158E+02  0.7816164E-02  0.1226708E+00
        -11   -1    0    0    0    0  0.00000000000E+00  0.00000000000E+00  0.45593999997E+02  0.45594000000E+02  0.51100000000E-03 0.  1.
         11   -1    0    0    0    0 -0.00000000000E+00 -0.00000000000E+00 -0.45593999997E+02  0.45594000000E+02  0.51100000000E-03 0. -1.
    9900012    2    1    2    0    0 -0.57410082687E-01  0.72853567560E+01  0.17251060010E+02  0.72461580416E+02  0.70000013185E+02 0.  0.
         12    1    1    2    0    0  0.57410082687E-01 -0.72853567560E+01 -0.17251060010E+02  0.18726419584E+02  0.00000000000E+00 0. -1.
         11    1    3    3    0    0 -0.54322796968E+01  0.10905234520E+02  0.13783514042E+02  0.18396169772E+02  0.51100000000E-03 0. -1.
        -11    1    3    3    0    0  0.23937317314E+02 -0.80250817468E+01  0.17208790441E+02  0.30553879720E+02  0.51100000000E-03 0.  1.
         12    1    3    3    0    0 -0.18562447700E+02  0.44052039827E+01 -0.13741244474E+02  0.23511530925E+02  0.00000000000E+00 0. -1.
</event>
<event>
 7    1  0.2972263E-013  0.7246161E+02  0.7816164E-02  0.1226708E+00
        -11   -1    0    0    0    0  0.00000000000E+00  0.00000000000E+00  0.45593999997E+02  0.45594000000E+02  0.51100000000E-03 0.  1.
         11   -1    0    0    0    0 -0.00000000000E+00 -0.00000000000E+00 -0.45593999997E+02  0.45594000000E+02  0.51100000000E-03 0. -1.
    9900012    2    1    2    0    0 -0.18489683504E+02  0.19017799980E+01 -0.22787055455E+01  0.72461610540E+02  0.70000052428E+02 0.  0.
         12    1    1    2    0    0  0.18489683504E+02 -0.19017799980E+01  0.22787055455E+01  0.18726389460E+02  0.00000000000E+00 0. -1.
         11    1    3    3    0    0 -0.74803816195E+01  0.24534857954E+01  0.27677180379E+01  0.83448166619E+01  0.51100000000E-03 0. -1.
        -11    1    3    3    0    0 -0.11668729036E+02  0.17368546437E+02  0.22831514946E+02  0.30969399698E+02  0.51100000000E-03 0.  1.
         12    1    3    3    0    0  0.65942715184E+00 -0.17920252234E+02 -0.27877938529E+02  0.33147394181E+02  0.00000000000E+00 0. -1.
</event>
<event>
 7    1  0.2972263E-013  0.7246158E+02  0.7816164E-02  0.1226708E+00
        -11   -1    0    0    0    0  0.00000000000E+00  0.00000000000E+00  0.45593999997E+02  0.45594000000E+02  0.51100000000E-03 0.  1.
         11   -1    0    0    0    0 -0.00000000000E+00 -0.00000000000E+00 -0.45593999997E+02  0.45594000000E+02  0.51100000000E-03 0. -1.
    9900012    2    1    2    0    0 -0.17543653460E+02 -0.60891342137E+01 -0.24127833545E+01  0.72461578673E+02  0.70000010915E+02 0.  0.
         12    1    1    2    0    0  0.17543653460E+02  0.60891342137E+01  0.24127833545E+01  0.18726421327E+02  0.00000000000E+00 0. -1.
         11    1    3    3    0    0  0.26871099472E+00  0.65979543960E+01  0.23714743879E+02  0.24616951178E+02  0.51100000000E-03 0. -1.
        -11    1    3    3    0    0 -0.44076542923E+01 -0.17179657904E+02  0.44903750650E+00  0.17741750111E+02  0.51100000000E-03 0.  1.
         12    1    3    3    0    0 -0.13404710163E+02  0.44925692941E+01 -0.26576564740E+02  0.30102877384E+02  0.00000000000E+00 0. -1.
</event>
<event>
 7    1  0.2972263E-013  0.7246159E+02  0.7816164E-02  0.1226708E+00
        -11   -1    0    0    0    0  0.00000000000E+00  0.00000000000E+00  0.45593999997E+02  0.45594000000E+02  0.51100000000E-03 0. -1.
         11   -1    0    0    0    0 -0.00000000000E+00 -0.00000000000E+00 -0.45593999997E+02  0.45594000000E+02  0.51100000000E-03 0.  1.
    9900012    2    1    2    0    0 -0.70839718078E+01 -0.78279186780E+01 -0.15466723125E+02  0.72461588394E+02  0.70000023578E+02 0.  0.
         12    1    1    2    0    0  0.70839718078E+01  0.78279186780E+01  0.15466723125E+02  0.18726411606E+02  0.00000000000E+00 0. -1.
         11    1    3    3    0    0 -0.13357368699E+01 -0.44131392709E+01 -0.72323507444E+01  0.85771142444E+01  0.51100000000E-03 0. -1.
        -11    1    3    3    0    0  0.23752630214E+02  0.18235972612E+01 -0.20577511135E+02  0.31479309297E+02  0.51100000000E-03 0.  1.
         12    1    3    3    0    0 -0.29500865151E+02 -0.52383766683E+01  0.12343138754E+02  0.32405164852E+02  0.00000000000E+00 0. -1.
</event>
<event>
 7    1  0.2972263E-013  0.7246151E+02  0.7816164E-02  0.1226708E+00
        -11   -1    0    0    0    0  0.00000000000E+00  0.00000000000E+00  0.45593999997E+02  0.45594000000E+02  0.51100000000E-03 0. -1.
         11   -1    0    0    0    0 -0.00000000000E+00 -0.00000000000E+00 -0.45593999997E+02  0.45594000000E+02  0.51100000000E-03 0.  1.
    9900012    2    1    2    0    0  0.18179708283E+02  0.93703456700E+00 -0.43933518486E+01  0.72461511608E+02  0.69999923550E+02 0.  0.
         12    1    1    2    0    0 -0.18179708283E+02 -0.93703456700E+00  0.43933518486E+01  0.18726488392E+02  0.00000000000E+00 0. -1.
         11    1    3    3    0    0  0.82764193107E+01  0.57092116140E+01  0.13063235881E+02  0.16484609362E+02  0.51100000000E-03 0. -1.
        -11    1    3    3    0    0 -0.60190178353E+01  0.21263179162E+02 -0.33315260259E+01  0.22348387631E+02  0.51100000000E-03 0.  1.
         12    1    3    3    0    0  0.15922306808E+02 -0.26035356209E+02 -0.14125061704E+02  0.33628514615E+02  0.00000000000E+00 0. -1.
</event>
<event>
 7    1  0.2972263E-013  0.7246213E+02  0.7816164E-02  0.1226707E+00
        -11   -1    0    0    0    0  0.00000000000E+00  0.00000000000E+00  0.45593999997E+02  0.45594000000E+02  0.51100000000E-03 0.  1.
         11   -1    0    0    0    0 -0.00000000000E+00 -0.00000000000E+00 -0.45593999997E+02  0.45594000000E+02  0.51100000000E-03 0. -1.
    9900012    2    1    2    0    0 -0.12263507218E+01  0.37257189371E+01  0.18310468103E+02  0.72462131266E+02  0.70000730766E+02 0.  0.
         12    1    1    2    0    0  0.12263507218E+01 -0.37257189371E+01 -0.18310468103E+02  0.18725868734E+02  0.00000000000E+00 0. -1.
         11    1    3    3    0    0  0.16001912039E+02  0.79837820423E+01 -0.49264436684E+01  0.18549172814E+02  0.51100000000E-03 0. -1.
        -11    1    3    3    0    0  0.33538161553E-01 -0.23004046158E+02  0.13218316452E+02  0.26531324026E+02  0.51100000000E-03 0.  1.
         12    1    3    3    0    0 -0.17261800922E+02  0.18745983053E+02  0.10018595319E+02  0.27381634427E+02  0.00000000000E+00 0. -1.
</event>
<event>
 7    1  0.2972263E-013  0.7246158E+02  0.7816164E-02  0.1226708E+00
        -11   -1    0    0    0    0  0.00000000000E+00  0.00000000000E+00  0.45593999997E+02  0.45594000000E+02  0.51100000000E-03 0.  1.
         11   -1    0    0    0    0 -0.00000000000E+00 -0.00000000000E+00 -0.45593999997E+02  0.45594000000E+02  0.51100000000E-03 0. -1.
    9900012    2    1    2    0    0  0.28718958822E+01 -0.11631556614E+02  0.14392280879E+02  0.72461584322E+02  0.70000018274E+02 0.  0.
         12    1    1    2    0    0 -0.28718958822E+01  0.11631556614E+02 -0.14392280879E+02  0.18726415678E+02  0.00000000000E+00 0. -1.
         11    1    3    3    0    0 -0.24749857468E+01  0.19524365355E+02 -0.49091819770E+01  0.20283650187E+02  0.51100000000E-03 0. -1.
        -11    1    3    3    0    0  0.21867235433E+01  0.42355765724E+01 -0.66469459273E+01  0.81794718153E+01  0.51100000000E-03 0.  1.
        -12    1    3    3    0    0  0.31601580857E+01 -0.35391498542E+02  0.25948408783E+02  0.43998462320E+02  0.00000000000E+00 0.  1.
</event>
<event>
 7    1  0.2972263E-013  0.7246156E+02  0.7816164E-02  0.1226708E+00
        -11   -1    0    0    0    0  0.00000000000E+00  0.00000000000E+00  0.45593999997E+02  0.45594000000E+02  0.51100000000E-03 0. -1.
         11   -1    0    0    0    0 -0.00000000000E+00 -0.00000000000E+00 -0.45593999997E+02  0.45594000000E+02  0.51100000000E-03 0.  1.
    9900012    2    1    2    0    0 -0.32449344595E+00  0.39378254238E+01 -0.18304860713E+02  0.72461556377E+02  0.69999981870E+02 0.  0.
         12    1    1    2    0    0  0.32449344595E+00 -0.39378254238E+01  0.18304860713E+02  0.18726443623E+02  0.00000000000E+00 0. -1.
         11    1    3    3    0    0 -0.21955802735E+02  0.18674751359E+02 -0.14244415798E+02  0.32151314028E+02  0.51100000000E-03 0. -1.
        -11    1    3    3    0    0  0.81673215228E+01  0.64627388557E+00 -0.15024097959E+02  0.17112753446E+02  0.51100000000E-03 0.  1.
        -12    1    3    3    0    0  0.13463987766E+02 -0.15383199821E+02  0.10963653044E+02  0.23197488902E+02  0.00000000000E+00 0.  1.
</event>
<event>
 7    1  0.2972263E-013  0.7246155E+02  0.7816164E-02  0.1226708E+00
        -11   -1    0    0    0    0  0.00000000000E+00  0.00000000000E+00  0.45593999997E+02  0.45594000000E+02  0.51100000000E-03 0. -1.
         11   -1    0    0    0    0 -0.00000000000E+00 -0.00000000000E+00 -0.45593999997E+02  0.45594000000E+02  0.51100000000E-03 0.  1.
    9900012    2    1    2    0    0 -0.24994314201E+01 -0.30732386326E+01 -0.18302676547E+02  0.72461550206E+02  0.69999973831E+02 0.  0.
         12    1    1    2    0    0  0.24994314201E+01  0.30732386326E+01  0.18302676547E+02  0.18726449794E+02  0.00000000000E+00 0. -1.
         11    1    3    3    0    0 -0.14411348985E+02  0.51998221624E+01  0.30902312570E+01  0.15629288518E+02  0.51100000000E-03 0. -1.
        -11    1    3    3    0    0 -0.24312995526E+01 -0.21434280062E+02  0.67586479850E+01  0.22605727198E+02  0.51100000000E-03 0.  1.
        -12    1    3    3    0    0  0.14343217117E+02  0.13161219267E+02 -0.28151555789E+02  0.34226534490E+02  0.00000000000E+00 0.  1.
</event>
<event>
 7    1  0.2972263E-013  0.7246178E+02  0.7816164E-02  0.1226707E+00
        -11   -1    0    0    0    0  0.00000000000E+00  0.00000000000E+00  0.45593999997E+02  0.45594000000E+02  0.51100000000E-03 0.  1.
         11   -1    0    0    0    0 -0.00000000000E+00 -0.00000000000E+00 -0.45593999997E+02  0.45594000000E+02  0.51100000000E-03 0. -1.
    9900012    2    1    2    0    0  0.12498280231E+02  0.11934251011E+02  0.72137418164E+01  0.72461777024E+02  0.70000269304E+02 0.  0.
         12    1    1    2    0    0 -0.12498280231E+02 -0.11934251011E+02 -0.72137418164E+01  0.18726222976E+02  0.00000000000E+00 0. -1.
         11    1    3    3    0    0  0.32271566822E+01 -0.54057008264E+01 -0.22088659270E+02  0.22968348010E+02  0.51100000000E-03 0. -1.
        -11    1    3    3    0    0 -0.88010602144E+01  0.34417587603E+01 -0.30366847817E+01  0.99260172771E+01  0.51100000000E-03 0.  1.
        -12    1    3    3    0    0  0.18072183763E+02  0.13898193077E+02  0.32339085868E+02  0.39567411737E+02  0.00000000000E+00 0.  1.
</event>
<event>
 7    1  0.2972263E-013  0.7246159E+02  0.7816164E-02  0.1226708E+00
        -11   -1    0    0    0    0  0.00000000000E+00  0.00000000000E+00  0.45593999997E+02  0.45594000000E+02  0.51100000000E-03 0. -1.
         11   -1    0    0    0    0 -0.00000000000E+00 -0.00000000000E+00 -0.45593999997E+02  0.45594000000E+02  0.51100000000E-03 0.  1.
    9900012    2    1    2    0    0  0.10279590014E+02 -0.15651742844E+02 -0.17765317501E+00  0.72461585886E+02  0.70000020311E+02 0.  0.
         12    1    1    2    0    0 -0.10279590014E+02  0.15651742844E+02  0.17765317501E+00  0.18726414114E+02  0.00000000000E+00 0. -1.
         11    1    3    3    0    0 -0.17863388636E+01  0.44626008230E+01 -0.77270260690E+01  0.91001508105E+01  0.51100000000E-03 0. -1.
        -11    1    3    3    0    0 -0.24140713602E+01 -0.12697813629E+02 -0.24341635941E+02  0.27560432726E+02  0.51100000000E-03 0.  1.
         12    1    3    3    0    0  0.14480000238E+02 -0.74165300386E+01  0.31891008835E+02  0.35801002349E+02  0.00000000000E+00 0. -1.
</event>
<event>
 7    1  0.2972263E-013  0.7246159E+02  0.7816164E-02  0.1226708E+00
        -11   -1    0    0    0    0  0.00000000000E+00  0.00000000000E+00  0.45593999997E+02  0.45594000000E+02  0.51100000000E-03 0.  1.
         11   -1    0    0    0    0 -0.00000000000E+00 -0.00000000000E+00 -0.45593999997E+02  0.45594000000E+02  0.51100000000E-03 0. -1.
    9900012    2    1    2    0    0  0.57496181356E+01  0.17798137737E+02  0.92021525234E+00  0.72461585188E+02  0.70000019401E+02 0.  0.
         12    1    1    2    0    0 -0.57496181356E+01 -0.17798137737E+02 -0.92021525234E+00  0.18726414812E+02  0.00000000000E+00 0. -1.
         11    1    3    3    0    0  0.21165208868E+01 -0.81458222372E+01  0.18030613182E+02  0.19898168070E+02  0.51100000000E-03 0. -1.
        -11    1    3    3    0    0  0.28183052017E+01  0.23824683722E+02  0.95388708933E+01  0.25817599749E+02  0.51100000000E-03 0.  1.
         12    1    3    3    0    0  0.81479204707E+00  0.21192762526E+01 -0.26649268823E+02  0.26745817368E+02  0.00000000000E+00 0. -1.
</event>
<event>
 7    1  0.2972263E-013  0.7246171E+02  0.7816164E-02  0.1226708E+00
        -11   -1    0    0    0    0  0.00000000000E+00  0.00000000000E+00  0.45593999997E+02  0.45594000000E+02  0.51100000000E-03 0. -1.
         11   -1    0    0    0    0 -0.00000000000E+00 -0.00000000000E+00 -0.45593999997E+02  0.45594000000E+02  0.51100000000E-03 0.  1.
    9900012    2    1    2    0    0  0.36486364644E+00 -0.12409645466E+00 -0.18722324595E+02  0.72461709292E+02  0.70000181070E+02 0.  0.
         12    1    1    2    0    0 -0.36486364644E+00  0.12409645466E+00  0.18722324595E+02  0.18726290708E+02  0.00000000000E+00 0. -1.
         11    1    3    3    0    0  0.18939176600E+02  0.41023874983E+01 -0.15209789252E+02  0.24634522175E+02  0.51100000000E-03 0. -1.
        -11    1    3    3    0    0  0.90261679782E+01  0.97032194681E+01  0.72316713690E+01  0.15097060888E+02  0.51100000000E-03 0.  1.
        -12    1    3    3    0    0 -0.27600480932E+02 -0.13929703421E+02 -0.10744206713E+02  0.32730126229E+02  0.00000000000E+00 0.  1.
</event>
<event>
 7    1  0.2972263E-013  0.7246157E+02  0.7816164E-02  0.1226708E+00
        -11   -1    0    0    0    0  0.00000000000E+00  0.00000000000E+00  0.45593999997E+02  0.45594000000E+02  0.51100000000E-03 0. -1.
         11   -1    0    0    0    0 -0.00000000000E+00 -0.00000000000E+00 -0.45593999997E+02  0.45594000000E+02  0.51100000000E-03 0.  1.
    9900012    2    1    2    0    0  0.21318241489E+01 -0.17966408522E+02 -0.48314369126E+01  0.72461567023E+02  0.69999995739E+02 0.  0.
         12    1    1    2    0    0 -0.21318241489E+01  0.17966408522E+02  0.48314369126E+01  0.18726432977E+02  0.00000000000E+00 0. -1.
         11    1    3    3    0    0 -0.22472043361E+02  0.18665822487E+01 -0.20866015320E+01  0.22645767117E+02  0.51100000000E-03 0. -1.
        -11    1    3    3    0    0 -0.54629876681E+01  0.56593167344E+01  0.54297117891E+01  0.95579218733E+01  0.51100000000E-03 0.  1.
        -12    1    3    3    0    0  0.30066855178E+02 -0.25492307506E+02 -0.81745471697E+01  0.40257878033E+02  0.00000000000E+00 0.  1.
</event>
<event>
 7    1  0.2972263E-013  0.7246158E+02  0.7816164E-02  0.1226708E+00
        -11   -1    0    0    0    0  0.00000000000E+00  0.00000000000E+00  0.45593999997E+02  0.45594000000E+02  0.51100000000E-03 0.  1.
         11   -1    0    0    0    0 -0.00000000000E+00 -0.00000000000E+00 -0.45593999997E+02  0.45594000000E+02  0.51100000000E-03 0. -1.
    9900012    2    1    2    0    0 -0.40138250056E+01  0.12970957405E+01  0.18245154939E+02  0.72461576762E+02  0.70000008425E+02 0.  0.
         12    1    1    2    0    0  0.40138250056E+01 -0.12970957405E+01 -0.18245154939E+02  0.18726423238E+02  0.00000000000E+00 0. -1.
         11    1    3    3    0    0 -0.20694811328E+01 -0.20121071383E+02  0.43109851663E+01  0.20681510078E+02  0.51100000000E-03 0. -1.
        -11    1    3    3    0    0  0.18932571803E+02  0.10227550467E+02 -0.42299190370E+01  0.21930282236E+02  0.51100000000E-03 0.  1.
        -12    1    3    3    0    0 -0.20876915676E+02  0.11190616656E+02  0.18164088810E+02  0.29849784448E+02  0.00000000000E+00 0.  1.
</event>
<event>
 7    1  0.2972263E-013  0.7246167E+02  0.7816164E-02  0.1226708E+00
        -11   -1    0    0    0    0  0.00000000000E+00  0.00000000000E+00  0.45593999997E+02  0.45594000000E+02  0.51100000000E-03 0.  1.
         11   -1    0    0    0    0 -0.00000000000E+00 -0.00000000000E+00 -0.45593999997E+02  0.45594000000E+02  0.51100000000E-03 0. -1.
    9900012    2    1    2    0    0 -0.14006946381E+02 -0.85472092307E+01  0.90236511596E+01  0.72461665260E+02  0.70000123710E+02 0.  0.
         12    1    1    2    0    0  0.14006946381E+02  0.85472092307E+01 -0.90236511596E+01  0.18726334740E+02  0.00000000000E+00 0. -1.
         11    1    3    3    0    0 -0.19785737085E+02 -0.14591228714E+01  0.32350677293E+01  0.20101494845E+02  0.51100000000E-03 0. -1.
        -11    1    3    3    0    0 -0.17218158134E+02 -0.46979215696E+01 -0.13396703880E+02  0.22316072946E+02  0.51100000000E-03 0.  1.
        -12    1    3    3    0    0  0.22996948837E+02 -0.23901647897E+01  0.19185287311E+02  0.30044097469E+02  0.00000000000E+00 0.  1.
</event>
<event>
 7    1  0.2972263E-013  0.7246175E+02  0.7816164E-02  0.1226708E+00
        -11   -1    0    0    0    0  0.00000000000E+00  0.00000000000E+00  0.45593999997E+02  0.45594000000E+02  0.51100000000E-03 0. -1.
         11   -1    0    0    0    0 -0.00000000000E+00 -0.00000000000E+00 -0.45593999997E+02  0.45594000000E+02  0.51100000000E-03 0.  1.
    9900012    2    1    2    0    0  0.34387941403E+01 -0.17069150700E+02 -0.68913919436E+01  0.72461748542E+02  0.70000232200E+02 0.  0.
         12    1    1    2    0    0 -0.34387941403E+01  0.17069150700E+02  0.68913919436E+01  0.18726251458E+02  0.00000000000E+00 0. -1.
         11    1    3    3    0    0  0.19437919229E+02  0.16187735726E+02  0.58756795264E+01  0.25969195252E+02  0.51100000000E-03 0. -1.
        -11    1    3    3    0    0  0.63504756318E+01 -0.12320256970E+02 -0.18647523318E+01  0.13985513007E+02  0.51100000000E-03 0.  1.
        -12    1    3    3    0    0 -0.22349600720E+02 -0.20936629456E+02 -0.10902319138E+02  0.32507040283E+02  0.00000000000E+00 0.  1.
</event>
<event>
 7    1  0.2972263E-013  0.7246158E+02  0.7816164E-02  0.1226708E+00
        -11   -1    0    0    0    0  0.00000000000E+00  0.00000000000E+00  0.45593999997E+02  0.45594000000E+02  0.51100000000E-03 0. -1.
         11   -1    0    0    0    0 -0.00000000000E+00 -0.00000000000E+00 -0.45593999997E+02  0.45594000000E+02  0.51100000000E-03 0.  1.
    9900012    2    1    2    0    0  0.11293624671E+01 -0.23610551205E+01 -0.18542619175E+02  0.72461581049E+02  0.70000014010E+02 0.  0.
         12    1    1    2    0    0 -0.11293624671E+01  0.23610551205E+01  0.18542619175E+02  0.18726418951E+02  0.00000000000E+00 0. -1.
         11    1    3    3    0    0  0.50590257899E+01 -0.10171202168E+02  0.15697461646E+02  0.19376723094E+02  0.51100000000E-03 0. -1.
        -11    1    3    3    0    0 -0.25449438138E+01  0.13507856295E+02  0.40646910910E+01  0.14333898096E+02  0.51100000000E-03 0.  1.
        -12    1    3    3    0    0 -0.13847195091E+01 -0.56977092470E+01 -0.38304771912E+02  0.38750959859E+02  0.00000000000E+00 0.  1.
</event>
<event>
 7    1  0.2972263E-013  0.7246145E+02  0.7816164E-02  0.1226708E+00
        -11   -1    0    0    0    0  0.00000000000E+00  0.00000000000E+00  0.45593999997E+02  0.45594000000E+02  0.51100000000E-03 0.  1.
         11   -1    0    0    0    0 -0.00000000000E+00 -0.00000000000E+00 -0.45593999997E+02  0.45594000000E+02  0.51100000000E-03 0. -1.
    9900012    2    1    2    0    0  0.43123332964E+01 -0.19491429934E+00  0.18222226557E+02  0.72461447976E+02  0.69999840657E+02 0.  0.
         12    1    1    2    0    0 -0.43123332964E+01  0.19491429934E+00 -0.18222226557E+02  0.18726552024E+02  0.00000000000E+00 0. -1.
         11    1    3    3    0    0 -0.95472377150E+01  0.11440025021E+02  0.59022858593E+01  0.16026880517E+02  0.51100000000E-03 0. -1.
        -11    1    3    3    0    0 -0.27204572193E+00  0.68695856925E+01  0.27693139967E+02  0.28533755764E+02  0.51100000000E-03 0.  1.
         12    1    3    3    0    0  0.14131616733E+02 -0.18504525013E+02 -0.15373199270E+02  0.27900811695E+02  0.00000000000E+00 0. -1.
</event>
<event>
 7    1  0.2972263E-013  0.7246123E+02  0.7816164E-02  0.1226709E+00
        -11   -1    0    0    0    0  0.00000000000E+00  0.00000000000E+00  0.45593999997E+02  0.45594000000E+02  0.51100000000E-03 0.  1.
         11   -1    0    0    0    0 -0.00000000000E+00 -0.00000000000E+00 -0.45593999997E+02  0.45594000000E+02  0.51100000000E-03 0. -1.
    9900012    2    1    2    0    0 -0.12028810792E+02 -0.14022304364E+02 -0.30617776295E+01  0.72461233301E+02  0.69999561002E+02 0.  0.
         12    1    1    2    0    0  0.12028810792E+02  0.14022304364E+02  0.30617776295E+01  0.18726766699E+02  0.00000000000E+00 0. -1.
         11    1    3    3    0    0 -0.51586965266E+01 -0.12822249148E+02  0.10817977083E+02  0.17551377482E+02  0.51100000000E-03 0.  1.
        -11    1    3    3    0    0  0.51330660734E+01  0.24356539853E+02 -0.64447496105E+01  0.25712335537E+02  0.51100000000E-03 0. -1.
         12    1    3    3    0    0 -0.12003180338E+02 -0.25556595069E+02 -0.74350051024E+01  0.29197520283E+02  0.00000000000E+00 0. -1.
</event>
<event>
 7    1  0.2972263E-013  0.7246153E+02  0.7816164E-02  0.1226708E+00
        -11   -1    0    0    0    0  0.00000000000E+00  0.00000000000E+00  0.45593999997E+02  0.45594000000E+02  0.51100000000E-03 0.  1.
         11   -1    0    0    0    0 -0.00000000000E+00 -0.00000000000E+00 -0.45593999997E+02  0.45594000000E+02  0.51100000000E-03 0. -1.
    9900012    2    1    2    0    0  0.50380883184E+01 -0.45789449932E+01  0.17445104857E+02  0.72461527972E+02  0.69999944867E+02 0.  0.
         12    1    1    2    0    0 -0.50380883184E+01  0.45789449932E+01 -0.17445104857E+02  0.18726472028E+02  0.00000000000E+00 0. -1.
         11    1    3    3    0    0  0.68268586698E+01 -0.25285538163E+01  0.71387410839E+01  0.10196136926E+02  0.51100000000E-03 0. -1.
        -11    1    3    3    0    0  0.24425045913E+02  0.12899538400E+02  0.15455434242E+02  0.31652036374E+02  0.51100000000E-03 0.  1.
         12    1    3    3    0    0 -0.26213816264E+02 -0.14949929577E+02 -0.51490704684E+01  0.30613354671E+02  0.00000000000E+00 0. -1.
</event>
<event>
 7    1  0.2972263E-013  0.7246197E+02  0.7816164E-02  0.1226707E+00
        -11   -1    0    0    0    0  0.00000000000E+00  0.00000000000E+00  0.45593999997E+02  0.45594000000E+02  0.51100000000E-03 0. -1.
         11   -1    0    0    0    0 -0.00000000000E+00 -0.00000000000E+00 -0.45593999997E+02  0.45594000000E+02  0.51100000000E-03 0.  1.
    9900012    2    1    2    0    0  0.11840328716E+02  0.13897048739E+02 -0.41644653733E+01  0.72461972135E+02  0.70000523470E+02 0.  0.
         12    1    1    2    0    0 -0.11840328716E+02 -0.13897048739E+02  0.41644653733E+01  0.18726027865E+02  0.00000000000E+00 0. -1.
         11    1    3    3    0    0  0.44382460988E+01 -0.24937918848E+02 -0.25700543977E+01  0.25459831200E+02  0.51100000000E-03 0. -1.
        -11    1    3    3    0    0  0.60095061416E+01  0.25672036299E+01 -0.78056340101E+01  0.10180010860E+02  0.51100000000E-03 0.  1.
         12    1    3    3    0    0  0.13925764752E+01  0.36267763957E+02  0.62112230345E+01  0.36822130075E+02  0.00000000000E+00 0. -1.
</event>
<event>
 7    1  0.2972263E-013  0.7246157E+02  0.7816164E-02  0.1226708E+00
        -11   -1    0    0    0    0  0.00000000000E+00  0.00000000000E+00  0.45593999997E+02  0.45594000000E+02  0.51100000000E-03 0. -1.
         11   -1    0    0    0    0 -0.00000000000E+00 -0.00000000000E+00 -0.45593999997E+02  0.45594000000E+02  0.51100000000E-03 0.  1.
    9900012    2    1    2    0    0 -0.92466002935E+01 -0.96175836364E+01 -0.13140840577E+02  0.72461568865E+02  0.69999998138E+02 0.  0.
         12    1    1    2    0    0  0.92466002935E+01  0.96175836364E+01  0.13140840577E+02  0.18726431135E+02  0.00000000000E+00 0. -1.
         11    1    3    3    0    0 -0.90314485339E+01 -0.75965674214E+01 -0.18350201325E+02  0.21817533961E+02  0.51100000000E-03 0. -1.
        -11    1    3    3    0    0 -0.22896302783E+02 -0.45235365983E+01 -0.75129291725E+01  0.24518302745E+02  0.51100000000E-03 0.  1.
         12    1    3    3    0    0  0.22681151023E+02  0.25025203833E+01  0.12722289921E+02  0.26125732159E+02  0.00000000000E+00 0. -1.
</event>
<event>
 7    1  0.2972263E-013  0.7246155E+02  0.7816164E-02  0.1226708E+00
        -11   -1    0    0    0    0  0.00000000000E+00  0.00000000000E+00  0.45593999997E+02  0.45594000000E+02  0.51100000000E-03 0. -1.
         11   -1    0    0    0    0 -0.00000000000E+00 -0.00000000000E+00 -0.45593999997E+02  0.45594000000E+02  0.51100000000E-03 0.  1.
    9900012    2    1    2    0    0  0.11691363972E+02 -0.14626030208E+02  0.26675082214E+00  0.72461550599E+02  0.69999974343E+02 0.  0.
         12    1    1    2    0    0 -0.11691363972E+02  0.14626030208E+02 -0.26675082214E+00  0.18726449401E+02  0.00000000000E+00 0. -1.
         11    1    3    3    0    0  0.20049516303E+02 -0.28763482833E+01 -0.86990491395E+01  0.22043818626E+02  0.51100000000E-03 0. -1.
        -11    1    3    3    0    0 -0.11250452869E+02 -0.10192404091E+02 -0.17832340395E+02  0.23419012685E+02  0.51100000000E-03 0.  1.
         12    1    3    3    0    0  0.28923005382E+01 -0.15572778335E+01  0.26798140356E+02  0.26998719288E+02  0.00000000000E+00 0. -1.
</event>
<event>
 7    1  0.2972263E-013  0.7246155E+02  0.7816164E-02  0.1226708E+00
        -11   -1    0    0    0    0  0.00000000000E+00  0.00000000000E+00  0.45593999997E+02  0.45594000000E+02  0.51100000000E-03 0.  1.
         11   -1    0    0    0    0 -0.00000000000E+00 -0.00000000000E+00 -0.45593999997E+02  0.45594000000E+02  0.51100000000E-03 0. -1.
    9900012    2    1    2    0    0 -0.93220437196E+01  0.15132414047E+02 -0.58982498797E+01  0.72461553310E+02  0.69999977874E+02 0.  0.
         12    1    1    2    0    0  0.93220437196E+01 -0.15132414047E+02  0.58982498797E+01  0.18726446690E+02  0.00000000000E+00 0. -1.
         11    1    3    3    0    0  0.19808753941E+01 -0.60315198896E+01 -0.17354422825E+01  0.65814025620E+01  0.51100000000E-03 0. -1.
        -11    1    3    3    0    0 -0.37900201500E+01 -0.21792401256E+02 -0.21807388771E+01  0.22226754769E+02  0.51100000000E-03 0.  1.
         12    1    3    3    0    0 -0.75128989638E+01  0.42956335193E+02 -0.19820687201E+01  0.43653395979E+02  0.00000000000E+00 0. -1.
</event>
<event>
 7    1  0.2972263E-013  0.7246159E+02  0.7816164E-02  0.1226708E+00
        -11   -1    0    0    0    0  0.00000000000E+00  0.00000000000E+00  0.45593999997E+02  0.45594000000E+02  0.51100000000E-03 0.  1.
         11   -1    0    0    0    0 -0.00000000000E+00 -0.00000000000E+00 -0.45593999997E+02  0.45594000000E+02  0.51100000000E-03 0. -1.
    9900012    2    1    2    0    0 -0.81364931730E+01 -0.12515354001E+02  0.11306716730E+02  0.72461589502E+02  0.70000025021E+02 0.  0.
         12    1    1    2    0    0  0.81364931730E+01  0.12515354001E+02 -0.11306716730E+02  0.18726410498E+02  0.00000000000E+00 0. -1.
         11    1    3    3    0    0  0.15108137539E+02  0.14608143116E+02 -0.80651940820E+01  0.22510020458E+02  0.51100000000E-03 0. -1.
        -11    1    3    3    0    0 -0.99460958500E+01  0.40263537924E+01 -0.39155229363E+00  0.10737302314E+02  0.51100000000E-03 0.  1.
        -12    1    3    3    0    0 -0.13298534862E+02 -0.31149850910E+02  0.19763463106E+02  0.39214266729E+02  0.00000000000E+00 0.  1.
</event>
<event>
 7    1  0.2972263E-013  0.7246153E+02  0.7816164E-02  0.1226708E+00
        -11   -1    0    0    0    0  0.00000000000E+00  0.00000000000E+00  0.45593999997E+02  0.45594000000E+02  0.51100000000E-03 0.  1.
         11   -1    0    0    0    0 -0.00000000000E+00 -0.00000000000E+00 -0.45593999997E+02  0.45594000000E+02  0.51100000000E-03 0. -1.
    9900012    2    1    2    0    0 -0.52286190941E+01  0.30198937875E+01  0.17726321239E+02  0.72461529943E+02  0.69999947435E+02 0.  0.
         12    1    1    2    0    0  0.52286190941E+01 -0.30198937875E+01 -0.17726321239E+02  0.18726470057E+02  0.00000000000E+00 0. -1.
         11    1    3    3    0    0  0.15835064259E+02 -0.43702496740E+01  0.91919301870E+01  0.18823918910E+02  0.51100000000E-03 0. -1.
        -11    1    3    3    0    0 -0.76015612113E+01 -0.12223661666E+02  0.22008253672E+02  0.26297620945E+02  0.51100000000E-03 0.  1.
         12    1    3    3    0    0 -0.13462122142E+02  0.19613805128E+02 -0.13473862620E+02  0.27339990089E+02  0.00000000000E+00 0. -1.
</event>
<event>
 7    1  0.2972263E-013  0.7246157E+02  0.7816164E-02  0.1226708E+00
        -11   -1    0    0    0    0  0.00000000000E+00  0.00000000000E+00  0.45593999997E+02  0.45594000000E+02  0.51100000000E-03 0.  1.
         11   -1    0    0    0    0 -0.00000000000E+00 -0.00000000000E+00 -0.45593999997E+02  0.45594000000E+02  0.51100000000E-03 0. -1.
    9900012    2    1    2    0    0  0.10492153618E+02 -0.38019665107E+01  0.15037913124E+02  0.72461573005E+02  0.70000003531E+02 0.  0.
         12    1    1    2    0    0 -0.10492153618E+02  0.38019665107E+01 -0.15037913124E+02  0.18726426995E+02  0.00000000000E+00 0. -1.
         11    1    3    3    0    0 -0.15543992236E+00  0.45651536277E+01  0.12505808457E+02  0.13313903809E+02  0.51100000000E-03 0. -1.
        -11    1    3    3    0    0  0.15102508161E+02  0.31392036514E+01  0.27367972253E+02  0.31415700817E+02  0.51100000000E-03 0.  1.
         12    1    3    3    0    0 -0.44549146209E+01 -0.11506323790E+02 -0.24835867586E+02  0.27731968379E+02  0.00000000000E+00 0. -1.
</event>
<event>
 7    1  0.2972263E-013  0.7246152E+02  0.7816164E-02  0.1226708E+00
        -11   -1    0    0    0    0  0.00000000000E+00  0.00000000000E+00  0.45593999997E+02  0.45594000000E+02  0.51100000000E-03 0.  1.
         11   -1    0    0    0    0 -0.00000000000E+00 -0.00000000000E+00 -0.45593999997E+02  0.45594000000E+02  0.51100000000E-03 0. -1.
    9900012    2    1    2    0    0  0.12377835851E+02 -0.52193924439E+01  0.13047157500E+02  0.72461516169E+02  0.69999929492E+02 0.  0.
         12    1    1    2    0    0 -0.12377835851E+02  0.52193924439E+01 -0.13047157500E+02  0.18726483831E+02  0.00000000000E+00 0. -1.
         11    1    3    3    0    0 -0.17145924831E+02 -0.50084155421E+01 -0.72262614525E+01  0.19268778357E+02  0.51100000000E-03 0. -1.
        -11    1    3    3    0    0  0.14800656619E+01 -0.86300948988E+00 -0.11028504702E+02  0.11160792802E+02  0.51100000000E-03 0.  1.
        -12    1    3    3    0    0  0.28043695019E+02  0.65203258807E+00  0.31301923655E+02  0.42031945010E+02  0.00000000000E+00 0.  1.
</event>
<event>
 7    1  0.2972263E-013  0.7246158E+02  0.7816164E-02  0.1226708E+00
        -11   -1    0    0    0    0  0.00000000000E+00  0.00000000000E+00  0.45593999997E+02  0.45594000000E+02  0.51100000000E-03 0. -1.
         11   -1    0    0    0    0 -0.00000000000E+00 -0.00000000000E+00 -0.45593999997E+02  0.45594000000E+02  0.51100000000E-03 0.  1.
    9900012    2    1    2    0    0  0.23451117519E+01  0.17854524450E+02 -0.51376212481E+01  0.72461581641E+02  0.70000014781E+02 0.  0.
         12    1    1    2    0    0 -0.23451117519E+01 -0.17854524450E+02  0.51376212481E+01  0.18726418359E+02  0.00000000000E+00 0. -1.
         11    1    3    3    0    0 -0.56232916268E+01 -0.88581067993E+00 -0.92487384970E+00  0.57672750220E+01  0.51100000000E-03 0. -1.
        -11    1    3    3    0    0 -0.14305970175E+02  0.89225188151E+01 -0.27983946216E+02  0.32670680598E+02  0.51100000000E-03 0.  1.
         12    1    3    3    0    0  0.22274373553E+02  0.98178163152E+01  0.23771198817E+02  0.34023626021E+02  0.00000000000E+00 0. -1.
</event>
<event>
 7    1  0.2972263E-013  0.7246151E+02  0.7816164E-02  0.1226708E+00
        -11   -1    0    0    0    0  0.00000000000E+00  0.00000000000E+00  0.45593999997E+02  0.45594000000E+02  0.51100000000E-03 0. -1.
         11   -1    0    0    0    0 -0.00000000000E+00 -0.00000000000E+00 -0.45593999997E+02  0.45594000000E+02  0.51100000000E-03 0.  1.
    9900012    2    1    2    0    0  0.12104199622E+02  0.39906395746E+01 -0.13720220618E+02  0.72461513237E+02  0.69999925672E+02 0.  0.
         12    1    1    2    0    0 -0.12104199622E+02 -0.39906395746E+01  0.13720220618E+02  0.18726486763E+02  0.00000000000E+00 0. -1.
         11    1    3    3    0    0  0.82849884025E+01  0.20622082775E+02  0.14097832552E+02  0.26318438664E+02  0.51100000000E-03 0. -1.
        -11    1    3    3    0    0 -0.75669441110E+01  0.67968584304E+01 -0.42801395685E+01  0.11035194728E+02  0.51100000000E-03 0.  1.
        -12    1    3    3    0    0  0.11386155330E+02 -0.23428301631E+02 -0.23537913601E+02  0.35107879845E+02  0.00000000000E+00 0.  1.
</event>
<event>
 7    1  0.2972263E-013  0.7246167E+02  0.7816164E-02  0.1226708E+00
        -11   -1    0    0    0    0  0.00000000000E+00  0.00000000000E+00  0.45593999997E+02  0.45594000000E+02  0.51100000000E-03 0.  1.
         11   -1    0    0    0    0 -0.00000000000E+00 -0.00000000000E+00 -0.45593999997E+02  0.45594000000E+02  0.51100000000E-03 0. -1.
    9900012    2    1    2    0    0 -0.14656411122E+02 -0.11590956732E+02  0.12307724778E+01  0.72461669184E+02  0.70000128821E+02 0.  0.
         12    1    1    2    0    0  0.14656411122E+02  0.11590956732E+02 -0.12307724778E+01  0.18726330816E+02  0.00000000000E+00 0. -1.
         11    1    3    3    0    0  0.19471070114E+02  0.29192781938E+01 -0.15913616707E+02  0.25315764921E+02  0.51100000000E-03 0. -1.
        -11    1    3    3    0    0 -0.34198223812E+01  0.19546566561E+01 -0.46141929510E+01  0.60668479965E+01  0.51100000000E-03 0.  1.
        -12    1    3    3    0    0 -0.30707658855E+02 -0.16464891582E+02  0.21758582136E+02  0.41079056266E+02  0.00000000000E+00 0.  1.
</event>
<event>
 7    1  0.2972263E-013  0.7246146E+02  0.7816164E-02  0.1226708E+00
        -11   -1    0    0    0    0  0.00000000000E+00  0.00000000000E+00  0.45593999997E+02  0.45594000000E+02  0.51100000000E-03 0.  1.
         11   -1    0    0    0    0 -0.00000000000E+00 -0.00000000000E+00 -0.45593999997E+02  0.45594000000E+02  0.51100000000E-03 0. -1.
    9900012    2    1    2    0    0 -0.86937652404E+01  0.13983425535E+02  0.89199614930E+01  0.72461455824E+02  0.69999850880E+02 0.  0.
         12    1    1    2    0    0  0.86937652404E+01 -0.13983425535E+02 -0.89199614930E+01  0.18726544176E+02  0.00000000000E+00 0. -1.
         11    1    3    3    0    0 -0.43831359231E+01 -0.12639358415E+02 -0.11244626955E+02  0.17475894749E+02  0.51100000000E-03 0. -1.
        -11    1    3    3    0    0  0.41002858847E+01  0.32181473273E+02  0.60667759494E-03  0.32441633236E+02  0.51100000000E-03 0.  1.
         12    1    3    3    0    0 -0.84109152019E+01 -0.55586893234E+01  0.20163981771E+02  0.22543927838E+02  0.00000000000E+00 0. -1.
</event>
<event>
 7    1  0.2972263E-013  0.7246155E+02  0.7816164E-02  0.1226708E+00
        -11   -1    0    0    0    0  0.00000000000E+00  0.00000000000E+00  0.45593999997E+02  0.45594000000E+02  0.51100000000E-03 0.  1.
         11   -1    0    0    0    0 -0.00000000000E+00 -0.00000000000E+00 -0.45593999997E+02  0.45594000000E+02  0.51100000000E-03 0. -1.
    9900012    2    1    2    0    0  0.94374164018E+00 -0.16404202929E+02 -0.89828488429E+01  0.72461545574E+02  0.69999967798E+02 0.  0.
         12    1    1    2    0    0 -0.94374164018E+00  0.16404202929E+02  0.89828488429E+01  0.18726454426E+02  0.00000000000E+00 0. -1.
         11    1    3    3    0    0  0.36327114454E+01 -0.98748550624E+00 -0.32243875949E+01  0.49566516616E+01  0.51100000000E-03 0. -1.
        -11    1    3    3    0    0  0.80788845471E+01  0.88605928176E+01 -0.29523929376E+02  0.31865983222E+02  0.51100000000E-03 0.  1.
        -12    1    3    3    0    0 -0.10767854352E+02 -0.24277310241E+02  0.23765468129E+02  0.35638910691E+02  0.00000000000E+00 0.  1.
</event>
<event>
 7    1  0.2972263E-013  0.7246158E+02  0.7816164E-02  0.1226708E+00
        -11   -1    0    0    0    0  0.00000000000E+00  0.00000000000E+00  0.45593999997E+02  0.45594000000E+02  0.51100000000E-03 0.  1.
         11   -1    0    0    0    0 -0.00000000000E+00 -0.00000000000E+00 -0.45593999997E+02  0.45594000000E+02  0.51100000000E-03 0. -1.
    9900012    2    1    2    0    0  0.12468148439E+02  0.98968496682E+01  0.98628830856E+01  0.72461579583E+02  0.70000012101E+02 0.  0.
         12    1    1    2    0    0 -0.12468148439E+02 -0.98968496682E+01 -0.98628830856E+01  0.18726420417E+02  0.00000000000E+00 0. -1.
         11    1    3    3    0    0 -0.16113315342E+02  0.13209337190E+02 -0.74017480551E+01  0.22111340864E+02  0.51100000000E-03 0. -1.
        -11    1    3    3    0    0 -0.81225199298E+01  0.51572772430E+01  0.38811486661E+01  0.10374784518E+02  0.51100000000E-03 0.  1.
        -12    1    3    3    0    0  0.36703983711E+02 -0.84697647644E+01  0.13383482475E+02  0.39975454201E+02  0.00000000000E+00 0.  1.
</event>
<event>
 7    1  0.2972263E-013  0.7246156E+02  0.7816164E-02  0.1226708E+00
        -11   -1    0    0    0    0  0.00000000000E+00  0.00000000000E+00  0.45593999997E+02  0.45594000000E+02  0.51100000000E-03 0.  1.
         11   -1    0    0    0    0 -0.00000000000E+00 -0.00000000000E+00 -0.45593999997E+02  0.45594000000E+02  0.51100000000E-03 0. -1.
    9900012    2    1    2    0    0 -0.61970396933E+01  0.93218151415E+01  0.15012656674E+02  0.72461564169E+02  0.69999992021E+02 0.  0.
         12    1    1    2    0    0  0.61970396933E+01 -0.93218151415E+01 -0.15012656674E+02  0.18726435831E+02  0.00000000000E+00 0. -1.
         11    1    3    3    0    0 -0.12451773872E+01  0.12134740653E+01 -0.72199776566E+01  0.74263762129E+01  0.51100000000E-03 0. -1.
        -11    1    3    3    0    0  0.13725668079E+02  0.29295807369E+02  0.16082523461E+02  0.36128740010E+02  0.51100000000E-03 0.  1.
         12    1    3    3    0    0 -0.18677530385E+02 -0.21187466292E+02  0.61501108704E+01  0.28906447947E+02  0.00000000000E+00 0. -1.
</event>
<event>
 7    1  0.2972263E-013  0.7246156E+02  0.7816164E-02  0.1226708E+00
        -11   -1    0    0    0    0  0.00000000000E+00  0.00000000000E+00  0.45593999997E+02  0.45594000000E+02  0.51100000000E-03 0. -1.
         11   -1    0    0    0    0 -0.00000000000E+00 -0.00000000000E+00 -0.45593999997E+02  0.45594000000E+02  0.51100000000E-03 0.  1.
    9900012    2    1    2    0    0 -0.13401686172E+02  0.20303971746E+01 -0.12920991939E+02  0.72461555126E+02  0.69999980240E+02 0.  0.
         12    1    1    2    0    0  0.13401686172E+02 -0.20303971746E+01  0.12920991939E+02  0.18726444874E+02  0.00000000000E+00 0. -1.
         11    1    3    3    0    0  0.19167753082E+01  0.85920996467E+01 -0.13182567154E+02  0.15851759554E+02  0.51100000000E-03 0. -1.
        -11    1    3    3    0    0 -0.63576364238E+01 -0.44708763022E+01 -0.26864155440E+02  0.27965892147E+02  0.51100000000E-03 0.  1.
         12    1    3    3    0    0 -0.89608250569E+01 -0.20908261699E+01  0.27125730656E+02  0.28643903425E+02  0.00000000000E+00 0. -1.
</event>
<event>
 7    1  0.2972263E-013  0.7246152E+02  0.7816164E-02  0.1226708E+00
        -11   -1    0    0    0    0  0.00000000000E+00  0.00000000000E+00  0.45593999997E+02  0.45594000000E+02  0.51100000000E-03 0.  1.
         11   -1    0    0    0    0 -0.00000000000E+00 -0.00000000000E+00 -0.45593999997E+02  0.45594000000E+02  0.51100000000E-03 0. -1.
    9900012    2    1    2    0    0  0.13959796449E+02  0.12095922419E+02 -0.30812231173E+01  0.72461516295E+02  0.69999929655E+02 0.  0.
         12    1    1    2    0    0 -0.13959796449E+02 -0.12095922419E+02  0.30812231173E+01  0.18726483705E+02  0.00000000000E+00 0. -1.
         11    1    3    3    0    0  0.15949802257E+02  0.71383393245E+00 -0.27418565590E+02  0.31728275878E+02  0.51100000000E-03 0. -1.
        -11    1    3    3    0    0 -0.10192225060E+02 -0.46290903084E+01  0.96011391525E+00  0.11235290283E+02  0.51100000000E-03 0.  1.
        -12    1    3    3    0    0  0.82022192517E+01  0.16011178795E+02  0.23377228557E+02  0.29497950134E+02  0.00000000000E+00 0.  1.
</event>
<event>
 7    1  0.2995839E-013  0.7246146E+02  0.7816164E-02  0.1226708E+00
        -11   -1    0    0    0    0  0.00000000000E+00  0.00000000000E+00  0.45593999997E+02  0.45594000000E+02  0.51100000000E-03 0. -1.
         11   -1    0    0    0    0 -0.00000000000E+00 -0.00000000000E+00 -0.45593999997E+02  0.45594000000E+02  0.51100000000E-03 0.  1.
    9900012    2    1    2    0    0 -0.10091789779E+01  0.63975481286E+00 -0.18688376245E+02  0.72461464412E+02  0.69999862069E+02 0.  0.
         12    1    1    2    0    0  0.10091789779E+01 -0.63975481286E+00  0.18688376245E+02  0.18726535588E+02  0.00000000000E+00 0. -1.
         11    1    3    3    0    0 -0.11349277508E+02 -0.58834684711E+01  0.11325576610E+02  0.17078934013E+02  0.51100000000E-03 0. -1.
        -11    1    3    3    0    0 -0.25417505116E+01  0.16780467132E+02  0.41371099662E+01  0.17468836595E+02  0.51100000000E-03 0.  1.
        -12    1    3    3    0    0  0.12881849041E+02 -0.10257243848E+02 -0.34151062822E+02  0.37913693805E+02  0.00000000000E+00 0.  1.
</event>
<event>
 7    1  0.2972263E-013  0.7246155E+02  0.7816164E-02  0.1226708E+00
        -11   -1    0    0    0    0  0.00000000000E+00  0.00000000000E+00  0.45593999997E+02  0.45594000000E+02  0.51100000000E-03 0.  1.
         11   -1    0    0    0    0 -0.00000000000E+00 -0.00000000000E+00 -0.45593999997E+02  0.45594000000E+02  0.51100000000E-03 0. -1.
    9900012    2    1    2    0    0 -0.18052702515E+02  0.31717522376E+01  0.38366559536E+01  0.72461547873E+02  0.69999970793E+02 0.  0.
         12    1    1    2    0    0  0.18052702515E+02 -0.31717522376E+01 -0.38366559536E+01  0.18726452127E+02  0.00000000000E+00 0. -1.
         11    1    3    3    0    0 -0.16124739937E+02 -0.18450655003E+02 -0.10341444514E+02  0.26596604727E+02  0.51100000000E-03 0. -1.
        -11    1    3    3    0    0 -0.89049369054E+01 -0.28048093330E+01  0.17901150992E+02  0.20189503802E+02  0.51100000000E-03 0.  1.
        -12    1    3    3    0    0  0.69769743278E+01  0.24427216574E+02 -0.37230505243E+01  0.25675439344E+02  0.00000000000E+00 0.  1.
</event>
<event>
 7    1  0.2972263E-013  0.7246179E+02  0.7816164E-02  0.1226707E+00
        -11   -1    0    0    0    0  0.00000000000E+00  0.00000000000E+00  0.45593999997E+02  0.45594000000E+02  0.51100000000E-03 0.  1.
         11   -1    0    0    0    0 -0.00000000000E+00 -0.00000000000E+00 -0.45593999997E+02  0.45594000000E+02  0.51100000000E-03 0. -1.
    9900012    2    1    2    0    0  0.93378523009E+01  0.14360533447E+02  0.75663967595E+01  0.72461794661E+02  0.70000292279E+02 0.  0.
         12    1    1    2    0    0 -0.93378523009E+01 -0.14360533447E+02 -0.75663967595E+01  0.18726205339E+02  0.00000000000E+00 0. -1.
         11    1    3    3    0    0  0.22616471356E+00  0.27053973335E+02  0.69737706740E+01  0.27939257352E+02  0.51100000000E-03 0. -1.
        -11    1    3    3    0    0  0.17350272513E+02  0.12078818621E+01  0.14928642212E+02  0.22920630302E+02  0.51100000000E-03 0.  1.
         12    1    3    3    0    0 -0.82385849253E+01 -0.13901321750E+02 -0.14336016127E+02  0.21601907008E+02  0.00000000000E+00 0. -1.
</event>
<event>
 7    1  0.2972263E-013  0.7246157E+02  0.7816164E-02  0.1226708E+00
        -11   -1    0    0    0    0  0.00000000000E+00  0.00000000000E+00  0.45593999997E+02  0.45594000000E+02  0.51100000000E-03 0. -1.
         11   -1    0    0    0    0 -0.00000000000E+00 -0.00000000000E+00 -0.45593999997E+02  0.45594000000E+02  0.51100000000E-03 0.  1.
    9900012    2    1    2    0    0 -0.19786481460E+01  0.18532387568E+02  0.18206510235E+01  0.72461569278E+02  0.69999998676E+02 0.  0.
         12    1    1    2    0    0  0.19786481460E+01 -0.18532387568E+02 -0.18206510235E+01  0.18726430722E+02  0.00000000000E+00 0. -1.
         11    1    3    3    0    0  0.33965760568E+01  0.10028849325E+02  0.31736682157E+01  0.11053810108E+02  0.51100000000E-03 0. -1.
        -11    1    3    3    0    0 -0.68401182114E+01  0.23049587447E+02  0.22825930165E+02  0.33152583410E+02  0.51100000000E-03 0.  1.
         12    1    3    3    0    0  0.14648940086E+01 -0.14546049204E+02 -0.24178947357E+02  0.28255175760E+02  0.00000000000E+00 0. -1.
</event>
<event>
 7    1  0.2972263E-013  0.7246159E+02  0.7816164E-02  0.1226708E+00
        -11   -1    0    0    0    0  0.00000000000E+00  0.00000000000E+00  0.45593999997E+02  0.45594000000E+02  0.51100000000E-03 0.  1.
         11   -1    0    0    0    0 -0.00000000000E+00 -0.00000000000E+00 -0.45593999997E+02  0.45594000000E+02  0.51100000000E-03 0. -1.
    9900012    2    1    2    0    0 -0.12575096034E+02  0.10064274509E+02  0.95527944840E+01  0.72461586993E+02  0.70000021753E+02 0.  0.
         12    1    1    2    0    0  0.12575096034E+02 -0.10064274509E+02 -0.95527944840E+01  0.18726413007E+02  0.00000000000E+00 0. -1.
         11    1    3    3    0    0  0.69145934001E+01  0.10880584112E+02  0.21091858379E+02  0.24719733062E+02  0.51100000000E-03 0.  1.
        -11    1    3    3    0    0 -0.19234127500E+02 -0.68166451214E+01 -0.25431730242E+02  0.32606613052E+02  0.51100000000E-03 0. -1.
         12    1    3    3    0    0 -0.25556193428E+00  0.60003355184E+01  0.13892666347E+02  0.15135240879E+02  0.00000000000E+00 0. -1.
</event>
<event>
 7    1  0.2972263E-013  0.7246160E+02  0.7816164E-02  0.1226708E+00
        -11   -1    0    0    0    0  0.00000000000E+00  0.00000000000E+00  0.45593999997E+02  0.45594000000E+02  0.51100000000E-03 0.  1.
         11   -1    0    0    0    0 -0.00000000000E+00 -0.00000000000E+00 -0.45593999997E+02  0.45594000000E+02  0.51100000000E-03 0. -1.
    9900012    2    1    2    0    0 -0.16132072769E+02 -0.64975641032E+01  0.69437632583E+01  0.72461602608E+02  0.70000042095E+02 0.  0.
         12    1    1    2    0    0  0.16132072769E+02  0.64975641032E+01 -0.69437632583E+01  0.18726397392E+02  0.00000000000E+00 0. -1.
         11    1    3    3    0    0 -0.93829319773E+01  0.30349487062E+01  0.18288840689E+02  0.20778162097E+02  0.51100000000E-03 0. -1.
        -11    1    3    3    0    0  0.17862550407E+02 -0.13483238957E+01  0.77072455519E+01  0.19501033783E+02  0.51100000000E-03 0.  1.
         12    1    3    3    0    0 -0.24611691198E+02 -0.81841889137E+01 -0.19052322982E+02  0.32182406728E+02  0.00000000000E+00 0. -1.
</event>
<event>
 7    1  0.2972263E-013  0.7246156E+02  0.7816164E-02  0.1226708E+00
        -11   -1    0    0    0    0  0.00000000000E+00  0.00000000000E+00  0.45593999997E+02  0.45594000000E+02  0.51100000000E-03 0.  1.
         11   -1    0    0    0    0 -0.00000000000E+00 -0.00000000000E+00 -0.45593999997E+02  0.45594000000E+02  0.51100000000E-03 0. -1.
    9900012    2    1    2    0    0 -0.88936839040E+00 -0.18358676756E+02  0.35843741131E+01  0.72461555432E+02  0.69999980639E+02 0.  0.
         12    1    1    2    0    0  0.88936839040E+00  0.18358676756E+02 -0.35843741131E+01  0.18726444568E+02  0.00000000000E+00 0. -1.
         11    1    3    3    0    0  0.37052578291E+01  0.91248200347E+01 -0.20145214456E+02  0.22423669236E+02  0.51100000000E-03 0. -1.
        -11    1    3    3    0    0 -0.46921291673E+01  0.53861369155E+01  0.14067835789E+02  0.15777533110E+02  0.51100000000E-03 0.  1.
        -12    1    3    3    0    0  0.97502947817E-01 -0.32869633706E+02  0.96617527804E+01  0.34260353086E+02  0.00000000000E+00 0.  1.
</event>
<event>
 7    1  0.2972263E-013  0.7246141E+02  0.7816164E-02  0.1226708E+00
        -11   -1    0    0    0    0  0.00000000000E+00  0.00000000000E+00  0.45593999997E+02  0.45594000000E+02  0.51100000000E-03 0.  1.
         11   -1    0    0    0    0 -0.00000000000E+00 -0.00000000000E+00 -0.45593999997E+02  0.45594000000E+02  0.51100000000E-03 0. -1.
    9900012    2    1    2    0    0  0.12533552621E+02 -0.13871245346E+02  0.10880440878E+01  0.72461408514E+02  0.69999789251E+02 0.  0.
         12    1    1    2    0    0 -0.12533552621E+02  0.13871245346E+02 -0.10880440878E+01  0.18726591486E+02  0.00000000000E+00 0. -1.
         11    1    3    3    0    0  0.19187289713E+02  0.35822729033E+01 -0.11774408971E+02  0.22795207228E+02  0.51100000000E-03 0. -1.
        -11    1    3    3    0    0  0.11915511467E+02 -0.71226750198E+01 -0.11001332314E+02  0.17712741908E+02  0.51100000000E-03 0.  1.
        -12    1    3    3    0    0 -0.18569248560E+02 -0.10330843229E+02  0.23863785373E+02  0.31953459378E+02  0.00000000000E+00 0.  1.
</event>
<event>
 7    1  0.2972263E-013  0.7246163E+02  0.7816164E-02  0.1226708E+00
        -11   -1    0    0    0    0  0.00000000000E+00  0.00000000000E+00  0.45593999997E+02  0.45594000000E+02  0.51100000000E-03 0.  1.
         11   -1    0    0    0    0 -0.00000000000E+00 -0.00000000000E+00 -0.45593999997E+02  0.45594000000E+02  0.51100000000E-03 0. -1.
    9900012    2    1    2    0    0  0.60746915865E+01 -0.88729158096E+00  0.17691464930E+02  0.72461625669E+02  0.70000072136E+02 0.  0.
         12    1    1    2    0    0 -0.60746915865E+01  0.88729158096E+00 -0.17691464930E+02  0.18726374331E+02  0.00000000000E+00 0. -1.
         11    1    3    3    0    0 -0.21826428500E+02 -0.99455130095E+01 -0.95250109939E+01  0.25807596649E+02  0.51100000000E-03 0. -1.
        -11    1    3    3    0    0  0.76998757523E+01  0.14092251323E+02  0.66237378018E+01  0.17371054565E+02  0.51100000000E-03 0.  1.
        -12    1    3    3    0    0  0.20201244334E+02 -0.50340298947E+01  0.20592738122E+02  0.29282974456E+02  0.00000000000E+00 0.  1.
</event>
<event>
 7    1  0.2972263E-013  0.7246108E+02  0.7816164E-02  0.1226709E+00
        -11   -1    0    0    0    0  0.00000000000E+00  0.00000000000E+00  0.45593999997E+02  0.45594000000E+02  0.51100000000E-03 0.  1.
         11   -1    0    0    0    0 -0.00000000000E+00 -0.00000000000E+00 -0.45593999997E+02  0.45594000000E+02  0.51100000000E-03 0. -1.
    9900012    2    1    2    0    0 -0.66285174739E+01  0.56601526665E+01  0.16574768185E+02  0.72461080539E+02  0.69999362000E+02 0.  0.
         12    1    1    2    0    0  0.66285174739E+01 -0.56601526665E+01 -0.16574768185E+02  0.18726919461E+02  0.00000000000E+00 0. -1.
         11    1    3    3    0    0 -0.17881661884E+01 -0.15878921857E+02 -0.48006584120E+00  0.15986499340E+02  0.51100000000E-03 0.  1.
        -11    1    3    3    0    0  0.10733569698E+02 -0.12359511858E+02  0.31977737810E+01  0.16679112963E+02  0.51100000000E-03 0. -1.
        -12    1    3    3    0    0 -0.15573920983E+02  0.33898586382E+02  0.13857060245E+02  0.39795468236E+02  0.00000000000E+00 0.  1.
</event>
<event>
 7    1  0.2972263E-013  0.7246155E+02  0.7816164E-02  0.1226708E+00
        -11   -1    0    0    0    0  0.00000000000E+00  0.00000000000E+00  0.45593999997E+02  0.45594000000E+02  0.51100000000E-03 0.  1.
         11   -1    0    0    0    0 -0.00000000000E+00 -0.00000000000E+00 -0.45593999997E+02  0.45594000000E+02  0.51100000000E-03 0. -1.
    9900012    2    1    2    0    0  0.88198088377E+01 -0.92499915602E+01  0.13686803199E+02  0.72461549359E+02  0.69999972728E+02 0.  0.
         12    1    1    2    0    0 -0.88198088377E+01  0.92499915602E+01 -0.13686803199E+02  0.18726450641E+02  0.00000000000E+00 0. -1.
         11    1    3    3    0    0 -0.88229978187E+01 -0.22011234024E+02  0.91062801249E+01  0.25402048180E+02  0.51100000000E-03 0. -1.
        -11    1    3    3    0    0  0.17201858978E+02 -0.59637439272E+01 -0.12196606552E+02  0.21914091485E+02  0.51100000000E-03 0.  1.
        -12    1    3    3    0    0  0.44094767796E+00  0.18724986391E+02  0.16777129626E+02  0.25145409694E+02  0.00000000000E+00 0.  1.
</event>
<event>
 7    1  0.2972263E-013  0.7246138E+02  0.7816164E-02  0.1226709E+00
        -11   -1    0    0    0    0  0.00000000000E+00  0.00000000000E+00  0.45593999997E+02  0.45594000000E+02  0.51100000000E-03 0.  1.
         11   -1    0    0    0    0 -0.00000000000E+00 -0.00000000000E+00 -0.45593999997E+02  0.45594000000E+02  0.51100000000E-03 0. -1.
    9900012    2    1    2    0    0  0.10175649906E+02  0.14924033293E+02 -0.49412234741E+01  0.72461379638E+02  0.69999751635E+02 0.  0.
         12    1    1    2    0    0 -0.10175649906E+02 -0.14924033293E+02  0.49412234741E+01  0.18726620362E+02  0.00000000000E+00 0. -1.
         11    1    3    3    0    0  0.19688231876E+02 -0.36661979627E+01  0.94340766962E+01  0.22137508561E+02  0.51100000000E-03 0. -1.
        -11    1    3    3    0    0 -0.12383962874E+00  0.27633847606E+02  0.38660976132E+01  0.27903253946E+02  0.51100000000E-03 0.  1.
         12    1    3    3    0    0 -0.93887423420E+01 -0.90436163499E+01 -0.18241397784E+02  0.22420617131E+02  0.00000000000E+00 0. -1.
</event>
<event>
 7    1  0.2972263E-013  0.7246157E+02  0.7816164E-02  0.1226708E+00
        -11   -1    0    0    0    0  0.00000000000E+00  0.00000000000E+00  0.45593999997E+02  0.45594000000E+02  0.51100000000E-03 0. -1.
         11   -1    0    0    0    0 -0.00000000000E+00 -0.00000000000E+00 -0.45593999997E+02  0.45594000000E+02  0.51100000000E-03 0.  1.
    9900012    2    1    2    0    0  0.97363440778E+01 -0.15925721334E+02  0.15013500795E+01  0.72461573537E+02  0.70000004224E+02 0.  0.
         12    1    1    2    0    0 -0.97363440778E+01  0.15925721334E+02 -0.15013500795E+01  0.18726426463E+02  0.00000000000E+00 0. -1.
         11    1    3    3    0    0  0.71727037135E+01  0.44891924795E+01  0.37482055783E+01  0.92547054518E+01  0.51100000000E-03 0. -1.
        -11    1    3    3    0    0  0.63991400816E+01 -0.40892378007E+02  0.36615566268E+01  0.41551685525E+02  0.51100000000E-03 0.  1.
         12    1    3    3    0    0 -0.38354997173E+01  0.20477464193E+02 -0.59084121256E+01  0.21655182560E+02  0.00000000000E+00 0. -1.
</event>
<event>
 7    1  0.2972263E-013  0.7246138E+02  0.7816164E-02  0.1226709E+00
        -11   -1    0    0    0    0  0.00000000000E+00  0.00000000000E+00  0.45593999997E+02  0.45594000000E+02  0.51100000000E-03 0.  1.
         11   -1    0    0    0    0 -0.00000000000E+00 -0.00000000000E+00 -0.45593999997E+02  0.45594000000E+02  0.51100000000E-03 0. -1.
    9900012    2    1    2    0    0 -0.73599135537E+01 -0.15049351125E+02 -0.83687006608E+01  0.72461375970E+02  0.69999746856E+02 0.  0.
         12    1    1    2    0    0  0.73599135537E+01  0.15049351125E+02  0.83687006608E+01  0.18726624030E+02  0.00000000000E+00 0. -1.
         11    1    3    3    0    0  0.31497445287E+01 -0.24285780030E+01 -0.65173146605E+01  0.76350685889E+01  0.51100000000E-03 0. -1.
        -11    1    3    3    0    0 -0.24652213486E+02  0.18363339668E+02 -0.72204474649E+00  0.30748418209E+02  0.51100000000E-03 0.  1.
         12    1    3    3    0    0  0.14142555403E+02 -0.30984112790E+02 -0.11293412538E+01  0.34077889172E+02  0.00000000000E+00 0. -1.
</event>
<event>
 7    1  0.2972263E-013  0.7246164E+02  0.7816164E-02  0.1226708E+00
        -11   -1    0    0    0    0  0.00000000000E+00  0.00000000000E+00  0.45593999997E+02  0.45594000000E+02  0.51100000000E-03 0.  1.
         11   -1    0    0    0    0 -0.00000000000E+00 -0.00000000000E+00 -0.45593999997E+02  0.45594000000E+02  0.51100000000E-03 0. -1.
    9900012    2    1    2    0    0  0.94017063820E+00  0.18520844346E+02  0.26021214621E+01  0.72461638041E+02  0.70000088253E+02 0.  0.
         12    1    1    2    0    0 -0.94017063820E+00 -0.18520844346E+02 -0.26021214621E+01  0.18726361959E+02  0.00000000000E+00 0. -1.
         11    1    3    3    0    0  0.60219836513E+01  0.79067670582E+01 -0.85122476657E+01  0.13085855455E+02  0.51100000000E-03 0. -1.
        -11    1    3    3    0    0 -0.26793772306E+01  0.33952433781E+02  0.11391156298E+02  0.35912466694E+02  0.51100000000E-03 0.  1.
        -12    1    3    3    0    0 -0.24024357825E+01 -0.23338356493E+02 -0.27678717003E+00  0.23463315892E+02  0.00000000000E+00 0.  1.
</event>
<event>
 7    1  0.2972263E-013  0.7246182E+02  0.7816164E-02  0.1226707E+00
        -11   -1    0    0    0    0  0.00000000000E+00  0.00000000000E+00  0.45593999997E+02  0.45594000000E+02  0.51100000000E-03 0.  1.
         11   -1    0    0    0    0 -0.00000000000E+00 -0.00000000000E+00 -0.45593999997E+02  0.45594000000E+02  0.51100000000E-03 0. -1.
    9900012    2    1    2    0    0 -0.10267106764E+02  0.73745144103E+01  0.13815673295E+02  0.72461821194E+02  0.70000326842E+02 0.  0.
         12    1    1    2    0    0  0.10267106764E+02 -0.73745144103E+01 -0.13815673295E+02  0.18726178806E+02  0.00000000000E+00 0. -1.
         11    1    3    3    0    0 -0.90589885606E+01  0.10862837871E+02  0.21355697620E+02  0.25615080352E+02  0.51100000000E-03 0.  1.
        -11    1    3    3    0    0  0.20394832012E+02 -0.44195067111E+01  0.55197607432E+01  0.21585851183E+02  0.51100000000E-03 0. -1.
         12    1    3    3    0    0 -0.21602950216E+02  0.93118325064E+00 -0.13059785069E+02  0.25260889658E+02  0.00000000000E+00 0. -1.
</event>
<event>
 7    1  0.2972263E-013  0.7246160E+02  0.7816164E-02  0.1226708E+00
        -11   -1    0    0    0    0  0.00000000000E+00  0.00000000000E+00  0.45593999997E+02  0.45594000000E+02  0.51100000000E-03 0.  1.
         11   -1    0    0    0    0 -0.00000000000E+00 -0.00000000000E+00 -0.45593999997E+02  0.45594000000E+02  0.51100000000E-03 0. -1.
    9900012    2    1    2    0    0 -0.51768688426E+01 -0.35721086777E+01  0.17638545449E+02  0.72461595728E+02  0.70000033132E+02 0.  0.
         12    1    1    2    0    0  0.51768688426E+01  0.35721086777E+01 -0.17638545449E+02  0.18726404272E+02  0.00000000000E+00 0. -1.
         11    1    3    3    0    0  0.70056665238E+01  0.12704279564E+02 -0.12667504317E+02  0.19259900014E+02  0.51100000000E-03 0. -1.
        -11    1    3    3    0    0  0.40478698836E+01 -0.14799141351E+01 -0.79765476939E+01  0.90664607105E+01  0.51100000000E-03 0.  1.
        -12    1    3    3    0    0 -0.16230405250E+02 -0.14796474107E+02  0.38282597459E+02  0.44135235003E+02  0.00000000000E+00 0.  1.
</event>
<event>
 7    1  0.2972263E-013  0.7246158E+02  0.7816164E-02  0.1226708E+00
        -11   -1    0    0    0    0  0.00000000000E+00  0.00000000000E+00  0.45593999997E+02  0.45594000000E+02  0.51100000000E-03 0.  1.
         11   -1    0    0    0    0 -0.00000000000E+00 -0.00000000000E+00 -0.45593999997E+02  0.45594000000E+02  0.51100000000E-03 0. -1.
    9900012    2    1    2    0    0  0.82898326759E+01 -0.13868699629E+02  0.94666031908E+01  0.72461581998E+02  0.70000015247E+02 0.  0.
         12    1    1    2    0    0 -0.82898326759E+01  0.13868699629E+02 -0.94666031908E+01  0.18726418002E+02  0.00000000000E+00 0. -1.
         11    1    3    3    0    0  0.14743044556E+02  0.18021677604E+02 -0.71955796235E+01  0.24370363001E+02  0.51100000000E-03 0. -1.
        -11    1    3    3    0    0  0.11915367095E+02 -0.13563669149E+02  0.16876803059E+01  0.18132770303E+02  0.51100000000E-03 0.  1.
        -12    1    3    3    0    0 -0.18368578975E+02 -0.18326708084E+02  0.14974502508E+02  0.29958448694E+02  0.00000000000E+00 0.  1.
</event>
<event>
 7    1  0.2972263E-013  0.7246155E+02  0.7816164E-02  0.1226708E+00
        -11   -1    0    0    0    0  0.00000000000E+00  0.00000000000E+00  0.45593999997E+02  0.45594000000E+02  0.51100000000E-03 0. -1.
         11   -1    0    0    0    0 -0.00000000000E+00 -0.00000000000E+00 -0.45593999997E+02  0.45594000000E+02  0.51100000000E-03 0.  1.
    9900012    2    1    2    0    0 -0.16908629961E+02  0.74772568917E+01 -0.29780215918E+01  0.72461554785E+02  0.69999979796E+02 0.  0.
         12    1    1    2    0    0  0.16908629961E+02 -0.74772568917E+01  0.29780215918E+01  0.18726445215E+02  0.00000000000E+00 0. -1.
         11    1    3    3    0    0 -0.91494124979E+01 -0.83737113488E+01 -0.14808387205E+02  0.19316291639E+02  0.51100000000E-03 0.  1.
        -11    1    3    3    0    0 -0.48923693944E+01  0.31523518953E+02 -0.21160178881E+01  0.31971003385E+02  0.51100000000E-03 0. -1.
         12    1    3    3    0    0 -0.28668480690E+01 -0.15672550712E+02  0.13946383501E+02  0.21174259761E+02  0.00000000000E+00 0. -1.
</event>
<event>
 7    1  0.2972263E-013  0.7246136E+02  0.7816164E-02  0.1226709E+00
        -11   -1    0    0    0    0  0.00000000000E+00  0.00000000000E+00  0.45593999997E+02  0.45594000000E+02  0.51100000000E-03 0.  1.
         11   -1    0    0    0    0 -0.00000000000E+00 -0.00000000000E+00 -0.45593999997E+02  0.45594000000E+02  0.51100000000E-03 0. -1.
    9900012    2    1    2    0    0 -0.12759906092E+02  0.66062787850E+01  0.12009527497E+02  0.72461364595E+02  0.69999732038E+02 0.  0.
         12    1    1    2    0    0  0.12759906092E+02 -0.66062787850E+01 -0.12009527497E+02  0.18726635405E+02  0.00000000000E+00 0. -1.
         11    1    3    3    0    0  0.20499655303E+02  0.10628166484E+02 -0.70474900160E+01  0.24142512424E+02  0.51100000000E-03 0. -1.
        -11    1    3    3    0    0  0.99736841258E+00  0.77677072469E+01  0.11817796530E+01  0.79201403418E+01  0.51100000000E-03 0.  1.
        -12    1    3    3    0    0 -0.34256929808E+02 -0.11789594946E+02  0.17875237860E+02  0.40398711829E+02  0.00000000000E+00 0.  1.
</event>
<event>
 7    1  0.2972263E-013  0.7246157E+02  0.7816164E-02  0.1226708E+00
        -11   -1    0    0    0    0  0.00000000000E+00  0.00000000000E+00  0.45593999997E+02  0.45594000000E+02  0.51100000000E-03 0. -1.
         11   -1    0    0    0    0 -0.00000000000E+00 -0.00000000000E+00 -0.45593999997E+02  0.45594000000E+02  0.51100000000E-03 0.  1.
    9900012    2    1    2    0    0  0.41130255088E+01 -0.10572206995E+02 -0.14899346058E+02  0.72461573418E+02  0.70000004069E+02 0.  0.
         12    1    1    2    0    0 -0.41130255088E+01  0.10572206995E+02  0.14899346058E+02  0.18726426582E+02  0.00000000000E+00 0. -1.
         11    1    3    3    0    0  0.70995520246E+01 -0.16939810573E+01  0.93213863991E+01  0.11838980338E+02  0.51100000000E-03 0. -1.
        -11    1    3    3    0    0  0.18856105830E+02  0.59988383810E+01 -0.27620621029E+02  0.33977014219E+02  0.51100000000E-03 0.  1.
         12    1    3    3    0    0 -0.21842632345E+02 -0.14877064319E+02  0.33998885721E+01  0.26645578861E+02  0.00000000000E+00 0. -1.
</event>
<event>
 7    1  0.2972263E-013  0.7246110E+02  0.7816164E-02  0.1226709E+00
        -11   -1    0    0    0    0  0.00000000000E+00  0.00000000000E+00  0.45593999997E+02  0.45594000000E+02  0.51100000000E-03 0. -1.
         11   -1    0    0    0    0 -0.00000000000E+00 -0.00000000000E+00 -0.45593999997E+02  0.45594000000E+02  0.51100000000E-03 0.  1.
    9900012    2    1    2    0    0  0.52947512651E+01  0.11149111187E+02 -0.14084029941E+02  0.72461095008E+02  0.69999380848E+02 0.  0.
         12    1    1    2    0    0 -0.52947512651E+01 -0.11149111187E+02  0.14084029941E+02  0.18726904992E+02  0.00000000000E+00 0. -1.
         11    1    3    3    0    0 -0.68222863900E+01 -0.42191547769E+01  0.21908515588E+02  0.23330836122E+02  0.51100000000E-03 0. -1.
        -11    1    3    3    0    0 -0.54680017476E+00  0.38837380713E+01  0.40213613662E+01  0.56172733008E+01  0.51100000000E-03 0.  1.
        -12    1    3    3    0    0  0.12663837830E+02  0.11484527892E+02 -0.40013906895E+02  0.43512985585E+02  0.00000000000E+00 0.  1.
</event>
<event>
 7    1  0.2972263E-013  0.7246186E+02  0.7816164E-02  0.1226707E+00
        -11   -1    0    0    0    0  0.00000000000E+00  0.00000000000E+00  0.45593999997E+02  0.45594000000E+02  0.51100000000E-03 0. -1.
         11   -1    0    0    0    0 -0.00000000000E+00 -0.00000000000E+00 -0.45593999997E+02  0.45594000000E+02  0.51100000000E-03 0.  1.
    9900012    2    1    2    0    0 -0.27497759310E+01 -0.12637802987E+02 -0.13542262687E+02  0.72461862900E+02  0.70000381172E+02 0.  0.
         12    1    1    2    0    0  0.27497759310E+01  0.12637802987E+02  0.13542262687E+02  0.18726137100E+02  0.00000000000E+00 0. -1.
         11    1    3    3    0    0  0.43511638857E+01 -0.12135560073E+02 -0.17165775541E+02  0.21467843292E+02  0.51100000000E-03 0. -1.
        -11    1    3    3    0    0  0.21819982232E+02 -0.19574489877E+01  0.15665899401E+01  0.21963547880E+02  0.51100000000E-03 0.  1.
         12    1    3    3    0    0 -0.28920922049E+02  0.14552060737E+01  0.20569229137E+01  0.29030471728E+02  0.00000000000E+00 0. -1.
</event>
<event>
 7    1  0.2972263E-013  0.7246168E+02  0.7816164E-02  0.1226708E+00
        -11   -1    0    0    0    0  0.00000000000E+00  0.00000000000E+00  0.45593999997E+02  0.45594000000E+02  0.51100000000E-03 0. -1.
         11   -1    0    0    0    0 -0.00000000000E+00 -0.00000000000E+00 -0.45593999997E+02  0.45594000000E+02  0.51100000000E-03 0.  1.
    9900012    2    1    2    0    0 -0.75211613868E+01 -0.16406471857E+02  0.49934968568E+01  0.72461676329E+02  0.70000138129E+02 0.  0.
         12    1    1    2    0    0  0.75211613868E+01  0.16406471857E+02 -0.49934968568E+01  0.18726323671E+02  0.00000000000E+00 0. -1.
         11    1    3    3    0    0 -0.15414452415E+02 -0.23059687072E+02 -0.12115878466E+02  0.30267953719E+02  0.51100000000E-03 0. -1.
        -11    1    3    3    0    0  0.16506989060E+02  0.17527210016E+02  0.71475707467E+01  0.25115165670E+02  0.51100000000E-03 0.  1.
         12    1    3    3    0    0 -0.86136980318E+01 -0.10873994802E+02  0.99618045759E+01  0.17078556940E+02  0.00000000000E+00 0. -1.
</event>
<event>
 7    1  0.2972263E-013  0.7246156E+02  0.7816164E-02  0.1226708E+00
        -11   -1    0    0    0    0  0.00000000000E+00  0.00000000000E+00  0.45593999997E+02  0.45594000000E+02  0.51100000000E-03 0.  1.
         11   -1    0    0    0    0 -0.00000000000E+00 -0.00000000000E+00 -0.45593999997E+02  0.45594000000E+02  0.51100000000E-03 0. -1.
    9900012    2    1    2    0    0  0.28240305185E+01  0.14785322097E+02  0.11139957229E+02  0.72461560271E+02  0.69999986942E+02 0.  0.
         12    1    1    2    0    0 -0.28240305185E+01 -0.14785322097E+02 -0.11139957229E+02  0.18726439729E+02  0.00000000000E+00 0. -1.
         11    1    3    3    0    0 -0.11169360722E+01  0.97955222143E+01 -0.69238848575E+01  0.12047405672E+02  0.51100000000E-03 0. -1.
        -11    1    3    3    0    0  0.55290014587E+01  0.30151851984E+02  0.17280731565E+02  0.35189880916E+02  0.51100000000E-03 0.  1.
         12    1    3    3    0    0 -0.15880348680E+01 -0.25162052102E+02  0.78311052131E+00  0.25224273683E+02  0.00000000000E+00 0. -1.
</event>
<event>
 7    1  0.2972263E-013  0.7246159E+02  0.7816164E-02  0.1226708E+00
        -11   -1    0    0    0    0  0.00000000000E+00  0.00000000000E+00  0.45593999997E+02  0.45594000000E+02  0.51100000000E-03 0. -1.
         11   -1    0    0    0    0 -0.00000000000E+00 -0.00000000000E+00 -0.45593999997E+02  0.45594000000E+02  0.51100000000E-03 0.  1.
    9900012    2    1    2    0    0 -0.15463417492E+02  0.88822503393E+01 -0.57154830785E+01  0.72461590882E+02  0.70000026820E+02 0.  0.
         12    1    1    2    0    0  0.15463417492E+02 -0.88822503393E+01  0.57154830785E+01  0.18726409118E+02  0.00000000000E+00 0. -1.
         11    1    3    3    0    0 -0.15854722562E+02  0.63251846233E+01  0.94883109107E+01  0.19529675682E+02  0.51100000000E-03 0. -1.
        -11    1    3    3    0    0  0.89536867871E+01 -0.11019214962E+02  0.13789325994E+02  0.19792349964E+02  0.51100000000E-03 0.  1.
         12    1    3    3    0    0 -0.85623817171E+01  0.13576280678E+02 -0.28993119983E+02  0.33139565237E+02  0.00000000000E+00 0. -1.
</event>
<event>
 7    1  0.2972263E-013  0.7246157E+02  0.7816164E-02  0.1226708E+00
        -11   -1    0    0    0    0  0.00000000000E+00  0.00000000000E+00  0.45593999997E+02  0.45594000000E+02  0.51100000000E-03 0.  1.
         11   -1    0    0    0    0 -0.00000000000E+00 -0.00000000000E+00 -0.45593999997E+02  0.45594000000E+02  0.51100000000E-03 0. -1.
    9900012    2    1    2    0    0  0.60455394699E+01  0.12212002290E+02  0.12845138835E+02  0.72461571107E+02  0.70000001058E+02 0.  0.
         12    1    1    2    0    0 -0.60455394699E+01 -0.12212002290E+02 -0.12845138835E+02  0.18726428893E+02  0.00000000000E+00 0. -1.
         11    1    3    3    0    0  0.22129265012E+02  0.89251513277E+01 -0.20346002993E+02  0.31357974014E+02  0.51100000000E-03 0. -1.
        -11    1    3    3    0    0  0.63277118070E+00  0.59708330570E+01  0.35703005431E+01  0.69855774987E+01  0.51100000000E-03 0.  1.
        -12    1    3    3    0    0 -0.16716496723E+02 -0.26839820950E+01  0.29620841285E+02  0.34118019594E+02  0.00000000000E+00 0.  1.
</event>
<event>
 7    1  0.2972263E-013  0.7246157E+02  0.7816164E-02  0.1226708E+00
        -11   -1    0    0    0    0  0.00000000000E+00  0.00000000000E+00  0.45593999997E+02  0.45594000000E+02  0.51100000000E-03 0.  1.
         11   -1    0    0    0    0 -0.00000000000E+00 -0.00000000000E+00 -0.45593999997E+02  0.45594000000E+02  0.51100000000E-03 0. -1.
    9900012    2    1    2    0    0 -0.39710978520E+01  0.17825642519E+02  0.41419806870E+01  0.72461570726E+02  0.70000000562E+02 0.  0.
         12    1    1    2    0    0  0.39710978520E+01 -0.17825642519E+02 -0.41419806870E+01  0.18726429274E+02  0.00000000000E+00 0. -1.
         11    1    3    3    0    0 -0.13661735906E+02  0.27139464978E+02  0.89548040137E+00  0.30397293838E+02  0.51100000000E-03 0. -1.
        -11    1    3    3    0    0  0.17248092091E+02 -0.45273648538E+01  0.17662040089E+02  0.25098632905E+02  0.51100000000E-03 0.  1.
         12    1    3    3    0    0 -0.75574540370E+01 -0.47864576051E+01 -0.14415539804E+02  0.16965643983E+02  0.00000000000E+00 0. -1.
</event>
<event>
 7    1  0.2972263E-013  0.7246156E+02  0.7816164E-02  0.1226708E+00
        -11   -1    0    0    0    0  0.00000000000E+00  0.00000000000E+00  0.45593999997E+02  0.45594000000E+02  0.51100000000E-03 0.  1.
         11   -1    0    0    0    0 -0.00000000000E+00 -0.00000000000E+00 -0.45593999997E+02  0.45594000000E+02  0.51100000000E-03 0. -1.
    9900012    2    1    2    0    0 -0.11122295960E+02 -0.14631740365E+02 -0.35897190474E+01  0.72461564771E+02  0.69999992805E+02 0.  0.
         12    1    1    2    0    0  0.11122295960E+02  0.14631740365E+02  0.35897190474E+01  0.18726435229E+02  0.00000000000E+00 0. -1.
         11    1    3    3    0    0 -0.17473070023E+02  0.13309127047E+02  0.25402460298E+01  0.22110945003E+02  0.51100000000E-03 0. -1.
        -11    1    3    3    0    0 -0.99865244937E+01 -0.30919736452E+02  0.42982963693E+00  0.32495315470E+02  0.51100000000E-03 0.  1.
         12    1    3    3    0    0  0.16337298557E+02  0.29788690393E+01 -0.65597947141E+01  0.17855304298E+02  0.00000000000E+00 0. -1.
</event>
<event>
 7    1  0.2972263E-013  0.7246146E+02  0.7816164E-02  0.1226708E+00
        -11   -1    0    0    0    0  0.00000000000E+00  0.00000000000E+00  0.45593999997E+02  0.45594000000E+02  0.51100000000E-03 0.  1.
         11   -1    0    0    0    0 -0.00000000000E+00 -0.00000000000E+00 -0.45593999997E+02  0.45594000000E+02  0.51100000000E-03 0. -1.
    9900012    2    1    2    0    0 -0.10225372914E+02  0.14667175223E+01  0.15619663120E+02  0.72461457674E+02  0.69999853291E+02 0.  0.
         12    1    1    2    0    0  0.10225372914E+02 -0.14667175223E+01 -0.15619663120E+02  0.18726542326E+02  0.00000000000E+00 0. -1.
         11    1    3    3    0    0  0.81545033321E+01  0.22072755190E+02  0.25338840660E+02  0.34579752638E+02  0.51100000000E-03 0. -1.
        -11    1    3    3    0    0  0.23991560294E+01  0.38354010680E+01 -0.92183589772E+00  0.46169289240E+01  0.51100000000E-03 0.  1.
        -12    1    3    3    0    0 -0.20779032276E+02 -0.24441438736E+02 -0.87973416423E+01  0.33264776112E+02  0.00000000000E+00 0.  1.
</event>
<event>
 7    1  0.2972263E-013  0.7246149E+02  0.7816164E-02  0.1226708E+00
        -11   -1    0    0    0    0  0.00000000000E+00  0.00000000000E+00  0.45593999997E+02  0.45594000000E+02  0.51100000000E-03 0.  1.
         11   -1    0    0    0    0 -0.00000000000E+00 -0.00000000000E+00 -0.45593999997E+02  0.45594000000E+02  0.51100000000E-03 0. -1.
    9900012    2    1    2    0    0 -0.16335383441E+02 -0.89735653150E+01 -0.18200459731E+01  0.72461489541E+02  0.69999894804E+02 0.  0.
         12    1    1    2    0    0  0.16335383441E+02  0.89735653150E+01  0.18200459731E+01  0.18726510459E+02  0.00000000000E+00 0. -1.
         11    1    3    3    0    0 -0.18367668237E+02 -0.10877983146E+02  0.40210253290E+01  0.21722578087E+02  0.51100000000E-03 0. -1.
        -11    1    3    3    0    0 -0.17648518558E+02  0.17000403851E+02  0.23512843357E+01  0.24617320664E+02  0.51100000000E-03 0.  1.
        -12    1    3    3    0    0  0.19680803354E+02 -0.15095986020E+02 -0.81923556378E+01  0.26121590791E+02  0.00000000000E+00 0.  1.
</event>
<event>
 7    1  0.2972263E-013  0.7246156E+02  0.7816164E-02  0.1226708E+00
        -11   -1    0    0    0    0  0.00000000000E+00  0.00000000000E+00  0.45593999997E+02  0.45594000000E+02  0.51100000000E-03 0.  1.
         11   -1    0    0    0    0 -0.00000000000E+00 -0.00000000000E+00 -0.45593999997E+02  0.45594000000E+02  0.51100000000E-03 0. -1.
    9900012    2    1    2    0    0  0.91874652701E+01 -0.30047131767E+01  0.16038760667E+02  0.72461557115E+02  0.69999982832E+02 0.  0.
         12    1    1    2    0    0 -0.91874652701E+01  0.30047131767E+01 -0.16038760667E+02  0.18726442885E+02  0.00000000000E+00 0. -1.
         11    1    3    3    0    0  0.28610031507E+02  0.96221667696E+01  0.41155948857E+01  0.30464046312E+02  0.51100000000E-03 0. -1.
        -11    1    3    3    0    0 -0.26602053473E+01  0.66541735900E+01 -0.71434635634E+01  0.10118487565E+02  0.51100000000E-03 0.  1.
        -12    1    3    3    0    0 -0.16762360890E+02 -0.19281053536E+02  0.19066629345E+02  0.31879023239E+02  0.00000000000E+00 0.  1.
</event>
<event>
 7    1  0.2972263E-013  0.7246160E+02  0.7816164E-02  0.1226708E+00
        -11   -1    0    0    0    0  0.00000000000E+00  0.00000000000E+00  0.45593999997E+02  0.45594000000E+02  0.51100000000E-03 0.  1.
         11   -1    0    0    0    0 -0.00000000000E+00 -0.00000000000E+00 -0.45593999997E+02  0.45594000000E+02  0.51100000000E-03 0. -1.
    9900012    2    1    2    0    0 -0.43421451053E+01 -0.12670452803E+02  0.13087529455E+02  0.72461600837E+02  0.70000039788E+02 0.  0.
         12    1    1    2    0    0  0.43421451053E+01  0.12670452803E+02 -0.13087529455E+02  0.18726399163E+02  0.00000000000E+00 0. -1.
         11    1    3    3    0    0  0.24235238048E+02 -0.76942929816E+01 -0.30131905814E+01  0.25605238242E+02  0.51100000000E-03 0. -1.
        -11    1    3    3    0    0 -0.24349984704E+01  0.43902345704E+01  0.18322640040E+02  0.18997960823E+02  0.51100000000E-03 0.  1.
         12    1    3    3    0    0 -0.26142384682E+02 -0.93663943923E+01 -0.22219200029E+01  0.27858401772E+02  0.00000000000E+00 0. -1.
</event>
<event>
 7    1  0.2972263E-013  0.7246159E+02  0.7816164E-02  0.1226708E+00
        -11   -1    0    0    0    0  0.00000000000E+00  0.00000000000E+00  0.45593999997E+02  0.45594000000E+02  0.51100000000E-03 0.  1.
         11   -1    0    0    0    0 -0.00000000000E+00 -0.00000000000E+00 -0.45593999997E+02  0.45594000000E+02  0.51100000000E-03 0. -1.
    9900012    2    1    2    0    0  0.55572059481E+01 -0.10990168792E+01  0.17849040165E+02  0.72461585210E+02  0.70000019431E+02 0.  0.
         12    1    1    2    0    0 -0.55572059481E+01  0.10990168792E+01 -0.17849040165E+02  0.18726414790E+02  0.00000000000E+00 0. -1.
         11    1    3    3    0    0 -0.68057701267E+00  0.13835817914E+02 -0.56274844424E+01  0.14951977255E+02  0.51100000000E-03 0. -1.
        -11    1    3    3    0    0 -0.11347278568E+02  0.11948439611E+02 -0.18788333355E+01  0.16584810972E+02  0.51100000000E-03 0.  1.
        -12    1    3    3    0    0  0.17585061529E+02 -0.26883274404E+02  0.25355357943E+02  0.40924796983E+02  0.00000000000E+00 0.  1.
</event>
<event>
 7    1  0.2972263E-013  0.7246153E+02  0.7816164E-02  0.1226708E+00
        -11   -1    0    0    0    0  0.00000000000E+00  0.00000000000E+00  0.45593999997E+02  0.45594000000E+02  0.51100000000E-03 0.  1.
         11   -1    0    0    0    0 -0.00000000000E+00 -0.00000000000E+00 -0.45593999997E+02  0.45594000000E+02  0.51100000000E-03 0. -1.
    9900012    2    1    2    0    0 -0.32402669636E+01 -0.15113430216E+02 -0.10571930083E+02  0.72461526531E+02  0.69999942990E+02 0.  0.
         12    1    1    2    0    0  0.32402669636E+01  0.15113430216E+02  0.10571930083E+02  0.18726473469E+02  0.00000000000E+00 0. -1.
         11    1    3    3    0    0 -0.10606063310E+02 -0.75020416272E+00  0.11459687562E+02  0.15632524572E+02  0.51100000000E-03 0.  1.
        -11    1    3    3    0    0  0.13621171524E+02 -0.25318248653E+02  0.28917582647E+01  0.28894848930E+02  0.51100000000E-03 0. -1.
         12    1    3    3    0    0 -0.62553751773E+01  0.10955022600E+02 -0.24923375909E+02  0.27934153030E+02  0.00000000000E+00 0. -1.
</event>
<event>
 7    1  0.2972263E-013  0.7246163E+02  0.7816164E-02  0.1226708E+00
        -11   -1    0    0    0    0  0.00000000000E+00  0.00000000000E+00  0.45593999997E+02  0.45594000000E+02  0.51100000000E-03 0.  1.
         11   -1    0    0    0    0 -0.00000000000E+00 -0.00000000000E+00 -0.45593999997E+02  0.45594000000E+02  0.51100000000E-03 0. -1.
    9900012    2    1    2    0    0  0.15510097102E+02 -0.10376419600E+02  0.15632817053E+01  0.72461627006E+02  0.70000073878E+02 0.  0.
         12    1    1    2    0    0 -0.15510097102E+02  0.10376419600E+02 -0.15632817053E+01  0.18726372994E+02  0.00000000000E+00 0. -1.
         11    1    3    3    0    0 -0.11032379833E+02 -0.16493176530E+02 -0.69497657250E+01  0.21024688362E+02  0.51100000000E-03 0. -1.
        -11    1    3    3    0    0 -0.66261136234E+01  0.32104929806E+01  0.15730132479E+02  0.17368065955E+02  0.51100000000E-03 0.  1.
        -12    1    3    3    0    0  0.33168590558E+02  0.29062639500E+01 -0.72170850489E+01  0.34068872690E+02  0.00000000000E+00 0.  1.
</event>
<event>
 7    1  0.2972263E-013  0.7246186E+02  0.7816164E-02  0.1226707E+00
        -11   -1    0    0    0    0  0.00000000000E+00  0.00000000000E+00  0.45593999997E+02  0.45594000000E+02  0.51100000000E-03 0.  1.
         11   -1    0    0    0    0 -0.00000000000E+00 -0.00000000000E+00 -0.45593999997E+02  0.45594000000E+02  0.51100000000E-03 0. -1.
    9900012    2    1    2    0    0  0.31701116773E+01  0.66856028241E+01  0.17202369366E+02  0.72461857712E+02  0.70000374414E+02 0.  0.
         12    1    1    2    0    0 -0.31701116773E+01 -0.66856028241E+01 -0.17202369366E+02  0.18726142288E+02  0.00000000000E+00 0. -1.
         11    1    3    3    0    0  0.18824591954E+02  0.31573575199E+02  0.13599112112E+02  0.39194282281E+02  0.51100000000E-03 0. -1.
        -11    1    3    3    0    0  0.22960270071E+01 -0.46096929193E+01 -0.21511344705E+01  0.55810741438E+01  0.51100000000E-03 0.  1.
        -12    1    3    3    0    0 -0.17950507283E+02 -0.20278279455E+02  0.57543917243E+01  0.27686501287E+02  0.00000000000E+00 0.  1.
</event>
<event>
 7    1  0.2972263E-013  0.7246159E+02  0.7816164E-02  0.1226708E+00
        -11   -1    0    0    0    0  0.00000000000E+00  0.00000000000E+00  0.45593999997E+02  0.45594000000E+02  0.51100000000E-03 0.  1.
         11   -1    0    0    0    0 -0.00000000000E+00 -0.00000000000E+00 -0.45593999997E+02  0.45594000000E+02  0.51100000000E-03 0. -1.
    9900012    2    1    2    0    0 -0.14321385145E+02  0.12911083249E+01  0.11996227803E+02  0.72461587779E+02  0.70000022777E+02 0.  0.
         12    1    1    2    0    0  0.14321385145E+02 -0.12911083249E+01 -0.11996227803E+02  0.18726412221E+02  0.00000000000E+00 0. -1.
         11    1    3    3    0    0  0.95551132519E+01 -0.40378468292E+01  0.31459144345E+01  0.10839795854E+02  0.51100000000E-03 0. -1.
        -11    1    3    3    0    0 -0.14135331538E+02 -0.16640989968E+02  0.24596963018E+02  0.32889827223E+02  0.51100000000E-03 0.  1.
        -12    1    3    3    0    0 -0.97411668591E+01  0.21969945122E+02 -0.15746649649E+02  0.28731964701E+02  0.00000000000E+00 0.  1.
</event>
<event>
 7    1  0.2972263E-013  0.7246156E+02  0.7816164E-02  0.1226708E+00
        -11   -1    0    0    0    0  0.00000000000E+00  0.00000000000E+00  0.45593999997E+02  0.45594000000E+02  0.51100000000E-03 0. -1.
         11   -1    0    0    0    0 -0.00000000000E+00 -0.00000000000E+00 -0.45593999997E+02  0.45594000000E+02  0.51100000000E-03 0.  1.
    9900012    2    1    2    0    0 -0.58407235518E+01  0.13350629095E+01 -0.17742127753E+02  0.72461560355E+02  0.69999987052E+02 0.  0.
         12    1    1    2    0    0  0.58407235518E+01 -0.13350629095E+01  0.17742127753E+02  0.18726439645E+02  0.00000000000E+00 0. -1.
         11    1    3    3    0    0 -0.10189415186E+02  0.10844864889E+01  0.11299771246E+02  0.15254019905E+02  0.51100000000E-03 0. -1.
        -11    1    3    3    0    0 -0.55060070639E+01  0.18591201079E+02  0.23577187658E+01  0.19532222336E+02  0.51100000000E-03 0.  1.
        -12    1    3    3    0    0  0.98546986984E+01 -0.18340624658E+02 -0.31399617764E+02  0.37675318115E+02  0.00000000000E+00 0.  1.
</event>
<event>
 7    1  0.2972263E-013  0.7246185E+02  0.7816164E-02  0.1226707E+00
        -11   -1    0    0    0    0  0.00000000000E+00  0.00000000000E+00  0.45593999997E+02  0.45594000000E+02  0.51100000000E-03 0.  1.
         11   -1    0    0    0    0 -0.00000000000E+00 -0.00000000000E+00 -0.45593999997E+02  0.45594000000E+02  0.51100000000E-03 0. -1.
    9900012    2    1    2    0    0  0.16969302251E+02  0.61354495048E+01 -0.50067803471E+01  0.72461846926E+02  0.70000360363E+02 0.  0.
         12    1    1    2    0    0 -0.16969302251E+02 -0.61354495048E+01  0.50067803471E+01  0.18726153074E+02  0.00000000000E+00 0. -1.
         11    1    3    3    0    0  0.72742790912E+01  0.12885888574E+02 -0.18569866720E+02  0.23744498539E+02  0.51100000000E-03 0. -1.
        -11    1    3    3    0    0  0.14860056867E+02  0.29341894303E+01 -0.13009668302E+02  0.19967028504E+02  0.51100000000E-03 0.  1.
        -12    1    3    3    0    0 -0.51650337075E+01 -0.96846284998E+01  0.26572754674E+02  0.28750319882E+02  0.00000000000E+00 0.  1.
</event>
<event>
 7    1  0.2972263E-013  0.7246172E+02  0.7816164E-02  0.1226708E+00
        -11   -1    0    0    0    0  0.00000000000E+00  0.00000000000E+00  0.45593999997E+02  0.45594000000E+02  0.51100000000E-03 0. -1.
         11   -1    0    0    0    0 -0.00000000000E+00 -0.00000000000E+00 -0.45593999997E+02  0.45594000000E+02  0.51100000000E-03 0.  1.
    9900012    2    1    2    0    0  0.18359016664E+02  0.21353007757E+01 -0.30100515519E+01  0.72461724006E+02  0.70000200237E+02 0.  0.
         12    1    1    2    0    0 -0.18359016664E+02 -0.21353007757E+01  0.30100515519E+01  0.18726275994E+02  0.00000000000E+00 0. -1.
         11    1    3    3    0    0 -0.65107661015E+01  0.43835403718E+01  0.27442371220E+01  0.83148264602E+01  0.51100000000E-03 0. -1.
        -11    1    3    3    0    0 -0.35104168514E+00  0.25732384018E+02 -0.62141193110E+01  0.26474404556E+02  0.51100000000E-03 0.  1.
         12    1    3    3    0    0  0.25220824451E+02 -0.27980623614E+02  0.45983063710E+00  0.37672492989E+02  0.00000000000E+00 0. -1.
</event>
<event>
 7    1  0.2972263E-013  0.7246133E+02  0.7816164E-02  0.1226709E+00
        -11   -1    0    0    0    0  0.00000000000E+00  0.00000000000E+00  0.45593999997E+02  0.45594000000E+02  0.51100000000E-03 0. -1.
         11   -1    0    0    0    0 -0.00000000000E+00 -0.00000000000E+00 -0.45593999997E+02  0.45594000000E+02  0.51100000000E-03 0.  1.
    9900012    2    1    2    0    0 -0.18019770945E+02 -0.41241217606E+01  0.29945876677E+01  0.72461332370E+02  0.69999690059E+02 0.  0.
         12    1    1    2    0    0  0.18019770945E+02  0.41241217606E+01 -0.29945876677E+01  0.18726667630E+02  0.00000000000E+00 0. -1.
         11    1    3    3    0    0  0.76724706466E+00  0.18280881303E+02  0.19445602097E+02  0.26700388208E+02  0.51100000000E-03 0.  1.
        -11    1    3    3    0    0 -0.15949694105E+01 -0.14048036880E+02  0.67770055180E+01  0.15678618296E+02  0.51100000000E-03 0. -1.
        -12    1    3    3    0    0 -0.17192048599E+02 -0.83569661837E+01 -0.23228019947E+02  0.30082325866E+02  0.00000000000E+00 0.  1.
</event>
<event>
 7    1  0.2972263E-013  0.7246153E+02  0.7816164E-02  0.1226708E+00
        -11   -1    0    0    0    0  0.00000000000E+00  0.00000000000E+00  0.45593999997E+02  0.45594000000E+02  0.51100000000E-03 0.  1.
         11   -1    0    0    0    0 -0.00000000000E+00 -0.00000000000E+00 -0.45593999997E+02  0.45594000000E+02  0.51100000000E-03 0. -1.
    9900012    2    1    2    0    0  0.13204894663E+02 -0.11246439082E+02  0.70589598641E+01  0.72461533450E+02  0.69999952004E+02 0.  0.
         12    1    1    2    0    0 -0.13204894663E+02  0.11246439082E+02 -0.70589598641E+01  0.18726466550E+02  0.00000000000E+00 0. -1.
         11    1    3    3    0    0 -0.11229388818E+02 -0.95562822313E+01  0.21149835230E+02  0.25782498595E+02  0.51100000000E-03 0. -1.
        -11    1    3    3    0    0 -0.16960186914E+01  0.70653673193E+01  0.84011022524E+01  0.11107403570E+02  0.51100000000E-03 0.  1.
        -12    1    3    3    0    0  0.26130302172E+02 -0.87555241697E+01 -0.22491977618E+02  0.35571631285E+02  0.00000000000E+00 0.  1.
</event>
<event>
 7    1  0.2972263E-013  0.7246160E+02  0.7816164E-02  0.1226708E+00
        -11   -1    0    0    0    0  0.00000000000E+00  0.00000000000E+00  0.45593999997E+02  0.45594000000E+02  0.51100000000E-03 0. -1.
         11   -1    0    0    0    0 -0.00000000000E+00 -0.00000000000E+00 -0.45593999997E+02  0.45594000000E+02  0.51100000000E-03 0.  1.
    9900012    2    1    2    0    0  0.12407887504E+02 -0.15158143514E+01 -0.13943629086E+02  0.72461597314E+02  0.70000035198E+02 0.  0.
         12    1    1    2    0    0 -0.12407887504E+02  0.15158143514E+01  0.13943629086E+02  0.18726402686E+02  0.00000000000E+00 0. -1.
         11    1    3    3    0    0  0.14955016771E+02 -0.42439032604E+01 -0.17634096731E+02  0.23507969059E+02  0.51100000000E-03 0. -1.
        -11    1    3    3    0    0  0.10084395798E+02 -0.19395471608E+02 -0.42488821782E+01  0.22269538782E+02  0.51100000000E-03 0.  1.
         12    1    3    3    0    0 -0.12631525064E+02  0.22123560517E+02  0.79393498232E+01  0.26684089474E+02  0.00000000000E+00 0. -1.
</event>
<event>
 7    1  0.2972263E-013  0.7246155E+02  0.7816164E-02  0.1226708E+00
        -11   -1    0    0    0    0  0.00000000000E+00  0.00000000000E+00  0.45593999997E+02  0.45594000000E+02  0.51100000000E-03 0. -1.
         11   -1    0    0    0    0 -0.00000000000E+00 -0.00000000000E+00 -0.45593999997E+02  0.45594000000E+02  0.51100000000E-03 0.  1.
    9900012    2    1    2    0    0  0.93548216090E+01 -0.10092071434E+02 -0.12701079098E+02  0.72461548029E+02  0.69999970996E+02 0.  0.
         12    1    1    2    0    0 -0.93548216090E+01  0.10092071434E+02  0.12701079098E+02  0.18726451971E+02  0.00000000000E+00 0. -1.
         11    1    3    3    0    0 -0.19678549536E+02  0.62683530752E+01 -0.28581418599E+02  0.35262374445E+02  0.51100000000E-03 0. -1.
        -11    1    3    3    0    0  0.63302970308E+01 -0.17571223062E+01  0.41185301091E+01  0.77538654759E+01  0.51100000000E-03 0.  1.
        -12    1    3    3    0    0  0.22703074114E+02 -0.14603302203E+02  0.11761809392E+02  0.29445308109E+02  0.00000000000E+00 0.  1.
</event>
<event>
 7    1  0.2972263E-013  0.7246156E+02  0.7816164E-02  0.1226708E+00
        -11   -1    0    0    0    0  0.00000000000E+00  0.00000000000E+00  0.45593999997E+02  0.45594000000E+02  0.51100000000E-03 0.  1.
         11   -1    0    0    0    0 -0.00000000000E+00 -0.00000000000E+00 -0.45593999997E+02  0.45594000000E+02  0.51100000000E-03 0. -1.
    9900012    2    1    2    0    0 -0.97592942977E+01  0.15235695334E+02 -0.48279601743E+01  0.72461563154E+02  0.69999990699E+02 0.  0.
         12    1    1    2    0    0  0.97592942977E+01 -0.15235695334E+02  0.48279601743E+01  0.18726436846E+02  0.00000000000E+00 0. -1.
         11    1    3    3    0    0 -0.10998442052E+02 -0.22784962300E+02 -0.36531811908E+01  0.25562980415E+02  0.51100000000E-03 0. -1.
        -11    1    3    3    0    0  0.45203741678E+01  0.65356654534E+01  0.10491886693E+02  0.13161625742E+02  0.51100000000E-03 0.  1.
        -12    1    3    3    0    0 -0.32812264132E+01  0.31484992181E+02 -0.11666665677E+02  0.33736956997E+02  0.00000000000E+00 0.  1.
</event>
<event>
 7    1  0.2972263E-013  0.7246162E+02  0.7816164E-02  0.1226708E+00
        -11   -1    0    0    0    0  0.00000000000E+00  0.00000000000E+00  0.45593999997E+02  0.45594000000E+02  0.51100000000E-03 0.  1.
         11   -1    0    0    0    0 -0.00000000000E+00 -0.00000000000E+00 -0.45593999997E+02  0.45594000000E+02  0.51100000000E-03 0. -1.
    9900012    2    1    2    0    0 -0.76973187280E+01  0.13908400103E+02  0.98987406691E+01  0.72461618185E+02  0.70000062387E+02 0.  0.
         12    1    1    2    0    0  0.76973187280E+01 -0.13908400103E+02 -0.98987406691E+01  0.18726381815E+02  0.00000000000E+00 0. -1.
         11    1    3    3    0    0  0.31699932258E+01  0.30338545424E+02 -0.11469296564E+01  0.30525262381E+02  0.51100000000E-03 0. -1.
        -11    1    3    3    0    0  0.18002720421E+01 -0.10201067418E+02 -0.11410975830E+02  0.15411460850E+02  0.51100000000E-03 0.  1.
        -12    1    3    3    0    0 -0.12667583996E+02 -0.62290779028E+01  0.22456646155E+02  0.26524894955E+02  0.00000000000E+00 0.  1.
</event>
<event>
 7    1  0.2972263E-013  0.7246155E+02  0.7816164E-02  0.1226708E+00
        -11   -1    0    0    0    0  0.00000000000E+00  0.00000000000E+00  0.45593999997E+02  0.45594000000E+02  0.51100000000E-03 0. -1.
         11   -1    0    0    0    0 -0.00000000000E+00 -0.00000000000E+00 -0.45593999997E+02  0.45594000000E+02  0.51100000000E-03 0.  1.
    9900012    2    1    2    0    0 -0.74257062448E+01  0.44474459729E+01 -0.16605996552E+02  0.72461547843E+02  0.69999970753E+02 0.  0.
         12    1    1    2    0    0  0.74257062448E+01 -0.44474459729E+01  0.16605996552E+02  0.18726452157E+02  0.00000000000E+00 0. -1.
         11    1    3    3    0    0 -0.27427983910E+00  0.84056255717E+00 -0.36903917272E+01  0.37948341471E+01  0.51100000000E-03 0. -1.
        -11    1    3    3    0    0  0.29886577016E+02  0.11040558232E+01 -0.20050301441E+01  0.29974098337E+02  0.51100000000E-03 0.  1.
         12    1    3    3    0    0 -0.37038003422E+02  0.25028275926E+01 -0.10910574680E+02  0.38692615359E+02  0.00000000000E+00 0. -1.
</event>
<event>
 7    1  0.2972263E-013  0.7246162E+02  0.7816164E-02  0.1226708E+00
        -11   -1    0    0    0    0  0.00000000000E+00  0.00000000000E+00  0.45593999997E+02  0.45594000000E+02  0.51100000000E-03 0.  1.
         11   -1    0    0    0    0 -0.00000000000E+00 -0.00000000000E+00 -0.45593999997E+02  0.45594000000E+02  0.51100000000E-03 0. -1.
    9900012    2    1    2    0    0  0.15983825496E+02  0.93055345364E+01  0.29328440737E+01  0.72461622218E+02  0.70000067640E+02 0.  0.
         12    1    1    2    0    0 -0.15983825496E+02 -0.93055345364E+01 -0.29328440737E+01  0.18726377782E+02  0.00000000000E+00 0. -1.
         11    1    3    3    0    0  0.23833154225E+02  0.16388620301E+00 -0.63205837501E+01  0.24657572431E+02  0.51100000000E-03 0. -1.
        -11    1    3    3    0    0 -0.21651453533E+01  0.18372125540E+02 -0.13297735608E+02  0.22782726435E+02  0.51100000000E-03 0.  1.
        -12    1    3    3    0    0 -0.56841833760E+01 -0.92304772064E+01  0.22551163432E+02  0.25021323351E+02  0.00000000000E+00 0.  1.
</event>
<event>
 7    1  0.2972263E-013  0.7246163E+02  0.7816164E-02  0.1226708E+00
        -11   -1    0    0    0    0  0.00000000000E+00  0.00000000000E+00  0.45593999997E+02  0.45594000000E+02  0.51100000000E-03 0. -1.
         11   -1    0    0    0    0 -0.00000000000E+00 -0.00000000000E+00 -0.45593999997E+02  0.45594000000E+02  0.51100000000E-03 0.  1.
    9900012    2    1    2    0    0  0.84317588045E+01 -0.11722042202E+02  0.11923755651E+02  0.72461634129E+02  0.70000083156E+02 0.  0.
         12    1    1    2    0    0 -0.84317588045E+01  0.11722042202E+02 -0.11923755651E+02  0.18726365871E+02  0.00000000000E+00 0. -1.
         11    1    3    3    0    0  0.88679525665E+01 -0.33387486059E+01  0.81275373709E+01  0.12483777031E+02  0.51100000000E-03 0. -1.
        -11    1    3    3    0    0  0.49611386976E+01 -0.25722329537E+02 -0.17867557748E+02  0.31709631883E+02  0.51100000000E-03 0.  1.
         12    1    3    3    0    0 -0.53973324596E+01  0.17339035941E+02  0.21663776028E+02  0.28268225215E+02  0.00000000000E+00 0. -1.
</event>
<event>
 7    1  0.2972263E-013  0.7246159E+02  0.7816164E-02  0.1226708E+00
        -11   -1    0    0    0    0  0.00000000000E+00  0.00000000000E+00  0.45593999997E+02  0.45594000000E+02  0.51100000000E-03 0.  1.
         11   -1    0    0    0    0 -0.00000000000E+00 -0.00000000000E+00 -0.45593999997E+02  0.45594000000E+02  0.51100000000E-03 0. -1.
    9900012    2    1    2    0    0 -0.65534459144E+01  0.93786207646E+01  0.14824718006E+02  0.72461589646E+02  0.70000025209E+02 0.  0.
         12    1    1    2    0    0  0.65534459144E+01 -0.93786207646E+01 -0.14824718006E+02  0.18726410354E+02  0.00000000000E+00 0. -1.
         11    1    3    3    0    0 -0.85746433340E+01 -0.18013461271E+02 -0.84158152200E+00  0.19967913136E+02  0.51100000000E-03 0. -1.
        -11    1    3    3    0    0 -0.19615560045E+02  0.16730392837E+02  0.10428312617E+02  0.27810536576E+02  0.51100000000E-03 0.  1.
         12    1    3    3    0    0  0.21636757464E+02  0.10661689199E+02  0.52379869109E+01  0.24683139934E+02  0.00000000000E+00 0. -1.
</event>
<event>
 7    1  0.2972263E-013  0.7246156E+02  0.7816164E-02  0.1226708E+00
        -11   -1    0    0    0    0  0.00000000000E+00  0.00000000000E+00  0.45593999997E+02  0.45594000000E+02  0.51100000000E-03 0.  1.
         11   -1    0    0    0    0 -0.00000000000E+00 -0.00000000000E+00 -0.45593999997E+02  0.45594000000E+02  0.51100000000E-03 0. -1.
    9900012    2    1    2    0    0  0.48190284323E+01 -0.76229116267E+01  0.16411818347E+02  0.72461558849E+02  0.69999985091E+02 0.  0.
         12    1    1    2    0    0 -0.48190284323E+01  0.76229116267E+01 -0.16411818347E+02  0.18726441151E+02  0.00000000000E+00 0. -1.
         11    1    3    3    0    0 -0.25387424277E+02  0.36681679781E+01  0.41949581466E+01  0.25991814901E+02  0.51100000000E-03 0. -1.
        -11    1    3    3    0    0 -0.31669227482E+01 -0.11011176063E+02  0.28883412210E+01  0.11816002423E+02  0.51100000000E-03 0.  1.
        -12    1    3    3    0    0  0.33373375457E+02 -0.27990354153E+00  0.93285189797E+01  0.34653741526E+02  0.00000000000E+00 0.  1.
</event>
<event>
 7    1  0.2972263E-013  0.7246159E+02  0.7816164E-02  0.1226708E+00
        -11   -1    0    0    0    0  0.00000000000E+00  0.00000000000E+00  0.45593999997E+02  0.45594000000E+02  0.51100000000E-03 0.  1.
         11   -1    0    0    0    0 -0.00000000000E+00 -0.00000000000E+00 -0.45593999997E+02  0.45594000000E+02  0.51100000000E-03 0. -1.
    9900012    2    1    2    0    0 -0.38357599075E+01  0.15591398642E+02  0.96370930557E+01  0.72461592756E+02  0.70000029261E+02 0.  0.
         12    1    1    2    0    0  0.38357599075E+01 -0.15591398642E+02 -0.96370930557E+01  0.18726407244E+02  0.00000000000E+00 0. -1.
         11    1    3    3    0    0  0.14864052836E+02  0.28582467438E+02  0.83670948969E+01  0.33285218774E+02  0.51100000000E-03 0. -1.
        -11    1    3    3    0    0 -0.71150010611E+01 -0.70810260267E+01  0.16398066625E+02  0.19226563889E+02  0.51100000000E-03 0.  1.
         12    1    3    3    0    0 -0.11584811682E+02 -0.59100427691E+01 -0.15128068466E+02  0.19949810093E+02  0.00000000000E+00 0. -1.
</event>
<event>
 7    1  0.2972263E-013  0.7246159E+02  0.7816164E-02  0.1226708E+00
        -11   -1    0    0    0    0  0.00000000000E+00  0.00000000000E+00  0.45593999997E+02  0.45594000000E+02  0.51100000000E-03 0.  1.
         11   -1    0    0    0    0 -0.00000000000E+00 -0.00000000000E+00 -0.45593999997E+02  0.45594000000E+02  0.51100000000E-03 0. -1.
    9900012    2    1    2    0    0 -0.10278969233E+02  0.12300676581E+02 -0.96806276032E+01  0.72461590744E+02  0.70000026639E+02 0.  0.
         12    1    1    2    0    0  0.10278969233E+02 -0.12300676581E+02  0.96806276032E+01  0.18726409256E+02  0.00000000000E+00 0. -1.
         11    1    3    3    0    0  0.18753599894E+02  0.56662772360E+00  0.45926507420E+01  0.19316081825E+02  0.51100000000E-03 0. -1.
        -11    1    3    3    0    0  0.34151774926E+01 -0.62598565524E+00  0.10128079955E+02  0.10706694129E+02  0.51100000000E-03 0.  1.
         12    1    3    3    0    0 -0.32447746620E+02  0.12360034512E+02 -0.24401358300E+02  0.42438814790E+02  0.00000000000E+00 0. -1.
</event>
<event>
 7    1  0.2972263E-013  0.7246157E+02  0.7816164E-02  0.1226708E+00
        -11   -1    0    0    0    0  0.00000000000E+00  0.00000000000E+00  0.45593999997E+02  0.45594000000E+02  0.51100000000E-03 0.  1.
         11   -1    0    0    0    0 -0.00000000000E+00 -0.00000000000E+00 -0.45593999997E+02  0.45594000000E+02  0.51100000000E-03 0. -1.
    9900012    2    1    2    0    0 -0.86025390420E+01  0.69077694653E+01  0.15131364602E+02  0.72461570771E+02  0.70000000621E+02 0.  0.
         12    1    1    2    0    0  0.86025390420E+01 -0.69077694653E+01 -0.15131364602E+02  0.18726429229E+02  0.00000000000E+00 0. -1.
         11    1    3    3    0    0  0.14310033273E+01  0.29822032199E+02 -0.12889187664E+02  0.32519725305E+02  0.51100000000E-03 0. -1.
        -11    1    3    3    0    0  0.13355733412E+01 -0.47376253110E+01  0.34616670567E+00  0.49344383050E+01  0.51100000000E-03 0.  1.
        -12    1    3    3    0    0 -0.11369115711E+02 -0.18176637423E+02  0.27674385560E+02  0.35007407161E+02  0.00000000000E+00 0.  1.
</event>
<event>
 7    1  0.2972263E-013  0.7246145E+02  0.7816164E-02  0.1226708E+00
        -11   -1    0    0    0    0  0.00000000000E+00  0.00000000000E+00  0.45593999997E+02  0.45594000000E+02  0.51100000000E-03 0.  1.
         11   -1    0    0    0    0 -0.00000000000E+00 -0.00000000000E+00 -0.45593999997E+02  0.45594000000E+02  0.51100000000E-03 0. -1.
    9900012    2    1    2    0    0  0.67875267863E+01 -0.12736877435E+02  0.11932516309E+02  0.72461454346E+02  0.69999848955E+02 0.  0.
         12    1    1    2    0    0 -0.67875267863E+01  0.12736877435E+02 -0.11932516309E+02  0.18726545654E+02  0.00000000000E+00 0. -1.
         11    1    3    3    0    0  0.22192421173E+01 -0.70683653149E+01  0.64056420626E+01  0.97938283779E+01  0.51100000000E-03 0. -1.
        -11    1    3    3    0    0  0.29357275172E+02 -0.81117383163E+01 -0.11433457867E+02  0.32532658408E+02  0.51100000000E-03 0.  1.
         12    1    3    3    0    0 -0.24788990503E+02  0.24432261957E+01  0.16960332114E+02  0.30134967560E+02  0.00000000000E+00 0. -1.
</event>
<event>
 7    1  0.2972263E-013  0.7246154E+02  0.7816164E-02  0.1226708E+00
        -11   -1    0    0    0    0  0.00000000000E+00  0.00000000000E+00  0.45593999997E+02  0.45594000000E+02  0.51100000000E-03 0. -1.
         11   -1    0    0    0    0 -0.00000000000E+00 -0.00000000000E+00 -0.45593999997E+02  0.45594000000E+02  0.51100000000E-03 0.  1.
    9900012    2    1    2    0    0 -0.11328226173E+02 -0.62977411476E+01 -0.13516285818E+02  0.72461541870E+02  0.69999962972E+02 0.  0.
         12    1    1    2    0    0  0.11328226173E+02  0.62977411476E+01  0.13516285818E+02  0.18726458130E+02  0.00000000000E+00 0. -1.
         11    1    3    3    0    0 -0.17257374410E+02 -0.47629814314E+01 -0.43955312058E+01  0.18434306564E+02  0.51100000000E-03 0. -1.
        -11    1    3    3    0    0 -0.18983582928E+00 -0.26462026848E+02 -0.10141956644E+02  0.28339622216E+02  0.51100000000E-03 0.  1.
         12    1    3    3    0    0  0.61189840665E+01  0.24927267131E+02  0.10212020315E+01  0.25687613090E+02  0.00000000000E+00 0. -1.
</event>
<event>
 7    1  0.2972263E-013  0.7246160E+02  0.7816164E-02  0.1226708E+00
        -11   -1    0    0    0    0  0.00000000000E+00  0.00000000000E+00  0.45593999997E+02  0.45594000000E+02  0.51100000000E-03 0.  1.
         11   -1    0    0    0    0 -0.00000000000E+00 -0.00000000000E+00 -0.45593999997E+02  0.45594000000E+02  0.51100000000E-03 0. -1.
    9900012    2    1    2    0    0  0.13413570221E+02  0.12586587498E+02  0.35117131446E+01  0.72461596711E+02  0.70000034413E+02 0.  0.
         12    1    1    2    0    0 -0.13413570221E+02 -0.12586587498E+02 -0.35117131446E+01  0.18726403289E+02  0.00000000000E+00 0. -1.
         11    1    3    3    0    0 -0.38235020336E+00 -0.12730423913E+00  0.13202504841E+02  0.13208653693E+02  0.51100000000E-03 0. -1.
        -11    1    3    3    0    0  0.29387293140E+02  0.17354309223E+02  0.81712785505E+01  0.35093515642E+02  0.51100000000E-03 0.  1.
         12    1    3    3    0    0 -0.15591372716E+02 -0.46404174862E+01 -0.17862070247E+02  0.24159427376E+02  0.00000000000E+00 0. -1.
</event>
<event>
 7    1  0.2972263E-013  0.7246156E+02  0.7816164E-02  0.1226708E+00
        -11   -1    0    0    0    0  0.00000000000E+00  0.00000000000E+00  0.45593999997E+02  0.45594000000E+02  0.51100000000E-03 0. -1.
         11   -1    0    0    0    0 -0.00000000000E+00 -0.00000000000E+00 -0.45593999997E+02  0.45594000000E+02  0.51100000000E-03 0.  1.
    9900012    2    1    2    0    0 -0.13726396049E+02 -0.12722903195E+02 -0.62703595440E+00  0.72461564453E+02  0.69999992391E+02 0.  0.
         12    1    1    2    0    0  0.13726396049E+02  0.12722903195E+02  0.62703595440E+00  0.18726435547E+02  0.00000000000E+00 0. -1.
         11    1    3    3    0    0 -0.13912356688E+02 -0.12835508834E+02  0.29935414646E+02  0.35417975745E+02  0.51100000000E-03 0. -1.
        -11    1    3    3    0    0 -0.74378259897E+01  0.70026048501E+01 -0.11456648045E+02  0.15349674747E+02  0.51100000000E-03 0.  1.
        -12    1    3    3    0    0  0.76237866281E+01 -0.68899992106E+01 -0.19105802555E+02  0.21693913961E+02  0.00000000000E+00 0.  1.
</event>
<event>
 7    1  0.2972263E-013  0.7246158E+02  0.7816164E-02  0.1226708E+00
        -11   -1    0    0    0    0  0.00000000000E+00  0.00000000000E+00  0.45593999997E+02  0.45594000000E+02  0.51100000000E-03 0.  1.
         11   -1    0    0    0    0 -0.00000000000E+00 -0.00000000000E+00 -0.45593999997E+02  0.45594000000E+02  0.51100000000E-03 0. -1.
    9900012    2    1    2    0    0  0.98397343497E+01  0.33227013388E+01  0.15582617537E+02  0.72461583216E+02  0.70000016833E+02 0.  0.
         12    1    1    2    0    0 -0.98397343497E+01 -0.33227013388E+01 -0.15582617537E+02  0.18726416784E+02  0.00000000000E+00 0. -1.
         11    1    3    3    0    0  0.17066933663E+02 -0.27255847693E+02  0.11906738270E+01  0.32180415823E+02  0.51100000000E-03 0. -1.
        -11    1    3    3    0    0 -0.70323062935E+01  0.72260576767E+00  0.59875617547E+01  0.92642531770E+01  0.51100000000E-03 0.  1.
        -12    1    3    3    0    0 -0.19489302001E+00  0.29855943264E+02  0.84043819554E+01  0.31016914216E+02  0.00000000000E+00 0.  1.
</event>
<event>
 7    1  0.2972263E-013  0.7246159E+02  0.7816164E-02  0.1226708E+00
        -11   -1    0    0    0    0  0.00000000000E+00  0.00000000000E+00  0.45593999997E+02  0.45594000000E+02  0.51100000000E-03 0.  1.
         11   -1    0    0    0    0 -0.00000000000E+00 -0.00000000000E+00 -0.45593999997E+02  0.45594000000E+02  0.51100000000E-03 0. -1.
    9900012    2    1    2    0    0  0.78390171765E+01  0.56418091327E+01  0.16043635352E+02  0.72461589882E+02  0.70000025517E+02 0.  0.
         12    1    1    2    0    0 -0.78390171765E+01 -0.56418091327E+01 -0.16043635352E+02  0.18726410118E+02  0.00000000000E+00 0. -1.
         11    1    3    3    0    0  0.14451514500E+01  0.99009808733E+00 -0.18901119284E+02  0.18982124944E+02  0.51100000000E-03 0. -1.
        -11    1    3    3    0    0  0.62002460728E+01  0.58042414046E+01 -0.73117084603E+01  0.11206843914E+02  0.51100000000E-03 0.  1.
        -12    1    3    3    0    0  0.19361965365E+00 -0.11525303592E+01  0.42256463097E+02  0.42272621024E+02  0.00000000000E+00 0.  1.
</event>
<event>
 7    1  0.2972263E-013  0.7246156E+02  0.7816164E-02  0.1226708E+00
        -11   -1    0    0    0    0  0.00000000000E+00  0.00000000000E+00  0.45593999997E+02  0.45594000000E+02  0.51100000000E-03 0. -1.
         11   -1    0    0    0    0 -0.00000000000E+00 -0.00000000000E+00 -0.45593999997E+02  0.45594000000E+02  0.51100000000E-03 0.  1.
    9900012    2    1    2    0    0 -0.15516666686E+02 -0.61972521141E+01  0.84561522638E+01  0.72461564410E+02  0.69999992335E+02 0.  0.
         12    1    1    2    0    0  0.15516666686E+02  0.61972521141E+01 -0.84561522638E+01  0.18726435590E+02  0.00000000000E+00 0. -1.
         11    1    3    3    0    0  0.10971434207E+02  0.20084388551E+01  0.39612449227E+01  0.11836285599E+02  0.51100000000E-03 0. -1.
        -11    1    3    3    0    0 -0.11434958999E+02  0.16767775413E+01 -0.24160030488E+02  0.26782026504E+02  0.51100000000E-03 0.  1.
        -12    1    3    3    0    0 -0.15053141893E+02 -0.98824685105E+01  0.28654937829E+02  0.33843252307E+02  0.00000000000E+00 0.  1.
</event>
<event>
 7    1  0.2972263E-013  0.7246153E+02  0.7816164E-02  0.1226708E+00
        -11   -1    0    0    0    0  0.00000000000E+00  0.00000000000E+00  0.45593999997E+02  0.45594000000E+02  0.51100000000E-03 0. -1.
         11   -1    0    0    0    0 -0.00000000000E+00 -0.00000000000E+00 -0.45593999997E+02  0.45594000000E+02  0.51100000000E-03 0.  1.
    9900012    2    1    2    0    0 -0.17998072712E+02  0.33019236920E+01 -0.39808624912E+01  0.72461532431E+02  0.69999950676E+02 0.  0.
         12    1    1    2    0    0  0.17998072712E+02 -0.33019236920E+01  0.39808624912E+01  0.18726467569E+02  0.00000000000E+00 0. -1.
         11    1    3    3    0    0 -0.15649943049E+02  0.18725453325E+02 -0.64470659168E+01  0.25241394154E+02  0.51100000000E-03 0. -1.
        -11    1    3    3    0    0  0.34569212652E+01 -0.14743549097E+02 -0.19386122032E+02  0.24599680330E+02  0.51100000000E-03 0.  1.
         12    1    3    3    0    0 -0.58050509291E+01 -0.67998053635E+00  0.21852325458E+02  0.22620457947E+02  0.00000000000E+00 0. -1.
</event>
<event>
 7    1  0.2972263E-013  0.7246146E+02  0.7816164E-02  0.1226708E+00
        -11   -1    0    0    0    0  0.00000000000E+00  0.00000000000E+00  0.45593999997E+02  0.45594000000E+02  0.51100000000E-03 0.  1.
         11   -1    0    0    0    0 -0.00000000000E+00 -0.00000000000E+00 -0.45593999997E+02  0.45594000000E+02  0.51100000000E-03 0. -1.
    9900012    2    1    2    0    0 -0.15192959124E+02 -0.99892719912E+01 -0.44801377839E+01  0.72461462776E+02  0.69999859937E+02 0.  0.
         12    1    1    2    0    0  0.15192959124E+02  0.99892719912E+01  0.44801377839E+01  0.18726537224E+02  0.00000000000E+00 0. -1.
         11    1    3    3    0    0  0.10381943656E+02  0.14392097802E+01  0.76632586106E+01  0.12983898169E+02  0.51100000000E-03 0. -1.
        -11    1    3    3    0    0 -0.10019981423E-01  0.13279537635E+02 -0.19087296727E+02  0.23252335728E+02  0.51100000000E-03 0.  1.
        -12    1    3    3    0    0 -0.25564882798E+02 -0.24708019407E+02  0.69439003323E+01  0.36225228879E+02  0.00000000000E+00 0.  1.
</event>
<event>
 7    1  0.2972263E-013  0.7246156E+02  0.7816164E-02  0.1226708E+00
        -11   -1    0    0    0    0  0.00000000000E+00  0.00000000000E+00  0.45593999997E+02  0.45594000000E+02  0.51100000000E-03 0. -1.
         11   -1    0    0    0    0 -0.00000000000E+00 -0.00000000000E+00 -0.45593999997E+02  0.45594000000E+02  0.51100000000E-03 0.  1.
    9900012    2    1    2    0    0  0.41796371557E+01 -0.17906747764E+02 -0.35437882526E+01  0.72461563676E+02  0.69999991378E+02 0.  0.
         12    1    1    2    0    0 -0.41796371557E+01  0.17906747764E+02  0.35437882526E+01  0.18726436324E+02  0.00000000000E+00 0. -1.
         11    1    3    3    0    0 -0.84866119725E+01 -0.78151519639E+01  0.42118168041E+01  0.12281636049E+02  0.51100000000E-03 0. -1.
        -11    1    3    3    0    0 -0.46548382868E+01 -0.21708535522E+02  0.16888386135E+02  0.27895261613E+02  0.51100000000E-03 0.  1.
        -12    1    3    3    0    0  0.17321087415E+02  0.11616939722E+02 -0.24643991192E+02  0.32284666013E+02  0.00000000000E+00 0.  1.
</event>
<event>
 7    1  0.2972263E-013  0.7246157E+02  0.7816164E-02  0.1226708E+00
        -11   -1    0    0    0    0  0.00000000000E+00  0.00000000000E+00  0.45593999997E+02  0.45594000000E+02  0.51100000000E-03 0. -1.
         11   -1    0    0    0    0 -0.00000000000E+00 -0.00000000000E+00 -0.45593999997E+02  0.45594000000E+02  0.51100000000E-03 0.  1.
    9900012    2    1    2    0    0 -0.12091192182E+02  0.14270489698E+02  0.91405746682E+00  0.72461566659E+02  0.69999995265E+02 0.  0.
         12    1    1    2    0    0  0.12091192182E+02 -0.14270489698E+02 -0.91405746682E+00  0.18726433341E+02  0.00000000000E+00 0. -1.
         11    1    3    3    0    0 -0.37715158126E+02  0.17140157128E+02  0.38949978421E+00  0.41429094235E+02  0.51100000000E-03 0. -1.
        -11    1    3    3    0    0  0.77115402302E+01 -0.50845957300E+01  0.72798828101E+01  0.11760852879E+02  0.51100000000E-03 0.  1.
        -12    1    3    3    0    0  0.17912425713E+02  0.22149283001E+01 -0.67553251275E+01  0.19271619545E+02  0.00000000000E+00 0.  1.
</event>
<event>
 7    1  0.2972263E-013  0.7246149E+02  0.7816164E-02  0.1226708E+00
        -11   -1    0    0    0    0  0.00000000000E+00  0.00000000000E+00  0.45593999997E+02  0.45594000000E+02  0.51100000000E-03 0.  1.
         11   -1    0    0    0    0 -0.00000000000E+00 -0.00000000000E+00 -0.45593999997E+02  0.45594000000E+02  0.51100000000E-03 0. -1.
    9900012    2    1    2    0    0  0.13109346208E+02  0.68738051271E+01  0.11470742271E+02  0.72461492499E+02  0.69999898657E+02 0.  0.
         12    1    1    2    0    0 -0.13109346208E+02 -0.68738051271E+01 -0.11470742271E+02  0.18726507501E+02  0.00000000000E+00 0. -1.
         11    1    3    3    0    0 -0.18521630313E+01  0.11072706115E+02  0.29592159913E+02  0.31650138344E+02  0.51100000000E-03 0. -1.
        -11    1    3    3    0    0  0.25360900948E+01  0.12141518229E+02  0.14010639119E+01  0.12482435589E+02  0.51100000000E-03 0.  1.
         12    1    3    3    0    0  0.12425419144E+02 -0.16340419218E+02 -0.19522481554E+02  0.28328918566E+02  0.00000000000E+00 0. -1.
</event>
<event>
 7    1  0.2972263E-013  0.7246163E+02  0.7816164E-02  0.1226708E+00
        -11   -1    0    0    0    0  0.00000000000E+00  0.00000000000E+00  0.45593999997E+02  0.45594000000E+02  0.51100000000E-03 0. -1.
         11   -1    0    0    0    0 -0.00000000000E+00 -0.00000000000E+00 -0.45593999997E+02  0.45594000000E+02  0.51100000000E-03 0.  1.
    9900012    2    1    2    0    0 -0.12382194251E+02  0.76231227937E+01 -0.11800267659E+02  0.72461626822E+02  0.70000073638E+02 0.  0.
         12    1    1    2    0    0  0.12382194251E+02 -0.76231227937E+01  0.11800267659E+02  0.18726373178E+02  0.00000000000E+00 0. -1.
         11    1    3    3    0    0  0.26155234284E+02  0.56622937104E+01 -0.29581884230E+01  0.26924129132E+02  0.51100000000E-03 0. -1.
        -11    1    3    3    0    0  0.48492562349E+00  0.52292238054E+01  0.51267207898E+00  0.52766246208E+01  0.51100000000E-03 0.  1.
         12    1    3    3    0    0 -0.39022354158E+02 -0.32683947222E+01 -0.93547513147E+01  0.40260873069E+02  0.00000000000E+00 0. -1.
</event>
<event>
 7    1  0.2972263E-013  0.7246157E+02  0.7816164E-02  0.1226708E+00
        -11   -1    0    0    0    0  0.00000000000E+00  0.00000000000E+00  0.45593999997E+02  0.45594000000E+02  0.51100000000E-03 0.  1.
         11   -1    0    0    0    0 -0.00000000000E+00 -0.00000000000E+00 -0.45593999997E+02  0.45594000000E+02  0.51100000000E-03 0. -1.
    9900012    2    1    2    0    0  0.11243983289E+02  0.68361695705E+01  0.13323618914E+02  0.72461569599E+02  0.69999999094E+02 0.  0.
         12    1    1    2    0    0 -0.11243983289E+02 -0.68361695705E+01 -0.13323618914E+02  0.18726430401E+02  0.00000000000E+00 0. -1.
         11    1    3    3    0    0 -0.16358826745E+02 -0.61846588424E+01 -0.72783245718E+01  0.18942946611E+02  0.51100000000E-03 0. -1.
        -11    1    3    3    0    0 -0.16591472841E+01 -0.87464741687E+01  0.13795679385E+02  0.16418719501E+02  0.51100000000E-03 0.  1.
        -12    1    3    3    0    0  0.29261957318E+02  0.21767302582E+02  0.68062641010E+01  0.37099903487E+02  0.00000000000E+00 0.  1.
</event>
<event>
 7    1  0.2972263E-013  0.7246160E+02  0.7816164E-02  0.1226708E+00
        -11   -1    0    0    0    0  0.00000000000E+00  0.00000000000E+00  0.45593999997E+02  0.45594000000E+02  0.51100000000E-03 0. -1.
         11   -1    0    0    0    0 -0.00000000000E+00 -0.00000000000E+00 -0.45593999997E+02  0.45594000000E+02  0.51100000000E-03 0.  1.
    9900012    2    1    2    0    0 -0.11802909671E+02  0.72965772767E+01 -0.12574948271E+02  0.72461600435E+02  0.70000039264E+02 0.  0.
         12    1    1    2    0    0  0.11802909671E+02 -0.72965772767E+01  0.12574948271E+02  0.18726399565E+02  0.00000000000E+00 0. -1.
         11    1    3    3    0    0  0.50019946479E+01  0.17927101735E+01  0.16066890528E+02  0.16922728258E+02  0.51100000000E-03 0. -1.
        -11    1    3    3    0    0  0.94653605450E+01 -0.11886850191E+02 -0.14507602250E+02  0.21008588268E+02  0.51100000000E-03 0.  1.
        -12    1    3    3    0    0 -0.26270264864E+02  0.17390717294E+02 -0.14134236548E+02  0.34530283909E+02  0.00000000000E+00 0.  1.
</event>
<event>
 7    1  0.2972263E-013  0.7246161E+02  0.7816164E-02  0.1226708E+00
        -11   -1    0    0    0    0  0.00000000000E+00  0.00000000000E+00  0.45593999997E+02  0.45594000000E+02  0.51100000000E-03 0. -1.
         11   -1    0    0    0    0 -0.00000000000E+00 -0.00000000000E+00 -0.45593999997E+02  0.45594000000E+02  0.51100000000E-03 0.  1.
    9900012    2    1    2    0    0  0.84008154159E+01 -0.11358233613E+02 -0.12292056210E+02  0.72461606425E+02  0.70000047066E+02 0.  0.
         12    1    1    2    0    0 -0.84008154159E+01  0.11358233613E+02  0.12292056210E+02  0.18726393575E+02  0.00000000000E+00 0. -1.
         11    1    3    3    0    0 -0.74025595591E+01  0.81615021157E+01 -0.83858646987E+01  0.13846686673E+02  0.51100000000E-03 0.  1.
        -11    1    3    3    0    0 -0.41660818430E+01 -0.22100231770E+02  0.18040211263E+02  0.28830985153E+02  0.51100000000E-03 0. -1.
         12    1    3    3    0    0  0.19969456818E+02  0.25804960413E+01 -0.21946402775E+02  0.29783934599E+02  0.00000000000E+00 0. -1.
</event>
<event>
 7    1  0.2972263E-013  0.7246156E+02  0.7816164E-02  0.1226708E+00
        -11   -1    0    0    0    0  0.00000000000E+00  0.00000000000E+00  0.45593999997E+02  0.45594000000E+02  0.51100000000E-03 0.  1.
         11   -1    0    0    0    0 -0.00000000000E+00 -0.00000000000E+00 -0.45593999997E+02  0.45594000000E+02  0.51100000000E-03 0. -1.
    9900012    2    1    2    0    0  0.59107663381E+01 -0.17703117174E+02 -0.15303675489E+01  0.72461560370E+02  0.69999987072E+02 0.  0.
         12    1    1    2    0    0 -0.59107663381E+01  0.17703117174E+02  0.15303675489E+01  0.18726439630E+02  0.00000000000E+00 0. -1.
         11    1    3    3    0    0  0.13278417297E+02 -0.79675673446E-01  0.19885050729E+02  0.23911042572E+02  0.51100000000E-03 0.  1.
        -11    1    3    3    0    0 -0.31122848182E+01  0.86886221648E+01 -0.19802758036E+02  0.21847830510E+02  0.51100000000E-03 0. -1.
        -12    1    3    3    0    0 -0.42553661409E+01 -0.26312063666E+02 -0.16126602413E+01  0.26702687288E+02  0.00000000000E+00 0.  1.
</event>
<event>
 7    1  0.2972263E-013  0.7246155E+02  0.7816164E-02  0.1226708E+00
        -11   -1    0    0    0    0  0.00000000000E+00  0.00000000000E+00  0.45593999997E+02  0.45594000000E+02  0.51100000000E-03 0.  1.
         11   -1    0    0    0    0 -0.00000000000E+00 -0.00000000000E+00 -0.45593999997E+02  0.45594000000E+02  0.51100000000E-03 0. -1.
    9900012    2    1    2    0    0 -0.58503803868E+01 -0.10159694811E+01  0.17760087503E+02  0.72461552051E+02  0.69999976235E+02 0.  0.
         12    1    1    2    0    0  0.58503803868E+01  0.10159694811E+01 -0.17760087503E+02  0.18726447949E+02  0.00000000000E+00 0. -1.
         11    1    3    3    0    0  0.10532933355E+01 -0.12114347279E+02 -0.72493518959E+00  0.12181640618E+02  0.51100000000E-03 0. -1.
        -11    1    3    3    0    0  0.19703620229E+02  0.16449620575E+02  0.20805580422E+02  0.33040805743E+02  0.51100000000E-03 0.  1.
         12    1    3    3    0    0 -0.26607293951E+02 -0.53512427773E+01 -0.23205577291E+01  0.27239105691E+02  0.00000000000E+00 0. -1.
</event>
<event>
 7    1  0.2972263E-013  0.7246158E+02  0.7816164E-02  0.1226708E+00
        -11   -1    0    0    0    0  0.00000000000E+00  0.00000000000E+00  0.45593999997E+02  0.45594000000E+02  0.51100000000E-03 0.  1.
         11   -1    0    0    0    0 -0.00000000000E+00 -0.00000000000E+00 -0.45593999997E+02  0.45594000000E+02  0.51100000000E-03 0. -1.
    9900012    2    1    2    0    0  0.25647848232E+01 -0.17813123547E+02  0.51762285924E+01  0.72461579249E+02  0.70000011665E+02 0.  0.
         12    1    1    2    0    0 -0.25647848232E+01  0.17813123547E+02 -0.51762285924E+01  0.18726420751E+02  0.00000000000E+00 0. -1.
         11    1    3    3    0    0 -0.13234217916E+01 -0.75802540478E+01  0.27162169416E+01  0.81602408912E+01  0.51100000000E-03 0. -1.
        -11    1    3    3    0    0 -0.63721402172E+01 -0.28883287487E+02  0.20836344648E+02  0.36180128877E+02  0.51100000000E-03 0.  1.
         12    1    3    3    0    0  0.10260346832E+02  0.18650417987E+02 -0.18376332997E+02  0.28121209481E+02  0.00000000000E+00 0. -1.
</event>
<event>
 7    1  0.2972263E-013  0.7246161E+02  0.7816164E-02  0.1226708E+00
        -11   -1    0    0    0    0  0.00000000000E+00  0.00000000000E+00  0.45593999997E+02  0.45594000000E+02  0.51100000000E-03 0.  1.
         11   -1    0    0    0    0 -0.00000000000E+00 -0.00000000000E+00 -0.45593999997E+02  0.45594000000E+02  0.51100000000E-03 0. -1.
    9900012    2    1    2    0    0  0.16886355513E+02  0.60789669777E+01  0.53455380594E+01  0.72461611689E+02  0.70000053924E+02 0.  0.
         12    1    1    2    0    0 -0.16886355513E+02 -0.60789669777E+01 -0.53455380594E+01  0.18726388311E+02  0.00000000000E+00 0. -1.
         11    1    3    3    0    0 -0.36006807627E+01 -0.21731109599E+00 -0.49123208487E+01  0.60945075641E+01  0.51100000000E-03 0. -1.
        -11    1    3    3    0    0 -0.12662739594E+02 -0.79610354059E+01  0.23560650211E+02  0.27907477445E+02  0.51100000000E-03 0.  1.
         12    1    3    3    0    0  0.33149775870E+02  0.14257313480E+02 -0.13302791303E+02  0.38459626679E+02  0.00000000000E+00 0. -1.
</event>
<event>
 7    1  0.2972263E-013  0.7246123E+02  0.7816164E-02  0.1226709E+00
        -11   -1    0    0    0    0  0.00000000000E+00  0.00000000000E+00  0.45593999997E+02  0.45594000000E+02  0.51100000000E-03 0.  1.
         11   -1    0    0    0    0 -0.00000000000E+00 -0.00000000000E+00 -0.45593999997E+02  0.45594000000E+02  0.51100000000E-03 0. -1.
    9900012    2    1    2    0    0  0.14857382520E+01 -0.16948649796E+02  0.78248220319E+01  0.72461228044E+02  0.69999554154E+02 0.  0.
         12    1    1    2    0    0 -0.14857382520E+01  0.16948649796E+02 -0.78248220319E+01  0.18726771956E+02  0.00000000000E+00 0. -1.
         11    1    3    3    0    0 -0.13174195673E+01 -0.11744813698E+01 -0.56257439025E+01  0.58961000264E+01  0.51100000000E-03 0. -1.
        -11    1    3    3    0    0 -0.44704029381E+01 -0.38316360273E+02  0.17795982306E+02  0.42483231439E+02  0.51100000000E-03 0.  1.
         12    1    3    3    0    0  0.72735607574E+01  0.22542191847E+02 -0.43454163717E+01  0.24081896578E+02  0.00000000000E+00 0. -1.
</event>
<event>
 7    1  0.2972263E-013  0.7246154E+02  0.7816164E-02  0.1226708E+00
        -11   -1    0    0    0    0  0.00000000000E+00  0.00000000000E+00  0.45593999997E+02  0.45594000000E+02  0.51100000000E-03 0.  1.
         11   -1    0    0    0    0 -0.00000000000E+00 -0.00000000000E+00 -0.45593999997E+02  0.45594000000E+02  0.51100000000E-03 0. -1.
    9900012    2    1    2    0    0 -0.10120930075E+02 -0.13939207122E+02  0.73447754099E+01  0.72461536196E+02  0.69999955581E+02 0.  0.
         12    1    1    2    0    0  0.10120930075E+02  0.13939207122E+02 -0.73447754099E+01  0.18726463804E+02  0.00000000000E+00 0. -1.
         11    1    3    3    0    0  0.52060822182E+01 -0.20124130473E+01 -0.19726606338E+02  0.20501026711E+02  0.51100000000E-03 0. -1.
        -11    1    3    3    0    0 -0.24438096537E+02  0.24176329410E+01  0.67458391462E+01  0.25467073986E+02  0.51100000000E-03 0.  1.
        -12    1    3    3    0    0  0.91110842436E+01 -0.14344427016E+02  0.20325542601E+02  0.26493435499E+02  0.00000000000E+00 0.  1.
</event>
<event>
 7    1  0.2972263E-013  0.7246158E+02  0.7816164E-02  0.1226708E+00
        -11   -1    0    0    0    0  0.00000000000E+00  0.00000000000E+00  0.45593999997E+02  0.45594000000E+02  0.51100000000E-03 0.  1.
         11   -1    0    0    0    0 -0.00000000000E+00 -0.00000000000E+00 -0.45593999997E+02  0.45594000000E+02  0.51100000000E-03 0. -1.
    9900012    2    1    2    0    0  0.12274950013E+02 -0.10548320476E+02  0.94200426787E+01  0.72461583718E+02  0.70000017487E+02 0.  0.
         12    1    1    2    0    0 -0.12274950013E+02  0.10548320476E+02 -0.94200426787E+01  0.18726416282E+02  0.00000000000E+00 0. -1.
         11    1    3    3    0    0 -0.19595765421E+01 -0.11417388169E+02 -0.11608103001E+02  0.16399535005E+02  0.51100000000E-03 0. -1.
        -11    1    3    3    0    0 -0.67243470388E+01 -0.18099271099E+02 -0.22559132891E+01  0.19439382769E+02  0.51100000000E-03 0.  1.
        -12    1    3    3    0    0  0.20958873594E+02  0.18968338792E+02  0.23284058969E+02  0.36622665945E+02  0.00000000000E+00 0.  1.
</event>
<event>
 7    1  0.2972263E-013  0.7246202E+02  0.7816164E-02  0.1226707E+00
        -11   -1    0    0    0    0  0.00000000000E+00  0.00000000000E+00  0.45593999997E+02  0.45594000000E+02  0.51100000000E-03 0.  1.
         11   -1    0    0    0    0 -0.00000000000E+00 -0.00000000000E+00 -0.45593999997E+02  0.45594000000E+02  0.51100000000E-03 0. -1.
    9900012    2    1    2    0    0  0.14269913557E+02 -0.12094149947E+02 -0.87383923240E+00  0.72462015623E+02  0.70000580121E+02 0.  0.
         12    1    1    2    0    0 -0.14269913557E+02  0.12094149947E+02  0.87383923240E+00  0.18725984377E+02  0.00000000000E+00 0. -1.
         11    1    3    3    0    0  0.64499205152E+01 -0.21833671981E+02  0.89123921175E+01  0.24448751305E+02  0.51100000000E-03 0. -1.
        -11    1    3    3    0    0 -0.18668112110E+02 -0.27491057130E+00 -0.32531272140E+01  0.18951433258E+02  0.51100000000E-03 0.  1.
         12    1    3    3    0    0  0.26488105153E+02  0.10014432606E+02 -0.65331041359E+01  0.29061831061E+02  0.00000000000E+00 0. -1.
</event>
<event>
 7    1  0.2972263E-013  0.7246163E+02  0.7816164E-02  0.1226708E+00
        -11   -1    0    0    0    0  0.00000000000E+00  0.00000000000E+00  0.45593999997E+02  0.45594000000E+02  0.51100000000E-03 0. -1.
         11   -1    0    0    0    0 -0.00000000000E+00 -0.00000000000E+00 -0.45593999997E+02  0.45594000000E+02  0.51100000000E-03 0.  1.
    9900012    2    1    2    0    0  0.68655619476E+01  0.26121168824E+01 -0.17225501265E+02  0.72461628507E+02  0.70000075833E+02 0.  0.
         12    1    1    2    0    0 -0.68655619476E+01 -0.26121168824E+01  0.17225501265E+02  0.18726371493E+02  0.00000000000E+00 0. -1.
         11    1    3    3    0    0 -0.90752798202E+01 -0.22986305625E+02 -0.34090991958E+01  0.24947001978E+02  0.51100000000E-03 0. -1.
        -11    1    3    3    0    0  0.44746666034E+01 -0.83778756380E+00 -0.17846912878E+02  0.18418382902E+02  0.51100000000E-03 0.  1.
         12    1    3    3    0    0  0.11466175164E+02  0.26436210071E+02  0.40305108084E+01  0.29096243627E+02  0.00000000000E+00 0. -1.
</event>
<event>
 7    1  0.2972263E-013  0.7246161E+02  0.7816164E-02  0.1226708E+00
        -11   -1    0    0    0    0  0.00000000000E+00  0.00000000000E+00  0.45593999997E+02  0.45594000000E+02  0.51100000000E-03 0.  1.
         11   -1    0    0    0    0 -0.00000000000E+00 -0.00000000000E+00 -0.45593999997E+02  0.45594000000E+02  0.51100000000E-03 0. -1.
    9900012    2    1    2    0    0 -0.31017260784E-01 -0.18246588409E+02 -0.42117406893E+01  0.72461609257E+02  0.70000050756E+02 0.  0.
         12    1    1    2    0    0  0.31017260784E-01  0.18246588409E+02  0.42117406893E+01  0.18726390743E+02  0.00000000000E+00 0. -1.
         11    1    3    3    0    0 -0.15508296451E+01  0.30896545689E+01  0.59251479223E+00  0.35074366684E+01  0.51100000000E-03 0. -1.
        -11    1    3    3    0    0 -0.15523312733E+02 -0.37571874255E+02  0.90410369088E+01  0.41645639891E+02  0.51100000000E-03 0.  1.
         12    1    3    3    0    0  0.17043125117E+02  0.16235631278E+02 -0.13845292390E+02  0.27308532698E+02  0.00000000000E+00 0. -1.
</event>
<event>
 7    1  0.2972263E-013  0.7246156E+02  0.7816164E-02  0.1226708E+00
        -11   -1    0    0    0    0  0.00000000000E+00  0.00000000000E+00  0.45593999997E+02  0.45594000000E+02  0.51100000000E-03 0. -1.
         11   -1    0    0    0    0 -0.00000000000E+00 -0.00000000000E+00 -0.45593999997E+02  0.45594000000E+02  0.51100000000E-03 0.  1.
    9900012    2    1    2    0    0  0.18302376374E+02  0.13730045393E+01  0.37171998279E+01  0.72461556212E+02  0.69999981655E+02 0.  0.
         12    1    1    2    0    0 -0.18302376374E+02 -0.13730045393E+01 -0.37171998279E+01  0.18726443788E+02  0.00000000000E+00 0. -1.
         11    1    3    3    0    0 -0.68178902139E+01  0.12880825903E+02 -0.10903487017E+00  0.14574333322E+02  0.51100000000E-03 0. -1.
        -11    1    3    3    0    0  0.31629666444E+01  0.19304116508E+02  0.43891314725E+01  0.20047886360E+02  0.51100000000E-03 0.  1.
        -12    1    3    3    0    0  0.21957299943E+02 -0.30811937872E+02 -0.56289677448E+00  0.37839336530E+02  0.00000000000E+00 0.  1.
</event>
<event>
 7    1  0.2972263E-013  0.7246155E+02  0.7816164E-02  0.1226708E+00
        -11   -1    0    0    0    0  0.00000000000E+00  0.00000000000E+00  0.45593999997E+02  0.45594000000E+02  0.51100000000E-03 0.  1.
         11   -1    0    0    0    0 -0.00000000000E+00 -0.00000000000E+00 -0.45593999997E+02  0.45594000000E+02  0.51100000000E-03 0. -1.
    9900012    2    1    2    0    0 -0.17608719431E+02  0.56856903045E+01 -0.28785228259E+01  0.72461548978E+02  0.69999972231E+02 0.  0.
         12    1    1    2    0    0  0.17608719431E+02 -0.56856903045E+01  0.28785228259E+01  0.18726451022E+02  0.00000000000E+00 0. -1.
         11    1    3    3    0    0 -0.14536326710E+02 -0.64489392944E+01 -0.19283317355E+02  0.24994798273E+02  0.51100000000E-03 0. -1.
        -11    1    3    3    0    0 -0.89551830401E+01  0.16952025593E+02 -0.88326155892E+01  0.21108803220E+02  0.51100000000E-03 0.  1.
         12    1    3    3    0    0  0.58827903199E+01 -0.48173959938E+01  0.25237410118E+02  0.26357947484E+02  0.00000000000E+00 0. -1.
</event>
<event>
 7    1  0.2972263E-013  0.7246154E+02  0.7816164E-02  0.1226708E+00
        -11   -1    0    0    0    0  0.00000000000E+00  0.00000000000E+00  0.45593999997E+02  0.45594000000E+02  0.51100000000E-03 0.  1.
         11   -1    0    0    0    0 -0.00000000000E+00 -0.00000000000E+00 -0.45593999997E+02  0.45594000000E+02  0.51100000000E-03 0. -1.
    9900012    2    1    2    0    0 -0.77264800643E+01  0.40236279805E+01  0.16576856460E+02  0.72461541542E+02  0.69999962544E+02 0.  0.
         12    1    1    2    0    0  0.77264800643E+01 -0.40236279805E+01 -0.16576856460E+02  0.18726458458E+02  0.00000000000E+00 0. -1.
         11    1    3    3    0    0 -0.24548907074E+02  0.80052373590E+01 -0.83615702701E+00  0.25834701905E+02  0.51100000000E-03 0. -1.
        -11    1    3    3    0    0  0.46973334691E+01  0.16057569370E+02 -0.11076360932E+01  0.16767150436E+02  0.51100000000E-03 0.  1.
        -12    1    3    3    0    0  0.12125093540E+02 -0.20039178748E+02  0.18520649580E+02  0.29859689200E+02  0.00000000000E+00 0.  1.
</event>
<event>
 7    1  0.2972263E-013  0.7246157E+02  0.7816164E-02  0.1226708E+00
        -11   -1    0    0    0    0  0.00000000000E+00  0.00000000000E+00  0.45593999997E+02  0.45594000000E+02  0.51100000000E-03 0.  1.
         11   -1    0    0    0    0 -0.00000000000E+00 -0.00000000000E+00 -0.45593999997E+02  0.45594000000E+02  0.51100000000E-03 0. -1.
    9900012    2    1    2    0    0  0.17103413567E+02  0.64623517585E+01 -0.40484939182E+01  0.72461573515E+02  0.70000004196E+02 0.  0.
         12    1    1    2    0    0 -0.17103413567E+02 -0.64623517585E+01  0.40484939182E+01  0.18726426485E+02  0.00000000000E+00 0. -1.
         11    1    3    3    0    0 -0.22554665022E+01  0.45279979878E+00  0.68356506087E+01  0.72123696734E+01  0.51100000000E-03 0. -1.
        -11    1    3    3    0    0  0.34801171333E+02  0.15810232679E+02  0.78996131200E+01  0.39031895563E+02  0.51100000000E-03 0.  1.
         12    1    3    3    0    0 -0.15442291264E+02 -0.98006807193E+01 -0.18783757647E+02  0.26217308279E+02  0.00000000000E+00 0. -1.
</event>
<event>
 7    1  0.2972263E-013  0.7246156E+02  0.7816164E-02  0.1226708E+00
        -11   -1    0    0    0    0  0.00000000000E+00  0.00000000000E+00  0.45593999997E+02  0.45594000000E+02  0.51100000000E-03 0.  1.
         11   -1    0    0    0    0 -0.00000000000E+00 -0.00000000000E+00 -0.45593999997E+02  0.45594000000E+02  0.51100000000E-03 0. -1.
    9900012    2    1    2    0    0 -0.37424254385E+01  0.14217645501E+02 -0.11598815083E+02  0.72461556048E+02  0.69999981442E+02 0.  0.
         12    1    1    2    0    0  0.37424254385E+01 -0.14217645501E+02  0.11598815083E+02  0.18726443952E+02  0.00000000000E+00 0. -1.
         11    1    3    3    0    0  0.51820622115E+01 -0.26778906168E+01  0.10375067037E+02  0.11902389811E+02  0.51100000000E-03 0. -1.
        -11    1    3    3    0    0 -0.19938971235E+02 -0.12341359251E+02 -0.21273163956E+01  0.23545640730E+02  0.51100000000E-03 0.  1.
         12    1    3    3    0    0  0.11014483585E+02  0.29236895368E+02 -0.19846565725E+02  0.37013525508E+02  0.00000000000E+00 0. -1.
</event>
<event>
 7    1  0.2972263E-013  0.7246158E+02  0.7816164E-02  0.1226708E+00
        -11   -1    0    0    0    0  0.00000000000E+00  0.00000000000E+00  0.45593999997E+02  0.45594000000E+02  0.51100000000E-03 0.  1.
         11   -1    0    0    0    0 -0.00000000000E+00 -0.00000000000E+00 -0.45593999997E+02  0.45594000000E+02  0.51100000000E-03 0. -1.
    9900012    2    1    2    0    0  0.28574005670E+01  0.10417480592E+01  0.18477789807E+02  0.72461583013E+02  0.70000016568E+02 0.  0.
         12    1    1    2    0    0 -0.28574005670E+01 -0.10417480592E+01 -0.18477789807E+02  0.18726416987E+02  0.00000000000E+00 0. -1.
         11    1    3    3    0    0  0.26796001517E+02 -0.11054297104E+02  0.22532294620E+02  0.36714131923E+02  0.51100000000E-03 0. -1.
        -11    1    3    3    0    0 -0.32907756630E+01  0.19343868708E+00  0.82799039916E+01  0.89119825718E+01  0.51100000000E-03 0.  1.
        -12    1    3    3    0    0 -0.20647825287E+02  0.11902606476E+02 -0.12334408804E+02  0.26835468518E+02  0.00000000000E+00 0.  1.
</event>
<event>
 7    1  0.2972263E-013  0.7246161E+02  0.7816164E-02  0.1226708E+00
        -11   -1    0    0    0    0  0.00000000000E+00  0.00000000000E+00  0.45593999997E+02  0.45594000000E+02  0.51100000000E-03 0.  1.
         11   -1    0    0    0    0 -0.00000000000E+00 -0.00000000000E+00 -0.45593999997E+02  0.45594000000E+02  0.51100000000E-03 0. -1.
    9900012    2    1    2    0    0  0.13763443668E+02 -0.78954178354E+01  0.99452422417E+01  0.72461605589E+02  0.70000045978E+02 0.  0.
         12    1    1    2    0    0 -0.13763443668E+02  0.78954178354E+01 -0.99452422417E+01  0.18726394411E+02  0.00000000000E+00 0. -1.
         11    1    3    3    0    0  0.12302919173E+02  0.72841727493E+01  0.12079208995E+02  0.18717058611E+02  0.51100000000E-03 0. -1.
        -11    1    3    3    0    0 -0.27398730692E+01  0.16193531812E+02  0.10685788434E+02  0.19593964675E+02  0.51100000000E-03 0.  1.
         12    1    3    3    0    0  0.42003975641E+01 -0.31373122396E+02 -0.12819755187E+02  0.34150582303E+02  0.00000000000E+00 0. -1.
</event>
<event>
 7    1  0.2972263E-013  0.7246157E+02  0.7816164E-02  0.1226708E+00
        -11   -1    0    0    0    0  0.00000000000E+00  0.00000000000E+00  0.45593999997E+02  0.45594000000E+02  0.51100000000E-03 0.  1.
         11   -1    0    0    0    0 -0.00000000000E+00 -0.00000000000E+00 -0.45593999997E+02  0.45594000000E+02  0.51100000000E-03 0. -1.
    9900012    2    1    2    0    0 -0.12247431962E+02  0.13035457613E+02  0.55458647206E+01  0.72461565200E+02  0.69999993363E+02 0.  0.
         12    1    1    2    0    0  0.12247431962E+02 -0.13035457613E+02 -0.55458647206E+01  0.18726434800E+02  0.00000000000E+00 0. -1.
         11    1    3    3    0    0  0.92994354124E+01 -0.21757599752E+02  0.12848314939E+02  0.26924929767E+02  0.51100000000E-03 0. -1.
        -11    1    3    3    0    0 -0.14600369129E+01  0.39466145346E+01  0.51744072341E+01  0.66694800815E+01  0.51100000000E-03 0.  1.
        -12    1    3    3    0    0 -0.20086830461E+02  0.30846442830E+02 -0.12476857452E+02  0.38867155351E+02  0.00000000000E+00 0.  1.
</event>
<event>
 7    1  0.2972263E-013  0.7246106E+02  0.7816164E-02  0.1226709E+00
        -11   -1    0    0    0    0  0.00000000000E+00  0.00000000000E+00  0.45593999997E+02  0.45594000000E+02  0.51100000000E-03 0. -1.
         11   -1    0    0    0    0 -0.00000000000E+00 -0.00000000000E+00 -0.45593999997E+02  0.45594000000E+02  0.51100000000E-03 0.  1.
    9900012    2    1    2    0    0  0.64453230821E+00  0.18715463662E+02 -0.12019597369E+00  0.72461055533E+02  0.69999329425E+02 0.  0.
         12    1    1    2    0    0 -0.64453230821E+00 -0.18715463662E+02  0.12019597369E+00  0.18726944467E+02  0.00000000000E+00 0. -1.
         11    1    3    3    0    0  0.20990367940E+01 -0.11028050527E+02  0.10050482693E+02  0.15067715703E+02  0.51100000000E-03 0. -1.
        -11    1    3    3    0    0  0.20581961156E+01  0.25161456252E+02  0.16464280817E+02  0.30139800846E+02  0.51100000000E-03 0.  1.
        -12    1    3    3    0    0 -0.35127006014E+01  0.45820579377E+01 -0.26634959484E+02  0.27253538984E+02  0.00000000000E+00 0.  1.
</event>
<event>
 7    1  0.2972263E-013  0.7246157E+02  0.7816164E-02  0.1226708E+00
        -11   -1    0    0    0    0  0.00000000000E+00  0.00000000000E+00  0.45593999997E+02  0.45594000000E+02  0.51100000000E-03 0.  1.
         11   -1    0    0    0    0 -0.00000000000E+00 -0.00000000000E+00 -0.45593999997E+02  0.45594000000E+02  0.51100000000E-03 0. -1.
    9900012    2    1    2    0    0  0.92112608601E+00  0.18675624872E+02 -0.10255430562E+01  0.72461570116E+02  0.69999999768E+02 0.  0.
         12    1    1    2    0    0 -0.92112608601E+00 -0.18675624872E+02  0.10255430562E+01  0.18726429884E+02  0.00000000000E+00 0. -1.
         11    1    3    3    0    0  0.17946024249E+02  0.24848213162E+02  0.31268142660E+01  0.30810232901E+02  0.51100000000E-03 0. -1.
        -11    1    3    3    0    0 -0.62093951891E+00  0.14655123429E+02 -0.37340265591E+01  0.15136088108E+02  0.51100000000E-03 0.  1.
        -12    1    3    3    0    0 -0.16403958644E+02 -0.20827711718E+02 -0.41833076313E+00  0.26515249108E+02  0.00000000000E+00 0.  1.
</event>
<event>
 7    1  0.2972263E-013  0.7246161E+02  0.7816164E-02  0.1226708E+00
        -11   -1    0    0    0    0  0.00000000000E+00  0.00000000000E+00  0.45593999997E+02  0.45594000000E+02  0.51100000000E-03 0.  1.
         11   -1    0    0    0    0 -0.00000000000E+00 -0.00000000000E+00 -0.45593999997E+02  0.45594000000E+02  0.51100000000E-03 0. -1.
    9900012    2    1    2    0    0 -0.27908718361E+01  0.29418961000E+01  0.18282069434E+02  0.72461607366E+02  0.70000048293E+02 0.  0.
         12    1    1    2    0    0  0.27908718361E+01 -0.29418961000E+01 -0.18282069434E+02  0.18726392634E+02  0.00000000000E+00 0. -1.
         11    1    3    3    0    0 -0.30207187401E+02 -0.52499743596E+00  0.42473458202E+01  0.30508846910E+02  0.51100000000E-03 0. -1.
        -11    1    3    3    0    0 -0.36371005971E+01 -0.53455938487E+01  0.56880010047E+01  0.86114592282E+01  0.51100000000E-03 0.  1.
        -12    1    3    3    0    0  0.31053416162E+02  0.88124873847E+01  0.83467226093E+01  0.33341301228E+02  0.00000000000E+00 0.  1.
</event>
<event>
 7    1  0.2972263E-013  0.7246159E+02  0.7816164E-02  0.1226708E+00
        -11   -1    0    0    0    0  0.00000000000E+00  0.00000000000E+00  0.45593999997E+02  0.45594000000E+02  0.51100000000E-03 0. -1.
         11   -1    0    0    0    0 -0.00000000000E+00 -0.00000000000E+00 -0.45593999997E+02  0.45594000000E+02  0.51100000000E-03 0.  1.
    9900012    2    1    2    0    0  0.13439448381E+02 -0.12875756646E+02 -0.20675382125E+01  0.72461585601E+02  0.70000019940E+02 0.  0.
         12    1    1    2    0    0 -0.13439448381E+02  0.12875756646E+02  0.20675382125E+01  0.18726414399E+02  0.00000000000E+00 0. -1.
         11    1    3    3    0    0 -0.60188754890E+01 -0.82159980196E+00 -0.32661223027E+01  0.68970605002E+01  0.51100000000E-03 0. -1.
        -11    1    3    3    0    0 -0.12345900510E+02 -0.25168134697E+02 -0.93999102195E+01  0.29567119845E+02  0.51100000000E-03 0.  1.
         12    1    3    3    0    0  0.31804224379E+02  0.13113977853E+02  0.10598494310E+02  0.35997405256E+02  0.00000000000E+00 0. -1.
</event>
<event>
 7    1  0.2972263E-013  0.7246153E+02  0.7816164E-02  0.1226708E+00
        -11   -1    0    0    0    0  0.00000000000E+00  0.00000000000E+00  0.45593999997E+02  0.45594000000E+02  0.51100000000E-03 0.  1.
         11   -1    0    0    0    0 -0.00000000000E+00 -0.00000000000E+00 -0.45593999997E+02  0.45594000000E+02  0.51100000000E-03 0. -1.
    9900012    2    1    2    0    0 -0.39410954316E+01 -0.12454998233E+02  0.13417204839E+02  0.72461532103E+02  0.69999950249E+02 0.  0.
         12    1    1    2    0    0  0.39410954316E+01  0.12454998233E+02 -0.13417204839E+02  0.18726467897E+02  0.00000000000E+00 0. -1.
         11    1    3    3    0    0  0.29172033861E+01 -0.69409895351E+01  0.13554156855E+01  0.76501348526E+01  0.51100000000E-03 0. -1.
        -11    1    3    3    0    0  0.10198049738E+02 -0.28191127498E+02  0.19137962808E+02  0.35566859698E+02  0.51100000000E-03 0.  1.
         12    1    3    3    0    0 -0.17056348555E+02  0.22677118800E+02 -0.70761736547E+01  0.29244537553E+02  0.00000000000E+00 0. -1.
</event>
<event>
 7    1  0.2972263E-013  0.7246193E+02  0.7816164E-02  0.1226707E+00
        -11   -1    0    0    0    0  0.00000000000E+00  0.00000000000E+00  0.45593999997E+02  0.45594000000E+02  0.51100000000E-03 0. -1.
         11   -1    0    0    0    0 -0.00000000000E+00 -0.00000000000E+00 -0.45593999997E+02  0.45594000000E+02  0.51100000000E-03 0.  1.
    9900012    2    1    2    0    0 -0.58062852455E+00  0.16729618961E+02  0.83933470560E+01  0.72461933812E+02  0.70000473548E+02 0.  0.
         12    1    1    2    0    0  0.58062852455E+00 -0.16729618961E+02 -0.83933470560E+01  0.18726066188E+02  0.00000000000E+00 0. -1.
         11    1    3    3    0    0 -0.23422675283E+02  0.66870722268E+00  0.27852159332E+01  0.23597167517E+02  0.51100000000E-03 0. -1.
        -11    1    3    3    0    0 -0.79973739746E+00 -0.70628680319E+00 -0.13891137707E+02  0.13932053977E+02  0.51100000000E-03 0.  1.
        -12    1    3    3    0    0  0.23641784156E+02  0.16767198542E+02  0.19499268830E+02  0.34932712318E+02  0.00000000000E+00 0.  1.
</event>
<event>
 7    1  0.2972263E-013  0.7246155E+02  0.7816164E-02  0.1226708E+00
        -11   -1    0    0    0    0  0.00000000000E+00  0.00000000000E+00  0.45593999997E+02  0.45594000000E+02  0.51100000000E-03 0. -1.
         11   -1    0    0    0    0 -0.00000000000E+00 -0.00000000000E+00 -0.45593999997E+02  0.45594000000E+02  0.51100000000E-03 0.  1.
    9900012    2    1    2    0    0  0.38990764193E+01  0.12219097331E+02 -0.13644446871E+02  0.72461546334E+02  0.69999968787E+02 0.  0.
         12    1    1    2    0    0 -0.38990764193E+01 -0.12219097331E+02  0.13644446871E+02  0.18726453666E+02  0.00000000000E+00 0. -1.
         11    1    3    3    0    0  0.22223694823E+02  0.19390805794E+02 -0.17634290845E+02  0.34363704323E+02  0.51100000000E-03 0.  1.
        -11    1    3    3    0    0  0.83082243075E+00 -0.44460795585E+01 -0.12110014673E+02  0.12927116654E+02  0.51100000000E-03 0. -1.
         12    1    3    3    0    0 -0.19155440835E+02 -0.27256289041E+01  0.16099858648E+02  0.25170725356E+02  0.00000000000E+00 0. -1.
</event>
<event>
 7    1  0.2972263E-013  0.7246160E+02  0.7816164E-02  0.1226708E+00
        -11   -1    0    0    0    0  0.00000000000E+00  0.00000000000E+00  0.45593999997E+02  0.45594000000E+02  0.51100000000E-03 0. -1.
         11   -1    0    0    0    0 -0.00000000000E+00 -0.00000000000E+00 -0.45593999997E+02  0.45594000000E+02  0.51100000000E-03 0.  1.
    9900012    2    1    2    0    0 -0.15281916124E+02  0.40149673189E+01  0.10050934669E+02  0.72461595895E+02  0.70000033349E+02 0.  0.
         12    1    1    2    0    0  0.15281916124E+02 -0.40149673189E+01 -0.10050934669E+02  0.18726404105E+02  0.00000000000E+00 0. -1.
         11    1    3    3    0    0 -0.23400198464E+02  0.68752407782E+00  0.16582434055E+02  0.28688309413E+02  0.51100000000E-03 0. -1.
        -11    1    3    3    0    0  0.76515089765E+01 -0.38401867608E+01  0.17073489400E+02  0.19099650901E+02  0.51100000000E-03 0.  1.
        -12    1    3    3    0    0  0.46677336373E+00  0.71676300019E+01 -0.23604988786E+02  0.24673635581E+02  0.00000000000E+00 0.  1.
</event>
<event>
 7    1  0.2972263E-013  0.7246159E+02  0.7816164E-02  0.1226708E+00
        -11   -1    0    0    0    0  0.00000000000E+00  0.00000000000E+00  0.45593999997E+02  0.45594000000E+02  0.51100000000E-03 0.  1.
         11   -1    0    0    0    0 -0.00000000000E+00 -0.00000000000E+00 -0.45593999997E+02  0.45594000000E+02  0.51100000000E-03 0. -1.
    9900012    2    1    2    0    0  0.38554073063E+01 -0.13137710293E+02  0.12775557666E+02  0.72461588947E+02  0.70000024299E+02 0.  0.
         12    1    1    2    0    0 -0.38554073063E+01  0.13137710293E+02 -0.12775557666E+02  0.18726411053E+02  0.00000000000E+00 0. -1.
         11    1    3    3    0    0 -0.11294833808E+02  0.77005245894E+01 -0.18284083775E+01  0.13791824649E+02  0.51100000000E-03 0. -1.
        -11    1    3    3    0    0 -0.20196705389E+00 -0.33601236890E+02  0.18456294027E+02  0.38336910422E+02  0.51100000000E-03 0.  1.
        -12    1    3    3    0    0  0.15352208168E+02  0.12763002008E+02 -0.38523279838E+01  0.20332853877E+02  0.00000000000E+00 0.  1.
</event>
<event>
 7    1  0.2972263E-013  0.7246182E+02  0.7816164E-02  0.1226707E+00
        -11   -1    0    0    0    0  0.00000000000E+00  0.00000000000E+00  0.45593999997E+02  0.45594000000E+02  0.51100000000E-03 0. -1.
         11   -1    0    0    0    0 -0.00000000000E+00 -0.00000000000E+00 -0.45593999997E+02  0.45594000000E+02  0.51100000000E-03 0.  1.
    9900012    2    1    2    0    0 -0.15113366621E+02  0.11986997218E+01 -0.10991779736E+02  0.72461816369E+02  0.70000320557E+02 0.  0.
         12    1    1    2    0    0  0.15113366621E+02 -0.11986997218E+01  0.10991779736E+02  0.18726183631E+02  0.00000000000E+00 0. -1.
         11    1    3    3    0    0 -0.11889366957E+02  0.30266976944E+02 -0.45046382934E+01  0.32828930936E+02  0.51100000000E-03 0. -1.
        -11    1    3    3    0    0 -0.14181109425E+02 -0.13809990177E+02 -0.10916704921E+00  0.19794736950E+02  0.51100000000E-03 0.  1.
        -12    1    3    3    0    0  0.10957109761E+02 -0.15258287045E+02 -0.63779743931E+01  0.19838148483E+02  0.00000000000E+00 0.  1.
</event>
<event>
 7    1  0.2972263E-013  0.7246157E+02  0.7816164E-02  0.1226708E+00
        -11   -1    0    0    0    0  0.00000000000E+00  0.00000000000E+00  0.45593999997E+02  0.45594000000E+02  0.51100000000E-03 0. -1.
         11   -1    0    0    0    0 -0.00000000000E+00 -0.00000000000E+00 -0.45593999997E+02  0.45594000000E+02  0.51100000000E-03 0.  1.
    9900012    2    1    2    0    0 -0.16790085713E+02  0.21446772143E+01  0.80107822241E+01  0.72461568133E+02  0.69999997185E+02 0.  0.
         12    1    1    2    0    0  0.16790085713E+02 -0.21446772143E+01 -0.80107822241E+01  0.18726431867E+02  0.00000000000E+00 0. -1.
         11    1    3    3    0    0 -0.74088055060E+00 -0.92945466874E+01  0.11515641650E+02  0.14817135519E+02  0.51100000000E-03 0. -1.
        -11    1    3    3    0    0 -0.60321056484E+01 -0.21900581134E+02 -0.87111968057E+00  0.22732808940E+02  0.51100000000E-03 0.  1.
        -12    1    3    3    0    0 -0.10017099514E+02  0.33339805036E+02 -0.26337397458E+01  0.34911623674E+02  0.00000000000E+00 0.  1.
</event>
<event>
 7    1  0.2972263E-013  0.7246166E+02  0.7816164E-02  0.1226708E+00
        -11   -1    0    0    0    0  0.00000000000E+00  0.00000000000E+00  0.45593999997E+02  0.45594000000E+02  0.51100000000E-03 0. -1.
         11   -1    0    0    0    0 -0.00000000000E+00 -0.00000000000E+00 -0.45593999997E+02  0.45594000000E+02  0.51100000000E-03 0.  1.
    9900012    2    1    2    0    0 -0.15159944100E+02 -0.71671696662E+00 -0.10969884193E+02  0.72461656323E+02  0.70000112068E+02 0.  0.
         12    1    1    2    0    0  0.15159944100E+02  0.71671696662E+00  0.10969884193E+02  0.18726343677E+02  0.00000000000E+00 0. -1.
         11    1    3    3    0    0 -0.10173072506E+02  0.38768731928E+01 -0.19064005855E+02  0.21953538882E+02  0.51100000000E-03 0. -1.
        -11    1    3    3    0    0 -0.28137427786E+01  0.13873213640E+02 -0.15155039390E+02  0.20737850041E+02  0.51100000000E-03 0.  1.
         12    1    3    3    0    0 -0.21731288151E+01 -0.18466803799E+02  0.23249161052E+02  0.29770267400E+02  0.00000000000E+00 0. -1.
</event>
<event>
 7    1  0.2972263E-013  0.7246160E+02  0.7816164E-02  0.1226708E+00
        -11   -1    0    0    0    0  0.00000000000E+00  0.00000000000E+00  0.45593999997E+02  0.45594000000E+02  0.51100000000E-03 0.  1.
         11   -1    0    0    0    0 -0.00000000000E+00 -0.00000000000E+00 -0.45593999997E+02  0.45594000000E+02  0.51100000000E-03 0. -1.
    9900012    2    1    2    0    0  0.41515458374E+01  0.60727330938E+01  0.17221051911E+02  0.72461600213E+02  0.70000038975E+02 0.  0.
         12    1    1    2    0    0 -0.41515458374E+01 -0.60727330938E+01 -0.17221051911E+02  0.18726399787E+02  0.00000000000E+00 0. -1.
         11    1    3    3    0    0  0.12385659010E+02 -0.14395585506E+01 -0.87534364332E+01  0.15234813015E+02  0.51100000000E-03 0. -1.
        -11    1    3    3    0    0  0.24057195600E+01  0.15229985637E+02 -0.10367908443E+02  0.18580459490E+02  0.51100000000E-03 0.  1.
        -12    1    3    3    0    0 -0.10639832733E+02 -0.77176939930E+01  0.36342396787E+02  0.38646327709E+02  0.00000000000E+00 0.  1.
</event>
<event>
 7    1  0.2972263E-013  0.7246156E+02  0.7816164E-02  0.1226708E+00
        -11   -1    0    0    0    0  0.00000000000E+00  0.00000000000E+00  0.45593999997E+02  0.45594000000E+02  0.51100000000E-03 0. -1.
         11   -1    0    0    0    0 -0.00000000000E+00 -0.00000000000E+00 -0.45593999997E+02  0.45594000000E+02  0.51100000000E-03 0.  1.
    9900012    2    1    2    0    0 -0.13566285267E+02  0.47751130365E+01 -0.11993069377E+02  0.72461561109E+02  0.69999988034E+02 0.  0.
         12    1    1    2    0    0  0.13566285267E+02 -0.47751130365E+01  0.11993069377E+02  0.18726438891E+02  0.00000000000E+00 0. -1.
         11    1    3    3    0    0 -0.79653862813E+01 -0.14565506044E+02  0.80142270681E-01  0.16601438732E+02  0.51100000000E-03 0. -1.
        -11    1    3    3    0    0 -0.21335671138E+02  0.29021729975E+02 -0.90496571525E+01  0.37139843409E+02  0.51100000000E-03 0.  1.
         12    1    3    3    0    0  0.15734772153E+02 -0.96811108939E+01 -0.30235544951E+01  0.18720278967E+02  0.00000000000E+00 0. -1.
</event>
<event>
 7    1  0.2972263E-013  0.7246164E+02  0.7816164E-02  0.1226708E+00
        -11   -1    0    0    0    0  0.00000000000E+00  0.00000000000E+00  0.45593999997E+02  0.45594000000E+02  0.51100000000E-03 0. -1.
         11   -1    0    0    0    0 -0.00000000000E+00 -0.00000000000E+00 -0.45593999997E+02  0.45594000000E+02  0.51100000000E-03 0.  1.
    9900012    2    1    2    0    0 -0.16357511161E+01 -0.11678417724E+01 -0.18618194520E+02  0.72461636143E+02  0.70000085781E+02 0.  0.
         12    1    1    2    0    0  0.16357511161E+01  0.11678417724E+01  0.18618194520E+02  0.18726363857E+02  0.00000000000E+00 0. -1.
         11    1    3    3    0    0  0.32078821079E+01 -0.21314146224E+02  0.46123694166E+01  0.22042170691E+02  0.51100000000E-03 0. -1.
        -11    1    3    3    0    0  0.67620738711E+01  0.82186765200E+00  0.88768228610E+01  0.11189240092E+02  0.51100000000E-03 0.  1.
        -12    1    3    3    0    0 -0.11605707095E+02  0.19324436800E+02 -0.32107386797E+02  0.39230225360E+02  0.00000000000E+00 0.  1.
</event>
<event>
 7    1  0.2972263E-013  0.7246170E+02  0.7816164E-02  0.1226708E+00
        -11   -1    0    0    0    0  0.00000000000E+00  0.00000000000E+00  0.45593999997E+02  0.45594000000E+02  0.51100000000E-03 0. -1.
         11   -1    0    0    0    0 -0.00000000000E+00 -0.00000000000E+00 -0.45593999997E+02  0.45594000000E+02  0.51100000000E-03 0.  1.
    9900012    2    1    2    0    0 -0.62137039994E+01  0.48219357047E+01 -0.16994503745E+02  0.72461699275E+02  0.70000168021E+02 0.  0.
         12    1    1    2    0    0  0.62137039994E+01 -0.48219357047E+01  0.16994503745E+02  0.18726300725E+02  0.00000000000E+00 0. -1.
         11    1    3    3    0    0 -0.10163573065E+02 -0.81117655013E+01 -0.15220991145E+02  0.20019428780E+02  0.51100000000E-03 0. -1.
        -11    1    3    3    0    0 -0.19453252763E+02  0.71935622834E+00 -0.13362721733E+02  0.23611625290E+02  0.51100000000E-03 0.  1.
        -12    1    3    3    0    0  0.23403121828E+02  0.12214344978E+02  0.11589209134E+02  0.28830645204E+02  0.00000000000E+00 0.  1.
</event>
<event>
 7    1  0.2972263E-013  0.7246164E+02  0.7816164E-02  0.1226708E+00
        -11   -1    0    0    0    0  0.00000000000E+00  0.00000000000E+00  0.45593999997E+02  0.45594000000E+02  0.51100000000E-03 0. -1.
         11   -1    0    0    0    0 -0.00000000000E+00 -0.00000000000E+00 -0.45593999997E+02  0.45594000000E+02  0.51100000000E-03 0.  1.
    9900012    2    1    2    0    0 -0.20813999447E+01  0.70503117815E+01 -0.17223170258E+02  0.72461635812E+02  0.70000085349E+02 0.  0.
         12    1    1    2    0    0  0.20813999447E+01 -0.70503117815E+01  0.17223170258E+02  0.18726364188E+02  0.00000000000E+00 0. -1.
         11    1    3    3    0    0  0.47248233252E+01  0.29931516728E+02 -0.46896564324E+01  0.30662885167E+02  0.51100000000E-03 0. -1.
        -11    1    3    3    0    0  0.38147053603E+01  0.69620245644E+01 -0.64620016490E+00  0.79648815393E+01  0.51100000000E-03 0.  1.
        -12    1    3    3    0    0 -0.10620928630E+02 -0.29843229510E+02 -0.11887313661E+02  0.33833869106E+02  0.00000000000E+00 0.  1.
</event>
<event>
 7    1  0.2972263E-013  0.7246145E+02  0.7816164E-02  0.1226708E+00
        -11   -1    0    0    0    0  0.00000000000E+00  0.00000000000E+00  0.45593999997E+02  0.45594000000E+02  0.51100000000E-03 0. -1.
         11   -1    0    0    0    0 -0.00000000000E+00 -0.00000000000E+00 -0.45593999997E+02  0.45594000000E+02  0.51100000000E-03 0.  1.
    9900012    2    1    2    0    0  0.17818492050E+02  0.64422392289E+00  0.57245026947E+01  0.72461451613E+02  0.69999845395E+02 0.  0.
         12    1    1    2    0    0 -0.17818492050E+02 -0.64422392289E+00 -0.57245026947E+01  0.18726548387E+02  0.00000000000E+00 0. -1.
         11    1    3    3    0    0  0.42104940273E+01  0.42045710737E+01 -0.27131258599E+01  0.65397041263E+01  0.51100000000E-03 0. -1.
        -11    1    3    3    0    0 -0.79179337261E+01 -0.28172001609E+02 -0.64958432092E+01  0.29975845749E+02  0.51100000000E-03 0.  1.
         12    1    3    3    0    0  0.21525931749E+02  0.24611654458E+02  0.14933471764E+02  0.35945901737E+02  0.00000000000E+00 0. -1.
</event>
<event>
 7    1  0.2972263E-013  0.7246159E+02  0.7816164E-02  0.1226708E+00
        -11   -1    0    0    0    0  0.00000000000E+00  0.00000000000E+00  0.45593999997E+02  0.45594000000E+02  0.51100000000E-03 0. -1.
         11   -1    0    0    0    0 -0.00000000000E+00 -0.00000000000E+00 -0.45593999997E+02  0.45594000000E+02  0.51100000000E-03 0.  1.
    9900012    2    1    2    0    0 -0.36892679392E+01 -0.17983585538E+02  0.36957022969E+01  0.72461594520E+02  0.70000031558E+02 0.  0.
         12    1    1    2    0    0  0.36892679392E+01  0.17983585538E+02 -0.36957022969E+01  0.18726405480E+02  0.00000000000E+00 0. -1.
         11    1    3    3    0    0  0.83487779122E+01 -0.43293517906E+00 -0.27879209087E+01  0.88126062406E+01  0.51100000000E-03 0. -1.
        -11    1    3    3    0    0  0.75151481169E+01 -0.34601276452E+02 -0.40703452877E+01  0.35641176950E+02  0.51100000000E-03 0.  1.
         12    1    3    3    0    0 -0.19553193968E+02  0.17050626093E+02  0.10553968493E+02  0.28007811330E+02  0.00000000000E+00 0. -1.
</event>
<event>
 7    1  0.2972263E-013  0.7246156E+02  0.7816164E-02  0.1226708E+00
        -11   -1    0    0    0    0  0.00000000000E+00  0.00000000000E+00  0.45593999997E+02  0.45594000000E+02  0.51100000000E-03 0.  1.
         11   -1    0    0    0    0 -0.00000000000E+00 -0.00000000000E+00 -0.45593999997E+02  0.45594000000E+02  0.51100000000E-03 0. -1.
    9900012    2    1    2    0    0 -0.13390369586E+02 -0.17209015148E+01  0.12977521324E+02  0.72461559885E+02  0.69999986440E+02 0.  0.
         12    1    1    2    0    0  0.13390369586E+02  0.17209015148E+01 -0.12977521324E+02  0.18726440115E+02  0.00000000000E+00 0. -1.
         11    1    3    3    0    0  0.20618137757E+01  0.13774029501E+02 -0.10259347376E+02  0.17298241922E+02  0.51100000000E-03 0. -1.
        -11    1    3    3    0    0 -0.28037124049E+02 -0.43752739445E+01  0.25104903712E+01  0.28487293820E+02  0.51100000000E-03 0.  1.
         12    1    3    3    0    0  0.12584940687E+02 -0.11119657071E+02  0.20726378328E+02  0.26676024143E+02  0.00000000000E+00 0. -1.
</event>
<event>
 7    1  0.2972263E-013  0.7246158E+02  0.7816164E-02  0.1226708E+00
        -11   -1    0    0    0    0  0.00000000000E+00  0.00000000000E+00  0.45593999997E+02  0.45594000000E+02  0.51100000000E-03 0.  1.
         11   -1    0    0    0    0 -0.00000000000E+00 -0.00000000000E+00 -0.45593999997E+02  0.45594000000E+02  0.51100000000E-03 0. -1.
    9900012    2    1    2    0    0 -0.51037483851E+01  0.14018892893E+02  0.11318176918E+02  0.72461581916E+02  0.70000015139E+02 0.  0.
         12    1    1    2    0    0  0.51037483851E+01 -0.14018892893E+02 -0.11318176918E+02  0.18726418084E+02  0.00000000000E+00 0. -1.
         11    1    3    3    0    0 -0.79995297572E+01 -0.20705007605E+02  0.27855267215E+01  0.22370716923E+02  0.51100000000E-03 0. -1.
        -11    1    3    3    0    0 -0.52903841181E+01  0.17500702125E+02 -0.12155216708E+02  0.21954772430E+02  0.51100000000E-03 0.  1.
        -12    1    3    3    0    0  0.81861654902E+01  0.17223198374E+02  0.20687866904E+02  0.28136092563E+02  0.00000000000E+00 0.  1.
</event>
<event>
 7    1  0.2972263E-013  0.7246151E+02  0.7816164E-02  0.1226708E+00
        -11   -1    0    0    0    0  0.00000000000E+00  0.00000000000E+00  0.45593999997E+02  0.45594000000E+02  0.51100000000E-03 0. -1.
         11   -1    0    0    0    0 -0.00000000000E+00 -0.00000000000E+00 -0.45593999997E+02  0.45594000000E+02  0.51100000000E-03 0.  1.
    9900012    2    1    2    0    0  0.44344391493E+01 -0.17506700764E+02  0.49530273778E+01  0.72461513346E+02  0.69999925814E+02 0.  0.
         12    1    1    2    0    0 -0.44344391493E+01  0.17506700764E+02 -0.49530273778E+01  0.18726486654E+02  0.00000000000E+00 0. -1.
         11    1    3    3    0    0 -0.70751446070E+01 -0.83044770818E+01  0.14380039580E+02  0.18050139872E+02  0.51100000000E-03 0. -1.
        -11    1    3    3    0    0 -0.13694053119E+02  0.85582839654E+01 -0.16167091487E+02  0.22850517776E+02  0.51100000000E-03 0.  1.
         12    1    3    3    0    0  0.25203636875E+02 -0.17760507647E+02  0.67400792847E+01  0.31560855698E+02  0.00000000000E+00 0. -1.
</event>
<event>
 7    1  0.2972263E-013  0.7246162E+02  0.7816164E-02  0.1226708E+00
        -11   -1    0    0    0    0  0.00000000000E+00  0.00000000000E+00  0.45593999997E+02  0.45594000000E+02  0.51100000000E-03 0. -1.
         11   -1    0    0    0    0 -0.00000000000E+00 -0.00000000000E+00 -0.45593999997E+02  0.45594000000E+02  0.51100000000E-03 0.  1.
    9900012    2    1    2    0    0  0.15046190560E+01 -0.97609745600E+01 -0.15910268518E+02  0.72461624292E+02  0.70000070342E+02 0.  0.
         12    1    1    2    0    0 -0.15046190560E+01  0.97609745600E+01  0.15910268518E+02  0.18726375708E+02  0.00000000000E+00 0. -1.
         11    1    3    3    0    0 -0.82696330501E+01 -0.22721882159E+02 -0.38107278546E+00  0.24182968725E+02  0.51100000000E-03 0. -1.
        -11    1    3    3    0    0  0.12813410199E+02 -0.13759904779E+02 -0.70530446478E+01  0.20081431710E+02  0.51100000000E-03 0.  1.
         12    1    3    3    0    0 -0.30391580932E+01  0.26720812378E+02 -0.84761510844E+01  0.28197223857E+02  0.00000000000E+00 0. -1.
</event>
<event>
 7    1  0.2972263E-013  0.7246159E+02  0.7816164E-02  0.1226708E+00
        -11   -1    0    0    0    0  0.00000000000E+00  0.00000000000E+00  0.45593999997E+02  0.45594000000E+02  0.51100000000E-03 0.  1.
         11   -1    0    0    0    0 -0.00000000000E+00 -0.00000000000E+00 -0.45593999997E+02  0.45594000000E+02  0.51100000000E-03 0. -1.
    9900012    2    1    2    0    0  0.32577617515E+01  0.15125484306E+02 -0.10549174489E+02  0.72461591655E+02  0.70000027826E+02 0.  0.
         12    1    1    2    0    0 -0.32577617515E+01 -0.15125484306E+02  0.10549174489E+02  0.18726408345E+02  0.00000000000E+00 0. -1.
         11    1    3    3    0    0  0.66068059907E+01 -0.81300814046E+01 -0.44331596040E+00  0.10485448886E+02  0.51100000000E-03 0. -1.
        -11    1    3    3    0    0 -0.60058550440E+01 -0.74232252775E+01  0.17941387686E+02  0.20324073428E+02  0.51100000000E-03 0.  1.
         12    1    3    3    0    0  0.26568108047E+01  0.30678790988E+02 -0.28047246215E+02  0.41652069341E+02  0.00000000000E+00 0. -1.
</event>
<event>
 7    1  0.2972263E-013  0.7246159E+02  0.7816164E-02  0.1226708E+00
        -11   -1    0    0    0    0  0.00000000000E+00  0.00000000000E+00  0.45593999997E+02  0.45594000000E+02  0.51100000000E-03 0.  1.
         11   -1    0    0    0    0 -0.00000000000E+00 -0.00000000000E+00 -0.45593999997E+02  0.45594000000E+02  0.51100000000E-03 0. -1.
    9900012    2    1    2    0    0  0.12476294737E+02 -0.92634171456E+01  0.10450337017E+02  0.72461591606E+02  0.70000027762E+02 0.  0.
         12    1    1    2    0    0 -0.12476294737E+02  0.92634171456E+01 -0.10450337017E+02  0.18726408394E+02  0.00000000000E+00 0. -1.
         11    1    3    3    0    0  0.10863814622E+02  0.45148458575E+01 -0.15023743515E+02  0.19081906894E+02  0.51100000000E-03 0. -1.
        -11    1    3    3    0    0  0.45229912586E+01  0.16158917162E+02  0.79396833153E+01  0.18563583306E+02  0.51100000000E-03 0.  1.
        -12    1    3    3    0    0 -0.29105111433E+01 -0.29937180165E+02  0.17534397217E+02  0.34816101405E+02  0.00000000000E+00 0.  1.
</event>
<event>
 7    1  0.2972263E-013  0.7246160E+02  0.7816164E-02  0.1226708E+00
        -11   -1    0    0    0    0  0.00000000000E+00  0.00000000000E+00  0.45593999997E+02  0.45594000000E+02  0.51100000000E-03 0.  1.
         11   -1    0    0    0    0 -0.00000000000E+00 -0.00000000000E+00 -0.45593999997E+02  0.45594000000E+02  0.51100000000E-03 0. -1.
    9900012    2    1    2    0    0 -0.89506503299E+01 -0.99011600774E+01  0.13135104818E+02  0.72461599097E+02  0.70000037520E+02 0.  0.
         12    1    1    2    0    0  0.89506503299E+01  0.99011600774E+01 -0.13135104818E+02  0.18726400903E+02  0.00000000000E+00 0. -1.
         11    1    3    3    0    0  0.22479916378E+02 -0.32772279067E+01  0.68721735751E+01  0.23734229144E+02  0.51100000000E-03 0. -1.
        -11    1    3    3    0    0  0.53962270242E+01  0.60334058917E+01 -0.31143608334E+01  0.86729750612E+01  0.51100000000E-03 0.  1.
        -12    1    3    3    0    0 -0.36826793733E+02 -0.12657338062E+02  0.93772920766E+01  0.40054394892E+02  0.00000000000E+00 0.  1.
</event>
<event>
 7    1  0.2972263E-013  0.7246157E+02  0.7816164E-02  0.1226708E+00
        -11   -1    0    0    0    0  0.00000000000E+00  0.00000000000E+00  0.45593999997E+02  0.45594000000E+02  0.51100000000E-03 0. -1.
         11   -1    0    0    0    0 -0.00000000000E+00 -0.00000000000E+00 -0.45593999997E+02  0.45594000000E+02  0.51100000000E-03 0.  1.
    9900012    2    1    2    0    0 -0.15373331710E+02 -0.83322380658E+01 -0.67017577711E+01  0.72461572784E+02  0.70000003244E+02 0.  0.
         12    1    1    2    0    0  0.15373331710E+02  0.83322380658E+01  0.67017577711E+01  0.18726427216E+02  0.00000000000E+00 0. -1.
         11    1    3    3    0    0 -0.32337724838E+02 -0.95524731030E+01  0.17521831459E+02  0.37999904842E+02  0.51100000000E-03 0. -1.
        -11    1    3    3    0    0 -0.16954335671E+01 -0.36777861039E+01 -0.90590914729E+01  0.99230914629E+01  0.51100000000E-03 0.  1.
        -12    1    3    3    0    0  0.18659826695E+02  0.48980211411E+01 -0.15164497758E+02  0.24538576479E+02  0.00000000000E+00 0.  1.
</event>
<event>
 7    1  0.2972263E-013  0.7246153E+02  0.7816164E-02  0.1226708E+00
        -11   -1    0    0    0    0  0.00000000000E+00  0.00000000000E+00  0.45593999997E+02  0.45594000000E+02  0.51100000000E-03 0.  1.
         11   -1    0    0    0    0 -0.00000000000E+00 -0.00000000000E+00 -0.45593999997E+02  0.45594000000E+02  0.51100000000E-03 0. -1.
    9900012    2    1    2    0    0  0.96394873414E+01  0.82992566193E+01  0.13743481039E+02  0.72461530826E+02  0.69999948585E+02 0.  0.
         12    1    1    2    0    0 -0.96394873414E+01 -0.82992566193E+01 -0.13743481039E+02  0.18726469174E+02  0.00000000000E+00 0. -1.
         11    1    3    3    0    0  0.19991124021E+02  0.16352405030E+02  0.16785351480E+02  0.30802503380E+02  0.51100000000E-03 0. -1.
        -11    1    3    3    0    0  0.25669353932E+01  0.40516461868E+01  0.15379351926E+02  0.16109918065E+02  0.51100000000E-03 0.  1.
        -12    1    3    3    0    0 -0.12918572073E+02 -0.12104794598E+02 -0.18421222367E+02  0.25549109381E+02  0.00000000000E+00 0.  1.
</event>
<event>
 7    1  0.2972263E-013  0.7246155E+02  0.7816164E-02  0.1226708E+00
        -11   -1    0    0    0    0  0.00000000000E+00  0.00000000000E+00  0.45593999997E+02  0.45594000000E+02  0.51100000000E-03 0.  1.
         11   -1    0    0    0    0 -0.00000000000E+00 -0.00000000000E+00 -0.45593999997E+02  0.45594000000E+02  0.51100000000E-03 0. -1.
    9900012    2    1    2    0    0  0.17504955343E+02 -0.66259026471E+01  0.59472642539E+00  0.72461554876E+02  0.69999979915E+02 0.  0.
         12    1    1    2    0    0 -0.17504955343E+02  0.66259026471E+01 -0.59472642539E+00  0.18726445124E+02  0.00000000000E+00 0. -1.
         11    1    3    3    0    0 -0.76354243074E+00 -0.79602920290E+01 -0.11764348685E+02  0.14224948031E+02  0.51100000000E-03 0. -1.
        -11    1    3    3    0    0 -0.49865077771E+01 -0.15695847396E+02  0.22321580265E+02  0.27739463424E+02  0.51100000000E-03 0.  1.
         12    1    3    3    0    0  0.23255005551E+02  0.17030236778E+02 -0.99625051541E+01  0.30497143421E+02  0.00000000000E+00 0. -1.
</event>
<event>
 7    1  0.2972263E-013  0.7246158E+02  0.7816164E-02  0.1226708E+00
        -11   -1    0    0    0    0  0.00000000000E+00  0.00000000000E+00  0.45593999997E+02  0.45594000000E+02  0.51100000000E-03 0.  1.
         11   -1    0    0    0    0 -0.00000000000E+00 -0.00000000000E+00 -0.45593999997E+02  0.45594000000E+02  0.51100000000E-03 0. -1.
    9900012    2    1    2    0    0  0.99719981984E+01 -0.14041663170E+02  0.73532118512E+01  0.72461580770E+02  0.70000013646E+02 0.  0.
         12    1    1    2    0    0 -0.99719981984E+01  0.14041663170E+02 -0.73532118512E+01  0.18726419230E+02  0.00000000000E+00 0. -1.
         11    1    3    3    0    0 -0.24100434216E+02 -0.81266656651E+01 -0.46204676639E+01  0.25849997020E+02  0.51100000000E-03 0. -1.
        -11    1    3    3    0    0 -0.12221715002E+01 -0.40506503206E+01  0.10405723735E+02  0.11233011970E+02  0.51100000000E-03 0.  1.
        -12    1    3    3    0    0  0.35294603914E+02 -0.18643471846E+01  0.15679557798E+01  0.35378571780E+02  0.00000000000E+00 0.  1.
</event>
<event>
 7    1  0.2972263E-013  0.7246154E+02  0.7816164E-02  0.1226708E+00
        -11   -1    0    0    0    0  0.00000000000E+00  0.00000000000E+00  0.45593999997E+02  0.45594000000E+02  0.51100000000E-03 0. -1.
         11   -1    0    0    0    0 -0.00000000000E+00 -0.00000000000E+00 -0.45593999997E+02  0.45594000000E+02  0.51100000000E-03 0.  1.
    9900012    2    1    2    0    0 -0.12735474416E+02  0.76914522133E+01 -0.11372320321E+02  0.72461537034E+02  0.69999956672E+02 0.  0.
         12    1    1    2    0    0  0.12735474416E+02 -0.76914522133E+01  0.11372320321E+02  0.18726462966E+02  0.00000000000E+00 0. -1.
         11    1    3    3    0    0 -0.27995599745E+01 -0.50626115767E+01 -0.68126088877E+00  0.58250913029E+01  0.51100000000E-03 0. -1.
        -11    1    3    3    0    0  0.22357104773E+02 -0.80574522553E+01 -0.14804188719E+02  0.27998690587E+02  0.51100000000E-03 0.  1.
         12    1    3    3    0    0 -0.32293019214E+02  0.20811516045E+02  0.41131292871E+01  0.38637755144E+02  0.00000000000E+00 0. -1.
</event>
<event>
 7    1  0.2972263E-013  0.7246155E+02  0.7816164E-02  0.1226708E+00
        -11   -1    0    0    0    0  0.00000000000E+00  0.00000000000E+00  0.45593999997E+02  0.45594000000E+02  0.51100000000E-03 0.  1.
         11   -1    0    0    0    0 -0.00000000000E+00 -0.00000000000E+00 -0.45593999997E+02  0.45594000000E+02  0.51100000000E-03 0. -1.
    9900012    2    1    2    0    0  0.15257931771E+02  0.91908457734E+01 -0.57795863852E+01  0.72461554882E+02  0.69999979923E+02 0.  0.
         12    1    1    2    0    0 -0.15257931771E+02 -0.91908457734E+01  0.57795863852E+01  0.18726445118E+02  0.00000000000E+00 0. -1.
         11    1    3    3    0    0  0.83354064005E+01  0.80012889872E+01 -0.16448317427E+02  0.20100914700E+02  0.51100000000E-03 0. -1.
        -11    1    3    3    0    0  0.43918671551E+01 -0.40318986179E+01 -0.20143274600E+02  0.21007051565E+02  0.51100000000E-03 0.  1.
        -12    1    3    3    0    0  0.25306582159E+01  0.52214554042E+01  0.30812005642E+02  0.31353588618E+02  0.00000000000E+00 0.  1.
</event>
<event>
 7    1  0.2972263E-013  0.7246162E+02  0.7816164E-02  0.1226708E+00
        -11   -1    0    0    0    0  0.00000000000E+00  0.00000000000E+00  0.45593999997E+02  0.45594000000E+02  0.51100000000E-03 0. -1.
         11   -1    0    0    0    0 -0.00000000000E+00 -0.00000000000E+00 -0.45593999997E+02  0.45594000000E+02  0.51100000000E-03 0.  1.
    9900012    2    1    2    0    0 -0.10617970134E+02  0.98867540954E+01 -0.11840098571E+02  0.72461624738E+02  0.70000070923E+02 0.  0.
         12    1    1    2    0    0  0.10617970134E+02 -0.98867540954E+01  0.11840098571E+02  0.18726375262E+02  0.00000000000E+00 0. -1.
         11    1    3    3    0    0  0.13233803647E+02 -0.22670504697E+02  0.24492907103E+01  0.26364452724E+02  0.51100000000E-03 0. -1.
        -11    1    3    3    0    0 -0.16730246704E+01 -0.10935503843E+01  0.18117297449E+01  0.26976339485E+01  0.51100000000E-03 0.  1.
        -12    1    3    3    0    0 -0.22178749110E+02  0.33650809177E+02 -0.16101119026E+02  0.43399538065E+02  0.00000000000E+00 0.  1.
</event>
<event>
 7    1  0.3492519E-013  0.7246159E+02  0.7816164E-02  0.1226708E+00
        -11   -1    0    0    0    0  0.00000000000E+00  0.00000000000E+00  0.45593999997E+02  0.45594000000E+02  0.51100000000E-03 0. -1.
         11   -1    0    0    0    0 -0.00000000000E+00 -0.00000000000E+00 -0.45593999997E+02  0.45594000000E+02  0.51100000000E-03 0.  1.
    9900012    2    1    2    0    0  0.60256394209E+01  0.81077417364E+01 -0.15768149597E+02  0.72461592224E+02  0.70000028567E+02 0.  0.
         12    1    1    2    0    0 -0.60256394209E+01 -0.81077417364E+01  0.15768149597E+02  0.18726407776E+02  0.00000000000E+00 0. -1.
         11    1    3    3    0    0 -0.34884991997E+01 -0.24661438374E+02 -0.73526513026E+01  0.25969552380E+02  0.51100000000E-03 0. -1.
        -11    1    3    3    0    0  0.86066373418E+01  0.15062915380E+01 -0.12180424091E+02  0.14990191855E+02  0.51100000000E-03 0.  1.
        -12    1    3    3    0    0  0.90750127877E+00  0.31262888573E+02  0.37649257970E+01  0.31501847989E+02  0.00000000000E+00 0.  1.
</event>
<event>
 7    1  0.2972263E-013  0.7246157E+02  0.7816164E-02  0.1226708E+00
        -11   -1    0    0    0    0  0.00000000000E+00  0.00000000000E+00  0.45593999997E+02  0.45594000000E+02  0.51100000000E-03 0. -1.
         11   -1    0    0    0    0 -0.00000000000E+00 -0.00000000000E+00 -0.45593999997E+02  0.45594000000E+02  0.51100000000E-03 0.  1.
    9900012    2    1    2    0    0 -0.15055370369E+02  0.69886478908E+01 -0.86702842789E+01  0.72461569327E+02  0.69999998740E+02 0.  0.
         12    1    1    2    0    0  0.15055370369E+02 -0.69886478908E+01  0.86702842789E+01  0.18726430673E+02  0.00000000000E+00 0. -1.
         11    1    3    3    0    0  0.10998394287E+02 -0.14011247070E+02  0.10523997164E+02  0.20688988325E+02  0.51100000000E-03 0. -1.
        -11    1    3    3    0    0 -0.68002727520E+01  0.19279627257E+02  0.47610733860E+01  0.20990844592E+02  0.51100000000E-03 0.  1.
        -12    1    3    3    0    0 -0.19253491903E+02  0.17202677038E+01 -0.23955354829E+02  0.30781736410E+02  0.00000000000E+00 0.  1.
</event>
<event>
 7    1  0.2972263E-013  0.7246154E+02  0.7816164E-02  0.1226708E+00
        -11   -1    0    0    0    0  0.00000000000E+00  0.00000000000E+00  0.45593999997E+02  0.45594000000E+02  0.51100000000E-03 0. -1.
         11   -1    0    0    0    0 -0.00000000000E+00 -0.00000000000E+00 -0.45593999997E+02  0.45594000000E+02  0.51100000000E-03 0.  1.
    9900012    2    1    2    0    0 -0.10347038715E+02  0.14765800764E+02  0.50586699687E+01  0.72461542134E+02  0.69999963316E+02 0.  0.
         12    1    1    2    0    0  0.10347038715E+02 -0.14765800764E+02 -0.50586699687E+01  0.18726457866E+02  0.00000000000E+00 0. -1.
         11    1    3    3    0    0 -0.19400842419E+01  0.41045173420E+01  0.31563258687E+02  0.31888090076E+02  0.51100000000E-03 0. -1.
        -11    1    3    3    0    0  0.41162629534E+01  0.15998738582E+02 -0.10553384667E+02  0.19602989188E+02  0.51100000000E-03 0.  1.
         12    1    3    3    0    0 -0.12523217426E+02 -0.53374551606E+01 -0.15951204051E+02  0.20970462870E+02  0.00000000000E+00 0. -1.
</event>
<event>
 7    1  0.2972263E-013  0.7246160E+02  0.7816164E-02  0.1226708E+00
        -11   -1    0    0    0    0  0.00000000000E+00  0.00000000000E+00  0.45593999997E+02  0.45594000000E+02  0.51100000000E-03 0. -1.
         11   -1    0    0    0    0 -0.00000000000E+00 -0.00000000000E+00 -0.45593999997E+02  0.45594000000E+02  0.51100000000E-03 0.  1.
    9900012    2    1    2    0    0 -0.43860279645E+01 -0.81247399371E+01 -0.16292009560E+02  0.72461595757E+02  0.70000033170E+02 0.  0.
         12    1    1    2    0    0  0.43860279645E+01  0.81247399371E+01  0.16292009560E+02  0.18726404243E+02  0.00000000000E+00 0. -1.
         11    1    3    3    0    0 -0.17182914404E+02 -0.94663147283E+01 -0.11226131868E+02  0.22602869263E+02  0.51100000000E-03 0. -1.
        -11    1    3    3    0    0 -0.14209260187E+02  0.12082072814E+02  0.46352048077E+01  0.19218862672E+02  0.51100000000E-03 0.  1.
        -12    1    3    3    0    0  0.27006146626E+02 -0.10740498023E+02 -0.97010824997E+01  0.30639863822E+02  0.00000000000E+00 0.  1.
</event>
<event>
 7    1  0.2972263E-013  0.7246158E+02  0.7816164E-02  0.1226708E+00
        -11   -1    0    0    0    0  0.00000000000E+00  0.00000000000E+00  0.45593999997E+02  0.45594000000E+02  0.51100000000E-03 0. -1.
         11   -1    0    0    0    0 -0.00000000000E+00 -0.00000000000E+00 -0.45593999997E+02  0.45594000000E+02  0.51100000000E-03 0.  1.
    9900012    2    1    2    0    0  0.12307395662E+02 -0.24275414463E+01 -0.13903738717E+02  0.72461577603E+02  0.70000009521E+02 0.  0.
         12    1    1    2    0    0 -0.12307395662E+02  0.24275414463E+01  0.13903738717E+02  0.18726422397E+02  0.00000000000E+00 0. -1.
         11    1    3    3    0    0 -0.49765493886E+01  0.34807569709E+01  0.56065214800E+01  0.82652765395E+01  0.51100000000E-03 0. -1.
        -11    1    3    3    0    0 -0.10149318412E+02  0.20623799165E+02 -0.78765527512E+01  0.24297939002E+02  0.51100000000E-03 0.  1.
        -12    1    3    3    0    0  0.27433263463E+02 -0.26532097582E+02 -0.11633707446E+02  0.39898362062E+02  0.00000000000E+00 0.  1.
</event>
<event>
 7    1  0.2972263E-013  0.7246159E+02  0.7816164E-02  0.1226708E+00
        -11   -1    0    0    0    0  0.00000000000E+00  0.00000000000E+00  0.45593999997E+02  0.45594000000E+02  0.51100000000E-03 0. -1.
         11   -1    0    0    0    0 -0.00000000000E+00 -0.00000000000E+00 -0.45593999997E+02  0.45594000000E+02  0.51100000000E-03 0.  1.
    9900012    2    1    2    0    0  0.12665531984E+02  0.11042482780E+02 -0.82659729674E+01  0.72461589894E+02  0.70000025532E+02 0.  0.
         12    1    1    2    0    0 -0.12665531984E+02 -0.11042482780E+02  0.82659729674E+01  0.18726410106E+02  0.00000000000E+00 0. -1.
         11    1    3    3    0    0 -0.63411968980E+01  0.14050311212E+02 -0.54801259461E+01  0.16360128480E+02  0.51100000000E-03 0.  1.
        -11    1    3    3    0    0 -0.80426134243E+00  0.80277072596E+01  0.21446086961E+02  0.22913436371E+02  0.51100000000E-03 0. -1.
        -12    1    3    3    0    0  0.19810990224E+02 -0.11035535692E+02 -0.24231933982E+02  0.33188025042E+02  0.00000000000E+00 0.  1.
</event>
<event>
 7    1  0.2972263E-013  0.7246154E+02  0.7816164E-02  0.1226708E+00
        -11   -1    0    0    0    0  0.00000000000E+00  0.00000000000E+00  0.45593999997E+02  0.45594000000E+02  0.51100000000E-03 0.  1.
         11   -1    0    0    0    0 -0.00000000000E+00 -0.00000000000E+00 -0.45593999997E+02  0.45594000000E+02  0.51100000000E-03 0. -1.
    9900012    2    1    2    0    0  0.11491679622E+02  0.54827856086E+00  0.14775686412E+02  0.72461542277E+02  0.69999963502E+02 0.  0.
         12    1    1    2    0    0 -0.11491679622E+02 -0.54827856086E+00 -0.14775686412E+02  0.18726457723E+02  0.00000000000E+00 0. -1.
         11    1    3    3    0    0  0.24962282973E+02  0.80870860439E+01  0.12118951773E+02  0.28903036592E+02  0.51100000000E-03 0. -1.
        -11    1    3    3    0    0  0.38543785481E+01  0.73506810114E+01  0.15331350360E+02  0.17433847810E+02  0.51100000000E-03 0.  1.
         12    1    3    3    0    0 -0.17324981898E+02 -0.14889488494E+02 -0.12674615722E+02  0.26124657875E+02  0.00000000000E+00 0. -1.
</event>
<event>
 7    1  0.2972263E-013  0.7246158E+02  0.7816164E-02  0.1226708E+00
        -11   -1    0    0    0    0  0.00000000000E+00  0.00000000000E+00  0.45593999997E+02  0.45594000000E+02  0.51100000000E-03 0.  1.
         11   -1    0    0    0    0 -0.00000000000E+00 -0.00000000000E+00 -0.45593999997E+02  0.45594000000E+02  0.51100000000E-03 0. -1.
    9900012    2    1    2    0    0 -0.10644938409E+02 -0.15153124026E+02  0.27833560445E+01  0.72461576093E+02  0.70000007554E+02 0.  0.
         12    1    1    2    0    0  0.10644938409E+02  0.15153124026E+02 -0.27833560445E+01  0.18726423907E+02  0.00000000000E+00 0. -1.
         11    1    3    3    0    0  0.14452921339E+02  0.53128083608E+01  0.49666243429E+01  0.16179623776E+02  0.51100000000E-03 0. -1.
        -11    1    3    3    0    0  0.26047616216E+01  0.74118132086E+01  0.12132851656E+02  0.14454267457E+02  0.51100000000E-03 0.  1.
         12    1    3    3    0    0 -0.27702621369E+02 -0.27877745595E+02 -0.14316119954E+02  0.41827684860E+02  0.00000000000E+00 0. -1.
</event>
<event>
 7    1  0.2972263E-013  0.7246155E+02  0.7816164E-02  0.1226708E+00
        -11   -1    0    0    0    0  0.00000000000E+00  0.00000000000E+00  0.45593999997E+02  0.45594000000E+02  0.51100000000E-03 0. -1.
         11   -1    0    0    0    0 -0.00000000000E+00 -0.00000000000E+00 -0.45593999997E+02  0.45594000000E+02  0.51100000000E-03 0.  1.
    9900012    2    1    2    0    0  0.56719423406E+01  0.14683537346E+02 -0.10144094657E+02  0.72461551984E+02  0.69999976147E+02 0.  0.
         12    1    1    2    0    0 -0.56719423406E+01 -0.14683537346E+02  0.10144094657E+02  0.18726448016E+02  0.00000000000E+00 0. -1.
         11    1    3    3    0    0 -0.79545819243E+01  0.22333889843E+02 -0.19243374010E+02  0.30534987353E+02  0.51100000000E-03 0. -1.
        -11    1    3    3    0    0  0.17592339434E+02  0.83109625074E+01 -0.51927761183E+01  0.20137711603E+02  0.51100000000E-03 0.  1.
         12    1    3    3    0    0 -0.39658151686E+01 -0.15961315005E+02  0.14292055471E+02  0.21788853027E+02  0.00000000000E+00 0. -1.
</event>
<event>
 7    1  0.2972263E-013  0.7246152E+02  0.7816164E-02  0.1226708E+00
        -11   -1    0    0    0    0  0.00000000000E+00  0.00000000000E+00  0.45593999997E+02  0.45594000000E+02  0.51100000000E-03 0. -1.
         11   -1    0    0    0    0 -0.00000000000E+00 -0.00000000000E+00 -0.45593999997E+02  0.45594000000E+02  0.51100000000E-03 0.  1.
    9900012    2    1    2    0    0 -0.14610561831E+02 -0.14765656418E+01 -0.11620345181E+02  0.72461516474E+02  0.69999929889E+02 0.  0.
         12    1    1    2    0    0  0.14610561831E+02  0.14765656418E+01  0.11620345181E+02  0.18726483526E+02  0.00000000000E+00 0. -1.
         11    1    3    3    0    0  0.73556591918E+01 -0.30546478133E+01 -0.52650363973E+01  0.95476281838E+01  0.51100000000E-03 0. -1.
        -11    1    3    3    0    0 -0.14300319519E+02  0.24370648393E-01 -0.32562554414E+02  0.35564303487E+02  0.51100000000E-03 0.  1.
         12    1    3    3    0    0 -0.76659015044E+01  0.15537115231E+01  0.26207245630E+02  0.27349584803E+02  0.00000000000E+00 0. -1.
</event>
<event>
 7    1  0.2972263E-013  0.7246152E+02  0.7816164E-02  0.1226708E+00
        -11   -1    0    0    0    0  0.00000000000E+00  0.00000000000E+00  0.45593999997E+02  0.45594000000E+02  0.51100000000E-03 0.  1.
         11   -1    0    0    0    0 -0.00000000000E+00 -0.00000000000E+00 -0.45593999997E+02  0.45594000000E+02  0.51100000000E-03 0. -1.
    9900012    2    1    2    0    0 -0.13338497689E+02  0.36897799168E+01  0.12615503930E+02  0.72461523133E+02  0.69999938564E+02 0.  0.
         12    1    1    2    0    0  0.13338497689E+02 -0.36897799168E+01 -0.12615503930E+02  0.18726476867E+02  0.00000000000E+00 0. -1.
         11    1    3    3    0    0 -0.16373624872E+02  0.25462258155E+02  0.11509513108E+02  0.32386587873E+02  0.51100000000E-03 0. -1.
        -11    1    3    3    0    0 -0.82705246060E+01 -0.28122214605E+01  0.12486587510E+02  0.15238931548E+02  0.51100000000E-03 0.  1.
        -12    1    3    3    0    0  0.11305651789E+02 -0.18960256777E+02 -0.11380596689E+02  0.24836003713E+02  0.00000000000E+00 0.  1.
</event>
<event>
 7    1  0.2972263E-013  0.7246158E+02  0.7816164E-02  0.1226708E+00
        -11   -1    0    0    0    0  0.00000000000E+00  0.00000000000E+00  0.45593999997E+02  0.45594000000E+02  0.51100000000E-03 0.  1.
         11   -1    0    0    0    0 -0.00000000000E+00 -0.00000000000E+00 -0.45593999997E+02  0.45594000000E+02  0.51100000000E-03 0. -1.
    9900012    2    1    2    0    0  0.48141471834E+01 -0.16580557183E+02  0.72517472341E+01  0.72461582095E+02  0.70000015373E+02 0.  0.
         12    1    1    2    0    0 -0.48141471834E+01  0.16580557183E+02 -0.72517472341E+01  0.18726417905E+02  0.00000000000E+00 0. -1.
         11    1    3    3    0    0  0.50494353539E+01  0.20386361599E+02 -0.51113214090E+01  0.21615414487E+02  0.51100000000E-03 0. -1.
        -11    1    3    3    0    0  0.80686562648E+01 -0.33996499515E+00  0.10496017995E+02  0.13243307145E+02  0.51100000000E-03 0.  1.
        -12    1    3    3    0    0 -0.83039444353E+01 -0.36626953787E+02  0.18670506484E+01  0.37602860463E+02  0.00000000000E+00 0.  1.
</event>
<event>
 7    1  0.2972263E-013  0.7246158E+02  0.7816164E-02  0.1226708E+00
        -11   -1    0    0    0    0  0.00000000000E+00  0.00000000000E+00  0.45593999997E+02  0.45594000000E+02  0.51100000000E-03 0. -1.
         11   -1    0    0    0    0 -0.00000000000E+00 -0.00000000000E+00 -0.45593999997E+02  0.45594000000E+02  0.51100000000E-03 0.  1.
    9900012    2    1    2    0    0 -0.15626525778E+02  0.98588078357E+01  0.30486777282E+01  0.72461579206E+02  0.70000011610E+02 0.  0.
         12    1    1    2    0    0  0.15626525778E+02 -0.98588078357E+01 -0.30486777282E+01  0.18726420794E+02  0.00000000000E+00 0. -1.
         11    1    3    3    0    0  0.22213003683E+01 -0.14887816461E+02  0.18643872283E+02  0.23961953766E+02  0.51100000000E-03 0. -1.
        -11    1    3    3    0    0  0.95513466227E+01  0.87551845594E+01 -0.98107218051E+01  0.16252130370E+02  0.51100000000E-03 0.  1.
        -12    1    3    3    0    0 -0.27399172769E+02  0.15991439737E+02 -0.57844727499E+01  0.32247495070E+02  0.00000000000E+00 0.  1.
</event>
<event>
 7    1  0.2972263E-013  0.7246158E+02  0.7816164E-02  0.1226708E+00
        -11   -1    0    0    0    0  0.00000000000E+00  0.00000000000E+00  0.45593999997E+02  0.45594000000E+02  0.51100000000E-03 0. -1.
         11   -1    0    0    0    0 -0.00000000000E+00 -0.00000000000E+00 -0.45593999997E+02  0.45594000000E+02  0.51100000000E-03 0.  1.
    9900012    2    1    2    0    0  0.16530292514E+01  0.17013295653E+02  0.76481522958E+01  0.72461575669E+02  0.70000007002E+02 0.  0.
         12    1    1    2    0    0 -0.16530292514E+01 -0.17013295653E+02 -0.76481522958E+01  0.18726424331E+02  0.00000000000E+00 0. -1.
         11    1    3    3    0    0  0.81430487007E+01  0.13737435082E+02  0.71608544964E+01  0.17501548564E+02  0.51100000000E-03 0. -1.
        -11    1    3    3    0    0 -0.58101230014E+01  0.27935121728E+02  0.71347463391E+01  0.29411446086E+02  0.51100000000E-03 0.  1.
         12    1    3    3    0    0 -0.67989644789E+00 -0.24659261157E+02 -0.66474485397E+01  0.25548581019E+02  0.00000000000E+00 0. -1.
</event>
<event>
 7    1  0.2972263E-013  0.7246159E+02  0.7816164E-02  0.1226708E+00
        -11   -1    0    0    0    0  0.00000000000E+00  0.00000000000E+00  0.45593999997E+02  0.45594000000E+02  0.51100000000E-03 0. -1.
         11   -1    0    0    0    0 -0.00000000000E+00 -0.00000000000E+00 -0.45593999997E+02  0.45594000000E+02  0.51100000000E-03 0.  1.
    9900012    2    1    2    0    0  0.13773415414E+01 -0.63749026336E+01 -0.17553976314E+02  0.72461587163E+02  0.70000021974E+02 0.  0.
         12    1    1    2    0    0 -0.13773415414E+01  0.63749026336E+01  0.17553976314E+02  0.18726412837E+02  0.00000000000E+00 0. -1.
         11    1    3    3    0    0 -0.87731068114E+01  0.46110537410E+01 -0.35229993224E+02  0.36597563341E+02  0.51100000000E-03 0. -1.
        -11    1    3    3    0    0  0.30058475940E+01  0.46667958917E+01 -0.49509132733E+01  0.74381211441E+01  0.51100000000E-03 0.  1.
         12    1    3    3    0    0  0.71446007589E+01 -0.15652752266E+02  0.22626930183E+02  0.28425902677E+02  0.00000000000E+00 0. -1.
</event>
<event>
 7    1  0.2972263E-013  0.7246158E+02  0.7816164E-02  0.1226708E+00
        -11   -1    0    0    0    0  0.00000000000E+00  0.00000000000E+00  0.45593999997E+02  0.45594000000E+02  0.51100000000E-03 0.  1.
         11   -1    0    0    0    0 -0.00000000000E+00 -0.00000000000E+00 -0.45593999997E+02  0.45594000000E+02  0.51100000000E-03 0. -1.
    9900012    2    1    2    0    0  0.11352076676E+02  0.18024573050E+01  0.14783784532E+02  0.72461580634E+02  0.70000013469E+02 0.  0.
         12    1    1    2    0    0 -0.11352076676E+02 -0.18024573050E+01 -0.14783784532E+02  0.18726419366E+02  0.00000000000E+00 0. -1.
         11    1    3    3    0    0  0.10764007129E+02 -0.59606183739E+01  0.12034392968E+02  0.17211026560E+02  0.51100000000E-03 0. -1.
        -11    1    3    3    0    0  0.14490969484E+02 -0.19312930615E+02  0.52570122278E+01  0.24710598199E+02  0.51100000000E-03 0.  1.
         12    1    3    3    0    0 -0.13902899938E+02  0.27076006294E+02 -0.25076206636E+01  0.30539955876E+02  0.00000000000E+00 0. -1.
</event>
<event>
 7    1  0.2972263E-013  0.7246156E+02  0.7816164E-02  0.1226708E+00
        -11   -1    0    0    0    0  0.00000000000E+00  0.00000000000E+00  0.45593999997E+02  0.45594000000E+02  0.51100000000E-03 0.  1.
         11   -1    0    0    0    0 -0.00000000000E+00 -0.00000000000E+00 -0.45593999997E+02  0.45594000000E+02  0.51100000000E-03 0. -1.
    9900012    2    1    2    0    0 -0.10548342293E+02  0.13232367963E+01  0.15416260184E+02  0.72461559900E+02  0.69999986460E+02 0.  0.
         12    1    1    2    0    0  0.10548342293E+02 -0.13232367963E+01 -0.15416260184E+02  0.18726440100E+02  0.00000000000E+00 0. -1.
         11    1    3    3    0    0  0.53432381432E+00  0.63222416359E+01 -0.60274497928E+01  0.87513651797E+01  0.51100000000E-03 0. -1.
        -11    1    3    3    0    0  0.12564956839E+02  0.12282590425E+02  0.28593528904E+02  0.33560841219E+02  0.51100000000E-03 0.  1.
         12    1    3    3    0    0 -0.23647622946E+02 -0.17281595264E+02 -0.71498189269E+01  0.30149353502E+02  0.00000000000E+00 0. -1.
</event>
<event>
 7    1  0.2972263E-013  0.7246172E+02  0.7816164E-02  0.1226708E+00
        -11   -1    0    0    0    0  0.00000000000E+00  0.00000000000E+00  0.45593999997E+02  0.45594000000E+02  0.51100000000E-03 0.  1.
         11   -1    0    0    0    0 -0.00000000000E+00 -0.00000000000E+00 -0.45593999997E+02  0.45594000000E+02  0.51100000000E-03 0. -1.
    9900012    2    1    2    0    0  0.13677226549E+02  0.99027406814E+01 -0.80958404042E+01  0.72461723517E+02  0.70000199600E+02 0.  0.
         12    1    1    2    0    0 -0.13677226549E+02 -0.99027406814E+01  0.80958404042E+01  0.18726276483E+02  0.00000000000E+00 0. -1.
         11    1    3    3    0    0 -0.10302368143E+02  0.32325171942E+01  0.71016215194E+00  0.10820918968E+02  0.51100000000E-03 0. -1.
        -11    1    3    3    0    0 -0.16057341051E+02 -0.84430529724E+01 -0.39981585006E+01  0.18577099256E+02  0.51100000000E-03 0.  1.
         12    1    3    3    0    0  0.40036935743E+02  0.15113276460E+02 -0.48078440556E+01  0.43063705292E+02  0.00000000000E+00 0. -1.
</event>
<event>
 7    1  0.2972263E-013  0.7246149E+02  0.7816164E-02  0.1226708E+00
        -11   -1    0    0    0    0  0.00000000000E+00  0.00000000000E+00  0.45593999997E+02  0.45594000000E+02  0.51100000000E-03 0.  1.
         11   -1    0    0    0    0 -0.00000000000E+00 -0.00000000000E+00 -0.45593999997E+02  0.45594000000E+02  0.51100000000E-03 0. -1.
    9900012    2    1    2    0    0 -0.15234142917E+02  0.10657363549E+02 -0.22413563546E+01  0.72461489740E+02  0.69999895062E+02 0.  0.
         12    1    1    2    0    0  0.15234142917E+02 -0.10657363549E+02  0.22413563546E+01  0.18726510260E+02  0.00000000000E+00 0. -1.
         11    1    3    3    0    0 -0.15025429670E+02  0.99644728938E+01  0.16957329590E+02  0.24750864306E+02  0.51100000000E-03 0. -1.
        -11    1    3    3    0    0 -0.94267156609E+01 -0.11478188208E+02  0.77380666430E+01  0.16747819211E+02  0.51100000000E-03 0.  1.
         12    1    3    3    0    0  0.92180024141E+01  0.12171078864E+02 -0.26936752587E+02  0.30962806222E+02  0.00000000000E+00 0. -1.
</event>
<event>
 7    1  0.2972263E-013  0.7246161E+02  0.7816164E-02  0.1226708E+00
        -11   -1    0    0    0    0  0.00000000000E+00  0.00000000000E+00  0.45593999997E+02  0.45594000000E+02  0.51100000000E-03 0. -1.
         11   -1    0    0    0    0 -0.00000000000E+00 -0.00000000000E+00 -0.45593999997E+02  0.45594000000E+02  0.51100000000E-03 0.  1.
    9900012    2    1    2    0    0  0.16592906592E+02 -0.10814450056E+01 -0.86129932735E+01  0.72461608847E+02  0.70000050222E+02 0.  0.
         12    1    1    2    0    0 -0.16592906592E+02  0.10814450056E+01  0.86129932735E+01  0.18726391153E+02  0.00000000000E+00 0. -1.
         11    1    3    3    0    0  0.62889678608E+01  0.33705636673E+01  0.54831596153E+01  0.89987141202E+01  0.51100000000E-03 0. -1.
        -11    1    3    3    0    0  0.34731598232E+02 -0.10942142212E+02 -0.58818496972E+01  0.36886454805E+02  0.51100000000E-03 0.  1.
         12    1    3    3    0    0 -0.24427659500E+02  0.64901335392E+01 -0.82143031916E+01  0.26576439922E+02  0.00000000000E+00 0. -1.
</event>
<event>
 7    1  0.2972263E-013  0.7246154E+02  0.7816164E-02  0.1226708E+00
        -11   -1    0    0    0    0  0.00000000000E+00  0.00000000000E+00  0.45593999997E+02  0.45594000000E+02  0.51100000000E-03 0. -1.
         11   -1    0    0    0    0 -0.00000000000E+00 -0.00000000000E+00 -0.45593999997E+02  0.45594000000E+02  0.51100000000E-03 0.  1.
    9900012    2    1    2    0    0 -0.24652274994E+01 -0.39094487226E+01 -0.18147155257E+02  0.72461537978E+02  0.69999957902E+02 0.  0.
         12    1    1    2    0    0  0.24652274994E+01  0.39094487226E+01  0.18147155257E+02  0.18726462022E+02  0.00000000000E+00 0. -1.
         11    1    3    3    0    0  0.15416901664E+02  0.11190228547E+02 -0.13017085418E+02  0.23072637146E+02  0.51100000000E-03 0. -1.
        -11    1    3    3    0    0  0.69882618122E+01 -0.19922346050E+02 -0.10365742422E+02  0.23519870142E+02  0.51100000000E-03 0.  1.
         12    1    3    3    0    0 -0.24870390975E+02  0.48226687806E+01  0.52356725834E+01  0.25869030690E+02  0.00000000000E+00 0. -1.
</event>
<event>
 7    1  0.2972263E-013  0.7246159E+02  0.7816164E-02  0.1226708E+00
        -11   -1    0    0    0    0  0.00000000000E+00  0.00000000000E+00  0.45593999997E+02  0.45594000000E+02  0.51100000000E-03 0.  1.
         11   -1    0    0    0    0 -0.00000000000E+00 -0.00000000000E+00 -0.45593999997E+02  0.45594000000E+02  0.51100000000E-03 0. -1.
    9900012    2    1    2    0    0 -0.12487285000E+02  0.76655527563E+01  0.11661281466E+02  0.72461588941E+02  0.70000024291E+02 0.  0.
         12    1    1    2    0    0  0.12487285000E+02 -0.76655527563E+01 -0.11661281466E+02  0.18726411059E+02  0.00000000000E+00 0. -1.
         11    1    3    3    0    0  0.79182455604E+01  0.58073868548E+01  0.16408237074E+02  0.19122097139E+02  0.51100000000E-03 0. -1.
        -11    1    3    3    0    0  0.11093684302E+02  0.11738252098E+02  0.79099143368E+01  0.17983968938E+02  0.51100000000E-03 0.  1.
        -12    1    3    3    0    0 -0.31499214862E+02 -0.98800861961E+01 -0.12656869945E+02  0.35355522864E+02  0.00000000000E+00 0.  1.
</event>
<event>
 7    1  0.2972263E-013  0.7246157E+02  0.7816164E-02  0.1226708E+00
        -11   -1    0    0    0    0  0.00000000000E+00  0.00000000000E+00  0.45593999997E+02  0.45594000000E+02  0.51100000000E-03 0.  1.
         11   -1    0    0    0    0 -0.00000000000E+00 -0.00000000000E+00 -0.45593999997E+02  0.45594000000E+02  0.51100000000E-03 0. -1.
    9900012    2    1    2    0    0  0.13323926795E+01  0.15100566487E+02  0.10994405966E+02  0.72461565715E+02  0.69999994034E+02 0.  0.
         12    1    1    2    0    0 -0.13323926795E+01 -0.15100566487E+02 -0.10994405966E+02  0.18726434285E+02  0.00000000000E+00 0. -1.
         11    1    3    3    0    0 -0.18906212487E+02  0.29611846506E+02  0.18021325471E+02  0.39485117400E+02  0.51100000000E-03 0. -1.
        -11    1    3    3    0    0  0.66794040363E+01 -0.11325018582E+02  0.54917893976E+01  0.14248867857E+02  0.51100000000E-03 0.  1.
        -12    1    3    3    0    0  0.13559201130E+02 -0.31862614367E+01 -0.12518708902E+02  0.18727580458E+02  0.00000000000E+00 0.  1.
</event>
<event>
 7    1  0.2972263E-013  0.7246155E+02  0.7816164E-02  0.1226708E+00
        -11   -1    0    0    0    0  0.00000000000E+00  0.00000000000E+00  0.45593999997E+02  0.45594000000E+02  0.51100000000E-03 0.  1.
         11   -1    0    0    0    0 -0.00000000000E+00 -0.00000000000E+00 -0.45593999997E+02  0.45594000000E+02  0.51100000000E-03 0. -1.
    9900012    2    1    2    0    0  0.71156398400E+01  0.98485129902E+01  0.14249720247E+02  0.72461546370E+02  0.69999968834E+02 0.  0.
         12    1    1    2    0    0 -0.71156398400E+01 -0.98485129902E+01 -0.14249720247E+02  0.18726453630E+02  0.00000000000E+00 0. -1.
         11    1    3    3    0    0 -0.77717635026E+01  0.32249557552E+01  0.13597787678E+02  0.15990637184E+02  0.51100000000E-03 0. -1.
        -11    1    3    3    0    0 -0.12592504490E+02 -0.97133429630E+01 -0.14107546703E+02  0.21258952822E+02  0.51100000000E-03 0.  1.
         12    1    3    3    0    0  0.27479907833E+02  0.16336900198E+02  0.14759479272E+02  0.35211956364E+02  0.00000000000E+00 0. -1.
</event>
<event>
 7    1  0.2972263E-013  0.7246089E+02  0.7816164E-02  0.1226710E+00
        -11   -1    0    0    0    0  0.00000000000E+00  0.00000000000E+00  0.45593999997E+02  0.45594000000E+02  0.51100000000E-03 0. -1.
         11   -1    0    0    0    0 -0.00000000000E+00 -0.00000000000E+00 -0.45593999997E+02  0.45594000000E+02  0.51100000000E-03 0.  1.
    9900012    2    1    2    0    0 -0.12323370423E+02  0.11921263385E+02 -0.75314442722E+01  0.72460890450E+02  0.69999114371E+02 0.  0.
         12    1    1    2    0    0  0.12323370423E+02 -0.11921263385E+02  0.75314442722E+01  0.18727109550E+02  0.00000000000E+00 0. -1.
         11    1    3    3    0    0  0.56421745660E+01  0.11035213845E+00  0.16013868048E+01  0.58660677960E+01  0.51100000000E-03 0. -1.
        -11    1    3    3    0    0 -0.20630369925E+02  0.35464861871E+02 -0.11670348711E+02  0.42656366817E+02  0.51100000000E-03 0.  1.
         12    1    3    3    0    0  0.26648249361E+01 -0.23653950625E+02  0.25375176337E+01  0.23938455836E+02  0.00000000000E+00 0. -1.
</event>
<event>
 7    1  0.2972263E-013  0.7246189E+02  0.7816164E-02  0.1226707E+00
        -11   -1    0    0    0    0  0.00000000000E+00  0.00000000000E+00  0.45593999997E+02  0.45594000000E+02  0.51100000000E-03 0.  1.
         11   -1    0    0    0    0 -0.00000000000E+00 -0.00000000000E+00 -0.45593999997E+02  0.45594000000E+02  0.51100000000E-03 0. -1.
    9900012    2    1    2    0    0 -0.33908051217E+00 -0.34452103261E+01  0.18403331467E+02  0.72461893654E+02  0.70000421235E+02 0.  0.
         12    1    1    2    0    0  0.33908051217E+00  0.34452103261E+01 -0.18403331467E+02  0.18726106346E+02  0.00000000000E+00 0. -1.
         11    1    3    3    0    0 -0.12487854204E+02  0.23752125306E+02  0.28100651697E+01  0.26981594202E+02  0.51100000000E-03 0. -1.
        -11    1    3    3    0    0  0.91147995435E+01  0.10883968816E+00  0.15528202388E+02  0.18006012508E+02  0.51100000000E-03 0.  1.
        -12    1    3    3    0    0  0.30339741479E+01 -0.27306175320E+02  0.65063909808E-01  0.27474286944E+02  0.00000000000E+00 0.  1.
</event>
<event>
 7    1  0.2972263E-013  0.7246158E+02  0.7816164E-02  0.1226708E+00
        -11   -1    0    0    0    0  0.00000000000E+00  0.00000000000E+00  0.45593999997E+02  0.45594000000E+02  0.51100000000E-03 0.  1.
         11   -1    0    0    0    0 -0.00000000000E+00 -0.00000000000E+00 -0.45593999997E+02  0.45594000000E+02  0.51100000000E-03 0. -1.
    9900012    2    1    2    0    0  0.10828292086E+02  0.27255323348E+01  0.15033240791E+02  0.72461581103E+02  0.70000014080E+02 0.  0.
         12    1    1    2    0    0 -0.10828292086E+02 -0.27255323348E+01 -0.15033240791E+02  0.18726418897E+02  0.00000000000E+00 0. -1.
         11    1    3    3    0    0  0.76621429470E+00 -0.20919199484E+02  0.13351268575E+02  0.24828539309E+02  0.51100000000E-03 0. -1.
        -11    1    3    3    0    0  0.53367021962E+01 -0.54450823783E+01  0.13801376141E+02  0.15767285628E+02  0.51100000000E-03 0.  1.
         12    1    3    3    0    0  0.47253755953E+01  0.29089814197E+02 -0.12119403924E+02  0.31865756166E+02  0.00000000000E+00 0. -1.
</event>
<event>
 7    1  0.2972263E-013  0.7246166E+02  0.7816164E-02  0.1226708E+00
        -11   -1    0    0    0    0  0.00000000000E+00  0.00000000000E+00  0.45593999997E+02  0.45594000000E+02  0.51100000000E-03 0. -1.
         11   -1    0    0    0    0 -0.00000000000E+00 -0.00000000000E+00 -0.45593999997E+02  0.45594000000E+02  0.51100000000E-03 0.  1.
    9900012    2    1    2    0    0  0.64279847126E+01  0.57995027867E+01 -0.16604891826E+02  0.72461664197E+02  0.70000122326E+02 0.  0.
         12    1    1    2    0    0 -0.64279847126E+01 -0.57995027867E+01  0.16604891826E+02  0.18726335803E+02  0.00000000000E+00 0. -1.
         11    1    3    3    0    0 -0.93837465984E+00 -0.54271029142E+01 -0.20036954936E+02  0.20780124071E+02  0.51100000000E-03 0. -1.
        -11    1    3    3    0    0  0.27374559017E+02  0.11791187022E+02 -0.45138854821E+01  0.30145874264E+02  0.51100000000E-03 0.  1.
         12    1    3    3    0    0 -0.20008199644E+02 -0.56458132139E+00  0.79459485923E+01  0.21535665862E+02  0.00000000000E+00 0. -1.
</event>
<event>
 7    1  0.2972263E-013  0.7246160E+02  0.7816164E-02  0.1226708E+00
        -11   -1    0    0    0    0  0.00000000000E+00  0.00000000000E+00  0.45593999997E+02  0.45594000000E+02  0.51100000000E-03 0.  1.
         11   -1    0    0    0    0 -0.00000000000E+00 -0.00000000000E+00 -0.45593999997E+02  0.45594000000E+02  0.51100000000E-03 0. -1.
    9900012    2    1    2    0    0 -0.14975965509E+02  0.67053955981E+00  0.11222692310E+02  0.72461601817E+02  0.70000041064E+02 0.  0.
         12    1    1    2    0    0  0.14975965509E+02 -0.67053955981E+00 -0.11222692310E+02  0.18726398183E+02  0.00000000000E+00 0. -1.
         11    1    3    3    0    0  0.40696604788E+01  0.13060106921E+02 -0.81552948180E+01  0.15925996453E+02  0.51100000000E-03 0. -1.
        -11    1    3    3    0    0  0.97859368337E+01  0.10949301251E+02  0.57716840760E-04  0.14685086239E+02  0.51100000000E-03 0.  1.
        -12    1    3    3    0    0 -0.28831562821E+02 -0.23338868611E+02  0.19377929411E+02  0.41850519125E+02  0.00000000000E+00 0.  1.
</event>
<event>
 7    1  0.2972263E-013  0.7246159E+02  0.7816164E-02  0.1226708E+00
        -11   -1    0    0    0    0  0.00000000000E+00  0.00000000000E+00  0.45593999997E+02  0.45594000000E+02  0.51100000000E-03 0.  1.
         11   -1    0    0    0    0 -0.00000000000E+00 -0.00000000000E+00 -0.45593999997E+02  0.45594000000E+02  0.51100000000E-03 0. -1.
    9900012    2    1    2    0    0  0.15591076978E+02  0.99951785498E+01 -0.27736775002E+01  0.72461586504E+02  0.70000021116E+02 0.  0.
         12    1    1    2    0    0 -0.15591076978E+02 -0.99951785498E+01  0.27736775002E+01  0.18726413496E+02  0.00000000000E+00 0. -1.
         11    1    3    3    0    0  0.27001867987E+00 -0.58608996944E+01 -0.22148667848E+02  0.22912584818E+02  0.51100000000E-03 0. -1.
        -11    1    3    3    0    0  0.12754045378E+02 -0.11879986333E+02  0.46389065196E+01  0.18036607296E+02  0.51100000000E-03 0.  1.
        -12    1    3    3    0    0  0.25670129193E+01  0.27736064577E+02  0.14736083829E+02  0.31512394390E+02  0.00000000000E+00 0.  1.
</event>
<event>
 7    1  0.2972263E-013  0.7246158E+02  0.7816164E-02  0.1226708E+00
        -11   -1    0    0    0    0  0.00000000000E+00  0.00000000000E+00  0.45593999997E+02  0.45594000000E+02  0.51100000000E-03 0.  1.
         11   -1    0    0    0    0 -0.00000000000E+00 -0.00000000000E+00 -0.45593999997E+02  0.45594000000E+02  0.51100000000E-03 0. -1.
    9900012    2    1    2    0    0  0.12064850119E+02  0.13711081968E+02  0.41381471846E+01  0.72461584453E+02  0.70000018444E+02 0.  0.
         12    1    1    2    0    0 -0.12064850119E+02 -0.13711081968E+02 -0.41381471846E+01  0.18726415547E+02  0.00000000000E+00 0. -1.
         11    1    3    3    0    0 -0.21358987842E+02 -0.12038556008E+00  0.58341995497E+01  0.22141787167E+02  0.51100000000E-03 0. -1.
        -11    1    3    3    0    0 -0.48837053184E+01  0.18657256392E+01  0.75043354544E+01  0.91458493685E+01  0.51100000000E-03 0.  1.
        -12    1    3    3    0    0  0.38307543279E+02  0.11965741889E+02 -0.92003878195E+01  0.41173947917E+02  0.00000000000E+00 0.  1.
</event>
<event>
 7    1  0.2972263E-013  0.7246154E+02  0.7816164E-02  0.1226708E+00
        -11   -1    0    0    0    0  0.00000000000E+00  0.00000000000E+00  0.45593999997E+02  0.45594000000E+02  0.51100000000E-03 0.  1.
         11   -1    0    0    0    0 -0.00000000000E+00 -0.00000000000E+00 -0.45593999997E+02  0.45594000000E+02  0.51100000000E-03 0. -1.
    9900012    2    1    2    0    0  0.14056937085E+01 -0.14606393888E+02 -0.11634334205E+02  0.72461536116E+02  0.69999955476E+02 0.  0.
         12    1    1    2    0    0 -0.14056937085E+01  0.14606393888E+02  0.11634334205E+02  0.18726463884E+02  0.00000000000E+00 0. -1.
         11    1    3    3    0    0 -0.11127165354E+02  0.15195743388E+02 -0.88478336217E+01  0.20808858354E+02  0.51100000000E-03 0. -1.
        -11    1    3    3    0    0 -0.59574435636E+01 -0.16729037980E+01  0.13056479245E+02  0.14448577489E+02  0.51100000000E-03 0.  1.
        -12    1    3    3    0    0  0.18490302626E+02 -0.28129233478E+02 -0.15842979828E+02  0.37204100273E+02  0.00000000000E+00 0.  1.
</event>
<event>
 7    1  0.2972263E-013  0.7246160E+02  0.7816164E-02  0.1226708E+00
        -11   -1    0    0    0    0  0.00000000000E+00  0.00000000000E+00  0.45593999997E+02  0.45594000000E+02  0.51100000000E-03 0. -1.
         11   -1    0    0    0    0 -0.00000000000E+00 -0.00000000000E+00 -0.45593999997E+02  0.45594000000E+02  0.51100000000E-03 0.  1.
    9900012    2    1    2    0    0 -0.54398253931E+01  0.15016010893E+02 -0.97778262570E+01  0.72461596989E+02  0.70000034774E+02 0.  0.
         12    1    1    2    0    0  0.54398253931E+01 -0.15016010893E+02  0.97778262570E+01  0.18726403011E+02  0.00000000000E+00 0. -1.
         11    1    3    3    0    0 -0.23577402446E+02  0.13304611883E+01 -0.73084696173E+01  0.24719987085E+02  0.51100000000E-03 0. -1.
        -11    1    3    3    0    0  0.79514816325E+00 -0.12251420915E+02 -0.97792968355E+01  0.15695993817E+02  0.51100000000E-03 0.  1.
         12    1    3    3    0    0  0.17342428890E+02  0.25936970619E+02  0.73099401958E+01  0.32045616087E+02  0.00000000000E+00 0. -1.
</event>
<event>
 7    1  0.2972263E-013  0.7246153E+02  0.7816164E-02  0.1226708E+00
        -11   -1    0    0    0    0  0.00000000000E+00  0.00000000000E+00  0.45593999997E+02  0.45594000000E+02  0.51100000000E-03 0. -1.
         11   -1    0    0    0    0 -0.00000000000E+00 -0.00000000000E+00 -0.45593999997E+02  0.45594000000E+02  0.51100000000E-03 0.  1.
    9900012    2    1    2    0    0  0.17252390451E+02 -0.30068507632E+01 -0.66328312704E+01  0.72461532675E+02  0.69999950994E+02 0.  0.
         12    1    1    2    0    0 -0.17252390451E+02  0.30068507632E+01  0.66328312704E+01  0.18726467325E+02  0.00000000000E+00 0. -1.
         11    1    3    3    0    0  0.17590542173E+01  0.11100400982E+02  0.35918605738E+01  0.11798925220E+02  0.51100000000E-03 0. -1.
        -11    1    3    3    0    0  0.19895619110E+02  0.13495117771E+02  0.10127576909E+02  0.26086810417E+02  0.51100000000E-03 0.  1.
         12    1    3    3    0    0 -0.44022828764E+01 -0.27602369516E+02 -0.20352268753E+02  0.34575797038E+02  0.00000000000E+00 0. -1.
</event>
<event>
 7    1  0.2972263E-013  0.7246158E+02  0.7816164E-02  0.1226708E+00
        -11   -1    0    0    0    0  0.00000000000E+00  0.00000000000E+00  0.45593999997E+02  0.45594000000E+02  0.51100000000E-03 0. -1.
         11   -1    0    0    0    0 -0.00000000000E+00 -0.00000000000E+00 -0.45593999997E+02  0.45594000000E+02  0.51100000000E-03 0.  1.
    9900012    2    1    2    0    0  0.62423394533E+01  0.58314130936E+01 -0.16664532011E+02  0.72461579956E+02  0.70000012586E+02 0.  0.
         12    1    1    2    0    0 -0.62423394533E+01 -0.58314130936E+01  0.16664532011E+02  0.18726420044E+02  0.00000000000E+00 0. -1.
         11    1    3    3    0    0  0.20642688895E+02  0.23749858958E+01  0.19935453145E+01  0.20874275700E+02  0.51100000000E-03 0. -1.
        -11    1    3    3    0    0 -0.26955688656E+02  0.14314583365E+02 -0.70286856847E+01  0.31319624368E+02  0.51100000000E-03 0.  1.
         12    1    3    3    0    0  0.12555339214E+02 -0.10858156167E+02 -0.11629391641E+02  0.20267679888E+02  0.00000000000E+00 0. -1.
</event>
<event>
 7    1  0.2972263E-013  0.7246158E+02  0.7816164E-02  0.1226708E+00
        -11   -1    0    0    0    0  0.00000000000E+00  0.00000000000E+00  0.45593999997E+02  0.45594000000E+02  0.51100000000E-03 0.  1.
         11   -1    0    0    0    0 -0.00000000000E+00 -0.00000000000E+00 -0.45593999997E+02  0.45594000000E+02  0.51100000000E-03 0. -1.
    9900012    2    1    2    0    0  0.14313705482E+02  0.82327082412E+01  0.88328427548E+01  0.72461581209E+02  0.70000014218E+02 0.  0.
         12    1    1    2    0    0 -0.14313705482E+02 -0.82327082412E+01 -0.88328427548E+01  0.18726418791E+02  0.00000000000E+00 0. -1.
         11    1    3    3    0    0 -0.98791314785E+01  0.22780668664E+02  0.16825699791E+02  0.29994337420E+02  0.51100000000E-03 0. -1.
        -11    1    3    3    0    0 -0.39591128085E+01 -0.87383800545E+01  0.51180310095E+01  0.10873274662E+02  0.51100000000E-03 0.  1.
        -12    1    3    3    0    0  0.28151949769E+02 -0.58095803681E+01 -0.13110888046E+02  0.31593969127E+02  0.00000000000E+00 0.  1.
</event>
<event>
 7    1  0.2972263E-013  0.7246162E+02  0.7816164E-02  0.1226708E+00
        -11   -1    0    0    0    0  0.00000000000E+00  0.00000000000E+00  0.45593999997E+02  0.45594000000E+02  0.51100000000E-03 0. -1.
         11   -1    0    0    0    0 -0.00000000000E+00 -0.00000000000E+00 -0.45593999997E+02  0.45594000000E+02  0.51100000000E-03 0.  1.
    9900012    2    1    2    0    0  0.13151145252E+02 -0.11524770778E+02 -0.67010765003E+01  0.72461617829E+02  0.70000061923E+02 0.  0.
         12    1    1    2    0    0 -0.13151145252E+02  0.11524770778E+02  0.67010765003E+01  0.18726382171E+02  0.00000000000E+00 0. -1.
         11    1    3    3    0    0  0.17251986543E+02 -0.12003572141E+02  0.14346783960E+02  0.25446944691E+02  0.51100000000E-03 0. -1.
        -11    1    3    3    0    0  0.18917107351E+02 -0.11491051827E+01 -0.10065785070E+02  0.21459203680E+02  0.51100000000E-03 0.  1.
         12    1    3    3    0    0 -0.23017948641E+02  0.16279065451E+01 -0.10982075391E+02  0.25555469459E+02  0.00000000000E+00 0. -1.
</event>
<event>
 7    1  0.2972263E-013  0.7246161E+02  0.7816164E-02  0.1226708E+00
        -11   -1    0    0    0    0  0.00000000000E+00  0.00000000000E+00  0.45593999997E+02  0.45594000000E+02  0.51100000000E-03 0. -1.
         11   -1    0    0    0    0 -0.00000000000E+00 -0.00000000000E+00 -0.45593999997E+02  0.45594000000E+02  0.51100000000E-03 0.  1.
    9900012    2    1    2    0    0  0.16912119607E+01  0.98160269830E+01 -0.15857586482E+02  0.72461611329E+02  0.70000053455E+02 0.  0.
         12    1    1    2    0    0 -0.16912119607E+01 -0.98160269830E+01  0.15857586482E+02  0.18726388671E+02  0.00000000000E+00 0. -1.
         11    1    3    3    0    0  0.21946395054E+01  0.16058952283E+02 -0.12689045302E+02  0.20584417940E+02  0.51100000000E-03 0. -1.
        -11    1    3    3    0    0  0.73562657665E+01  0.46691231971E+01 -0.24867055997E+02  0.26349304197E+02  0.51100000000E-03 0.  1.
         12    1    3    3    0    0 -0.78596933112E+01 -0.10912048497E+02  0.21698514817E+02  0.25527889192E+02  0.00000000000E+00 0. -1.
</event>
<event>
 7    1  0.2972263E-013  0.7246119E+02  0.7816164E-02  0.1226709E+00
        -11   -1    0    0    0    0  0.00000000000E+00  0.00000000000E+00  0.45593999997E+02  0.45594000000E+02  0.51100000000E-03 0. -1.
         11   -1    0    0    0    0 -0.00000000000E+00 -0.00000000000E+00 -0.45593999997E+02  0.45594000000E+02  0.51100000000E-03 0.  1.
    9900012    2    1    2    0    0  0.35046219887E+01  0.17460819599E+02 -0.57905849636E+01  0.72461188457E+02  0.69999502584E+02 0.  0.
         12    1    1    2    0    0 -0.35046219887E+01 -0.17460819599E+02  0.57905849636E+01  0.18726811543E+02  0.00000000000E+00 0. -1.
         11    1    3    3    0    0 -0.15486152368E+02 -0.57687300657E+01 -0.93567878977E+01  0.18990751479E+02  0.51100000000E-03 0. -1.
        -11    1    3    3    0    0  0.83751272680E+01  0.35593233123E+02  0.57993920325E+01  0.37022343917E+02  0.51100000000E-03 0.  1.
         12    1    3    3    0    0  0.10615647088E+02 -0.12363683458E+02 -0.22331890984E+01  0.16448093060E+02  0.00000000000E+00 0. -1.
</event>
<event>
 7    1  0.2972263E-013  0.7246147E+02  0.7816164E-02  0.1226708E+00
        -11   -1    0    0    0    0  0.00000000000E+00  0.00000000000E+00  0.45593999997E+02  0.45594000000E+02  0.51100000000E-03 0.  1.
         11   -1    0    0    0    0 -0.00000000000E+00 -0.00000000000E+00 -0.45593999997E+02  0.45594000000E+02  0.51100000000E-03 0. -1.
    9900012    2    1    2    0    0  0.32371393605E+01  0.18009352079E+02 -0.39833628217E+01  0.72461467676E+02  0.69999866320E+02 0.  0.
         12    1    1    2    0    0 -0.32371393605E+01 -0.18009352079E+02  0.39833628217E+01  0.18726532324E+02  0.00000000000E+00 0. -1.
         11    1    3    3    0    0  0.79213718193E+01  0.18685328770E+02 -0.30703584609E+02  0.36804887595E+02  0.51100000000E-03 0. -1.
        -11    1    3    3    0    0 -0.19817876906E+01  0.81264589612E+01  0.11058130327E+01  0.84373953578E+01  0.51100000000E-03 0.  1.
        -12    1    3    3    0    0 -0.27024447682E+01 -0.88024356527E+01  0.25614408755E+02  0.27219184723E+02  0.00000000000E+00 0.  1.
</event>
<event>
 7    1  0.2972263E-013  0.7246158E+02  0.7816164E-02  0.1226708E+00
        -11   -1    0    0    0    0  0.00000000000E+00  0.00000000000E+00  0.45593999997E+02  0.45594000000E+02  0.51100000000E-03 0.  1.
         11   -1    0    0    0    0 -0.00000000000E+00 -0.00000000000E+00 -0.45593999997E+02  0.45594000000E+02  0.51100000000E-03 0. -1.
    9900012    2    1    2    0    0  0.10820451765E+02  0.70296907091E+01  0.13571295929E+02  0.72461580133E+02  0.70000012816E+02 0.  0.
         12    1    1    2    0    0 -0.10820451765E+02 -0.70296907091E+01 -0.13571295929E+02  0.18726419867E+02  0.00000000000E+00 0. -1.
         11    1    3    3    0    0 -0.44453462982E+01  0.26845329198E+02 -0.68811502043E+01  0.28067472844E+02  0.51100000000E-03 0. -1.
        -11    1    3    3    0    0 -0.74245373713E+01 -0.34430506690E+00 -0.11312287093E+01  0.75181101223E+01  0.51100000000E-03 0.  1.
        -12    1    3    3    0    0  0.22690335434E+02 -0.19471333422E+02  0.21583674842E+02  0.36875997167E+02  0.00000000000E+00 0.  1.
</event>
<event>
 7    1  0.2972263E-013  0.7246155E+02  0.7816164E-02  0.1226708E+00
        -11   -1    0    0    0    0  0.00000000000E+00  0.00000000000E+00  0.45593999997E+02  0.45594000000E+02  0.51100000000E-03 0. -1.
         11   -1    0    0    0    0 -0.00000000000E+00 -0.00000000000E+00 -0.45593999997E+02  0.45594000000E+02  0.51100000000E-03 0.  1.
    9900012    2    1    2    0    0 -0.13871008410E+02  0.68782923800E+01 -0.10533959389E+02  0.72461545963E+02  0.69999968304E+02 0.  0.
         12    1    1    2    0    0  0.13871008410E+02 -0.68782923800E+01  0.10533959389E+02  0.18726454037E+02  0.00000000000E+00 0. -1.
         11    1    3    3    0    0 -0.85585239571E+01 -0.15711131719E+02  0.12352230897E+02  0.21740873962E+02  0.51100000000E-03 0. -1.
        -11    1    3    3    0    0 -0.86941326521E+01 -0.73378159035E+00 -0.25554567616E+02  0.27003005468E+02  0.51100000000E-03 0.  1.
         12    1    3    3    0    0  0.33816481990E+01  0.23323205690E+02  0.26683773300E+01  0.23717666533E+02  0.00000000000E+00 0. -1.
</event>
<event>
 7    1  0.2972263E-013  0.7246159E+02  0.7816164E-02  0.1226708E+00
        -11   -1    0    0    0    0  0.00000000000E+00  0.00000000000E+00  0.45593999997E+02  0.45594000000E+02  0.51100000000E-03 0. -1.
         11   -1    0    0    0    0 -0.00000000000E+00 -0.00000000000E+00 -0.45593999997E+02  0.45594000000E+02  0.51100000000E-03 0.  1.
    9900012    2    1    2    0    0  0.53610940855E+01 -0.33013881480E+01 -0.17636265511E+02  0.72461592051E+02  0.70000028342E+02 0.  0.
         12    1    1    2    0    0 -0.53610940855E+01  0.33013881480E+01  0.17636265511E+02  0.18726407949E+02  0.00000000000E+00 0. -1.
         11    1    3    3    0    0  0.42239499881E+01  0.18103066513E+02 -0.89681876523E+01  0.20639553307E+02  0.51100000000E-03 0. -1.
        -11    1    3    3    0    0  0.83150377170E+01 -0.30963196915E+02 -0.17899640742E+02  0.36718613187E+02  0.51100000000E-03 0.  1.
         12    1    3    3    0    0 -0.71778936195E+01  0.95587422541E+01  0.92315628829E+01  0.15103425557E+02  0.00000000000E+00 0. -1.
</event>
<event>
 7    1  0.2972263E-013  0.7246159E+02  0.7816164E-02  0.1226708E+00
        -11   -1    0    0    0    0  0.00000000000E+00  0.00000000000E+00  0.45593999997E+02  0.45594000000E+02  0.51100000000E-03 0. -1.
         11   -1    0    0    0    0 -0.00000000000E+00 -0.00000000000E+00 -0.45593999997E+02  0.45594000000E+02  0.51100000000E-03 0.  1.
    9900012    2    1    2    0    0 -0.53799370983E+01  0.13695178677E+02 -0.11583471181E+02  0.72461589592E+02  0.70000025138E+02 0.  0.
         12    1    1    2    0    0  0.53799370983E+01 -0.13695178677E+02  0.11583471181E+02  0.18726410408E+02  0.00000000000E+00 0. -1.
         11    1    3    3    0    0  0.25260300068E+02  0.17626269379E+02  0.48869346852E+01  0.31187341384E+02  0.51100000000E-03 0. -1.
        -11    1    3    3    0    0 -0.53273063823E+01  0.81954624196E+01 -0.40233772537E+01  0.10570400293E+02  0.51100000000E-03 0.  1.
        -12    1    3    3    0    0 -0.25312930784E+02 -0.12126553121E+02 -0.12447028612E+02  0.30703847915E+02  0.00000000000E+00 0.  1.
</event>
<event>
 7    1  0.2972263E-013  0.7246158E+02  0.7816164E-02  0.1226708E+00
        -11   -1    0    0    0    0  0.00000000000E+00  0.00000000000E+00  0.45593999997E+02  0.45594000000E+02  0.51100000000E-03 0. -1.
         11   -1    0    0    0    0 -0.00000000000E+00 -0.00000000000E+00 -0.45593999997E+02  0.45594000000E+02  0.51100000000E-03 0.  1.
    9900012    2    1    2    0    0  0.56722461154E+01  0.33574966248E+01 -0.17528029439E+02  0.72461575472E+02  0.70000006745E+02 0.  0.
         12    1    1    2    0    0 -0.56722461154E+01 -0.33574966248E+01  0.17528029439E+02  0.18726424528E+02  0.00000000000E+00 0. -1.
         11    1    3    3    0    0  0.18246878376E+02  0.14192941850E+02  0.10305877680E+02  0.25310062897E+02  0.51100000000E-03 0. -1.
        -11    1    3    3    0    0  0.41577465246E+01 -0.12598427260E+02  0.14833186726E+01  0.13349436698E+02  0.51100000000E-03 0.  1.
        -12    1    3    3    0    0 -0.16732378785E+02  0.17629820351E+01 -0.29317225792E+02  0.33802075877E+02  0.00000000000E+00 0.  1.
</event>
<event>
 7    1  0.2972263E-013  0.7246160E+02  0.7816164E-02  0.1226708E+00
        -11   -1    0    0    0    0  0.00000000000E+00  0.00000000000E+00  0.45593999997E+02  0.45594000000E+02  0.51100000000E-03 0.  1.
         11   -1    0    0    0    0 -0.00000000000E+00 -0.00000000000E+00 -0.45593999997E+02  0.45594000000E+02  0.51100000000E-03 0. -1.
    9900012    2    1    2    0    0  0.21597984359E+01  0.14886363881E+02  0.11153904861E+02  0.72461597448E+02  0.70000035373E+02 0.  0.
         12    1    1    2    0    0 -0.21597984359E+01 -0.14886363881E+02 -0.11153904861E+02  0.18726402552E+02  0.00000000000E+00 0. -1.
         11    1    3    3    0    0  0.97481130062E+01 -0.16371058915E+02 -0.50451407710E+01  0.19710168006E+02  0.51100000000E-03 0. -1.
        -11    1    3    3    0    0  0.15724278567E+02  0.13643179763E+02  0.88604387727E+01  0.22625133502E+02  0.51100000000E-03 0.  1.
        -12    1    3    3    0    0 -0.23312593137E+02  0.17614243033E+02  0.73386068589E+01  0.30126295940E+02  0.00000000000E+00 0.  1.
</event>
<event>
 7    1  0.3694827E-013  0.7246153E+02  0.7816164E-02  0.1226708E+00
        -11   -1    0    0    0    0  0.00000000000E+00  0.00000000000E+00  0.45593999997E+02  0.45594000000E+02  0.51100000000E-03 0. -1.
         11   -1    0    0    0    0 -0.00000000000E+00 -0.00000000000E+00 -0.45593999997E+02  0.45594000000E+02  0.51100000000E-03 0.  1.
    9900012    2    1    2    0    0 -0.14430106873E+01  0.55451454448E+01 -0.17828341282E+02  0.72461530213E+02  0.69999947786E+02 0.  0.
         12    1    1    2    0    0  0.14430106873E+01 -0.55451454448E+01  0.17828341282E+02  0.18726469787E+02  0.00000000000E+00 0. -1.
         11    1    3    3    0    0  0.21604817462E+02 -0.91940426474E+01  0.43859729845E+01  0.23885881123E+02  0.51100000000E-03 0. -1.
        -11    1    3    3    0    0 -0.11816751649E+02  0.18219749950E+02  0.18474601484E+01  0.21794678641E+02  0.51100000000E-03 0.  1.
        -12    1    3    3    0    0 -0.11231076500E+02 -0.34805618581E+01 -0.24061774415E+02  0.26780970449E+02  0.00000000000E+00 0.  1.
</event>
<event>
 7    1  0.2972263E-013  0.7246162E+02  0.7816164E-02  0.1226708E+00
        -11   -1    0    0    0    0  0.00000000000E+00  0.00000000000E+00  0.45593999997E+02  0.45594000000E+02  0.51100000000E-03 0.  1.
         11   -1    0    0    0    0 -0.00000000000E+00 -0.00000000000E+00 -0.45593999997E+02  0.45594000000E+02  0.51100000000E-03 0. -1.
    9900012    2    1    2    0    0  0.44489688146E+01  0.22718825352E+01  0.18047786901E+02  0.72461617921E+02  0.70000062042E+02 0.  0.
         12    1    1    2    0    0 -0.44489688146E+01 -0.22718825352E+01 -0.18047786901E+02  0.18726382079E+02  0.00000000000E+00 0. -1.
         11    1    3    3    0    0 -0.71528654202E+01  0.18449290794E+02 -0.10334438411E+02  0.22323539864E+02  0.51100000000E-03 0. -1.
        -11    1    3    3    0    0  0.22307686649E+01  0.22225288013E+01  0.29300119807E+02  0.29468847689E+02  0.51100000000E-03 0.  1.
        -12    1    3    3    0    0  0.93710655699E+01 -0.18399937060E+02 -0.91789449535E+00  0.20669230368E+02  0.00000000000E+00 0.  1.
</event>
<event>
 7    1  0.2972263E-013  0.7246153E+02  0.7816164E-02  0.1226708E+00
        -11   -1    0    0    0    0  0.00000000000E+00  0.00000000000E+00  0.45593999997E+02  0.45594000000E+02  0.51100000000E-03 0. -1.
         11   -1    0    0    0    0 -0.00000000000E+00 -0.00000000000E+00 -0.45593999997E+02  0.45594000000E+02  0.51100000000E-03 0.  1.
    9900012    2    1    2    0    0  0.49488595365E+01 -0.14518146818E+02 -0.10743037124E+02  0.72461530915E+02  0.69999948701E+02 0.  0.
         12    1    1    2    0    0 -0.49488595365E+01  0.14518146818E+02  0.10743037124E+02  0.18726469085E+02  0.00000000000E+00 0. -1.
         11    1    3    3    0    0  0.20364029771E+01  0.89981778691E+00  0.11002406052E+02  0.11225397469E+02  0.51100000000E-03 0. -1.
        -11    1    3    3    0    0 -0.14149519453E+02 -0.14926115369E+02  0.11717954132E+02  0.23670831630E+02  0.51100000000E-03 0.  1.
        -12    1    3    3    0    0  0.17061976012E+02 -0.49184923573E+00 -0.33463397308E+02  0.37565301816E+02  0.00000000000E+00 0.  1.
</event>
<event>
 7    1  0.2972263E-013  0.7246165E+02  0.7816164E-02  0.1226708E+00
        -11   -1    0    0    0    0  0.00000000000E+00  0.00000000000E+00  0.45593999997E+02  0.45594000000E+02  0.51100000000E-03 0.  1.
         11   -1    0    0    0    0 -0.00000000000E+00 -0.00000000000E+00 -0.45593999997E+02  0.45594000000E+02  0.51100000000E-03 0. -1.
    9900012    2    1    2    0    0 -0.16829965569E+02  0.78819619293E+01  0.23028734338E+01  0.72461647152E+02  0.70000100122E+02 0.  0.
         12    1    1    2    0    0  0.16829965569E+02 -0.78819619293E+01 -0.23028734338E+01  0.18726352848E+02  0.00000000000E+00 0. -1.
         11    1    3    3    0    0 -0.14854700026E+01 -0.22742346224E+01 -0.24391148960E+01  0.36507596447E+01  0.51100000000E-03 0. -1.
        -11    1    3    3    0    0  0.23762630465E+02  0.74280981161E+01 -0.10135468037E+02  0.26880605664E+02  0.51100000000E-03 0.  1.
        -12    1    3    3    0    0 -0.39107126032E+02  0.27280984356E+01  0.14877456367E+02  0.41930281844E+02  0.00000000000E+00 0.  1.
</event>
<event>
 7    1  0.2972263E-013  0.7246116E+02  0.7816164E-02  0.1226709E+00
        -11   -1    0    0    0    0  0.00000000000E+00  0.00000000000E+00  0.45593999997E+02  0.45594000000E+02  0.51100000000E-03 0. -1.
         11   -1    0    0    0    0 -0.00000000000E+00 -0.00000000000E+00 -0.45593999997E+02  0.45594000000E+02  0.51100000000E-03 0.  1.
    9900012    2    1    2    0    0  0.16621586876E+02 -0.86184758044E+01 -0.37322257324E+00  0.72461159088E+02  0.69999464325E+02 0.  0.
         12    1    1    2    0    0 -0.16621586876E+02  0.86184758044E+01  0.37322257324E+00  0.18726840912E+02  0.00000000000E+00 0. -1.
         11    1    3    3    0    0 -0.85289650212E+01  0.84475283429E+01 -0.74556854946E+00  0.12027462416E+02  0.51100000000E-03 0. -1.
        -11    1    3    3    0    0  0.12290234037E+02  0.18696135815E+02  0.13759581807E+01  0.22416257678E+02  0.51100000000E-03 0.  1.
         12    1    3    3    0    0  0.12860317860E+02 -0.35762139963E+02 -0.10036122045E+01  0.38017438994E+02  0.00000000000E+00 0. -1.
</event>
<event>
 7    1  0.2972263E-013  0.7246148E+02  0.7816164E-02  0.1226708E+00
        -11   -1    0    0    0    0  0.00000000000E+00  0.00000000000E+00  0.45593999997E+02  0.45594000000E+02  0.51100000000E-03 0.  1.
         11   -1    0    0    0    0 -0.00000000000E+00 -0.00000000000E+00 -0.45593999997E+02  0.45594000000E+02  0.51100000000E-03 0. -1.
    9900012    2    1    2    0    0 -0.19528140210E+01  0.49697393495E+01  0.17949116782E+02  0.72461479099E+02  0.69999881201E+02 0.  0.
         12    1    1    2    0    0  0.19528140210E+01 -0.49697393495E+01 -0.17949116782E+02  0.18726520901E+02  0.00000000000E+00 0. -1.
         11    1    3    3    0    0 -0.10388044634E+02  0.28240687128E+02 -0.11770584528E+02  0.32310904370E+02  0.51100000000E-03 0. -1.
        -11    1    3    3    0    0 -0.20323797531E+01 -0.71306691661E+01  0.55617614988E+01  0.92687756175E+01  0.51100000000E-03 0.  1.
        -12    1    3    3    0    0  0.10467610366E+02 -0.16140278613E+02  0.24157939811E+02  0.30881799112E+02  0.00000000000E+00 0.  1.
</event>
<event>
 7    1  0.2972263E-013  0.7246157E+02  0.7816164E-02  0.1226708E+00
        -11   -1    0    0    0    0  0.00000000000E+00  0.00000000000E+00  0.45593999997E+02  0.45594000000E+02  0.51100000000E-03 0. -1.
         11   -1    0    0    0    0 -0.00000000000E+00 -0.00000000000E+00 -0.45593999997E+02  0.45594000000E+02  0.51100000000E-03 0.  1.
    9900012    2    1    2    0    0  0.11328098586E+01  0.18520993144E+02  0.25236404586E+01  0.72461569310E+02  0.69999998718E+02 0.  0.
         12    1    1    2    0    0 -0.11328098586E+01 -0.18520993144E+02 -0.25236404586E+01  0.18726430690E+02  0.00000000000E+00 0. -1.
         11    1    3    3    0    0 -0.17923594484E+02 -0.19883285022E+02  0.45648581400E+01  0.27155813238E+02  0.51100000000E-03 0. -1.
        -11    1    3    3    0    0  0.36424101514E+01  0.46455996976E+01 -0.54551595854E+01  0.80378799832E+01  0.51100000000E-03 0.  1.
        -12    1    3    3    0    0  0.15413994191E+02  0.33758678468E+02  0.34139419040E+01  0.37267876089E+02  0.00000000000E+00 0.  1.
</event>
<event>
 7    1  0.2972263E-013  0.7246157E+02  0.7816164E-02  0.1226708E+00
        -11   -1    0    0    0    0  0.00000000000E+00  0.00000000000E+00  0.45593999997E+02  0.45594000000E+02  0.51100000000E-03 0. -1.
         11   -1    0    0    0    0 -0.00000000000E+00 -0.00000000000E+00 -0.45593999997E+02  0.45594000000E+02  0.51100000000E-03 0.  1.
    9900012    2    1    2    0    0 -0.10240359692E+02  0.29508546217E+01 -0.15398262586E+02  0.72461574813E+02  0.70000005886E+02 0.  0.
         12    1    1    2    0    0  0.10240359692E+02 -0.29508546217E+01  0.15398262586E+02  0.18726425187E+02  0.00000000000E+00 0. -1.
         11    1    3    3    0    0  0.10891590082E+02  0.23538325281E+00  0.21275452532E+02  0.23902448002E+02  0.51100000000E-03 0. -1.
        -11    1    3    3    0    0  0.21986149106E+01 -0.63810036403E+01 -0.68435234554E+01  0.96117078882E+01  0.51100000000E-03 0.  1.
        -12    1    3    3    0    0 -0.23330564685E+02  0.90964750093E+01 -0.29830191663E+02  0.38947418923E+02  0.00000000000E+00 0.  1.
</event>
<event>
 7    1  0.2972263E-013  0.7246155E+02  0.7816164E-02  0.1226708E+00
        -11   -1    0    0    0    0  0.00000000000E+00  0.00000000000E+00  0.45593999997E+02  0.45594000000E+02  0.51100000000E-03 0.  1.
         11   -1    0    0    0    0 -0.00000000000E+00 -0.00000000000E+00 -0.45593999997E+02  0.45594000000E+02  0.51100000000E-03 0. -1.
    9900012    2    1    2    0    0 -0.27634890644E+01  0.13984405420E+02 -0.12144108130E+02  0.72461552685E+02  0.69999977061E+02 0.  0.
         12    1    1    2    0    0  0.27634890644E+01 -0.13984405420E+02  0.12144108130E+02  0.18726447315E+02  0.00000000000E+00 0. -1.
         11    1    3    3    0    0  0.20539459304E+02  0.57017193665E+01 -0.25019527969E+02  0.32868765907E+02  0.51100000000E-03 0. -1.
        -11    1    3    3    0    0  0.59822631660E+01  0.50985559145E+01  0.14278026439E+01  0.79888275517E+01  0.51100000000E-03 0.  1.
        -12    1    3    3    0    0 -0.29285211534E+02  0.31841301390E+01  0.11447617195E+02  0.31603959226E+02  0.00000000000E+00 0.  1.
</event>
<event>
 7    1  0.2972263E-013  0.7246161E+02  0.7816164E-02  0.1226708E+00
        -11   -1    0    0    0    0  0.00000000000E+00  0.00000000000E+00  0.45593999997E+02  0.45594000000E+02  0.51100000000E-03 0. -1.
         11   -1    0    0    0    0 -0.00000000000E+00 -0.00000000000E+00 -0.45593999997E+02  0.45594000000E+02  0.51100000000E-03 0.  1.
    9900012    2    1    2    0    0 -0.95199986064E+01  0.16228469256E+01 -0.16044116282E+02  0.72461610255E+02  0.70000052056E+02 0.  0.
         12    1    1    2    0    0  0.95199986064E+01 -0.16228469256E+01  0.16044116282E+02  0.18726389745E+02  0.00000000000E+00 0. -1.
         11    1    3    3    0    0 -0.22595625988E+02  0.10495476678E+02  0.34238012413E+00  0.24916552107E+02  0.51100000000E-03 0. -1.
        -11    1    3    3    0    0 -0.11779895699E+01  0.14788204918E+02  0.10622990091E+01  0.14873034107E+02  0.51100000000E-03 0.  1.
        -12    1    3    3    0    0  0.14253616951E+02 -0.23660834671E+02 -0.17448795415E+02  0.32672024041E+02  0.00000000000E+00 0.  1.
</event>
<event>
 7    1  0.2972263E-013  0.7246147E+02  0.7816164E-02  0.1226708E+00
        -11   -1    0    0    0    0  0.00000000000E+00  0.00000000000E+00  0.45593999997E+02  0.45594000000E+02  0.51100000000E-03 0. -1.
         11   -1    0    0    0    0 -0.00000000000E+00 -0.00000000000E+00 -0.45593999997E+02  0.45594000000E+02  0.51100000000E-03 0.  1.
    9900012    2    1    2    0    0  0.14977707887E+02  0.11240356979E+02 -0.74949214960E-01  0.72461468662E+02  0.69999867604E+02 0.  0.
         12    1    1    2    0    0 -0.14977707887E+02 -0.11240356979E+02  0.74949214960E-01  0.18726531338E+02  0.00000000000E+00 0. -1.
         11    1    3    3    0    0 -0.45983155064E+01 -0.80863313702E+01 -0.82735896868E+01  0.12449319142E+02  0.51100000000E-03 0. -1.
        -11    1    3    3    0    0  0.16661788491E+02 -0.16449688396E+02  0.52584779699E+01  0.23997063047E+02  0.51100000000E-03 0.  1.
         12    1    3    3    0    0  0.29142349023E+01  0.35776376746E+02  0.29401625019E+01  0.36015086473E+02  0.00000000000E+00 0. -1.
</event>
<event>
 7    1  0.2972263E-013  0.7246157E+02  0.7816164E-02  0.1226708E+00
        -11   -1    0    0    0    0  0.00000000000E+00  0.00000000000E+00  0.45593999997E+02  0.45594000000E+02  0.51100000000E-03 0.  1.
         11   -1    0    0    0    0 -0.00000000000E+00 -0.00000000000E+00 -0.45593999997E+02  0.45594000000E+02  0.51100000000E-03 0. -1.
    9900012    2    1    2    0    0 -0.63851044093E+01 -0.65980889182E+01  0.16320993646E+02  0.72461570301E+02  0.70000000009E+02 0.  0.
         12    1    1    2    0    0  0.63851044093E+01  0.65980889182E+01 -0.16320993646E+02  0.18726429699E+02  0.00000000000E+00 0. -1.
         11    1    3    3    0    0 -0.67985826666E+00 -0.47974846612E+01 -0.16378766443E+01  0.51147538065E+01  0.51100000000E-03 0. -1.
        -11    1    3    3    0    0  0.11616179418E+02 -0.28929928393E+02  0.16146944523E+02  0.35108406383E+02  0.51100000000E-03 0.  1.
         12    1    3    3    0    0 -0.17321425560E+02  0.27129324136E+02  0.18119257666E+01  0.32238410111E+02  0.00000000000E+00 0. -1.
</event>
<event>
 7    1  0.2972263E-013  0.7246153E+02  0.7816164E-02  0.1226708E+00
        -11   -1    0    0    0    0  0.00000000000E+00  0.00000000000E+00  0.45593999997E+02  0.45594000000E+02  0.51100000000E-03 0.  1.
         11   -1    0    0    0    0 -0.00000000000E+00 -0.00000000000E+00 -0.45593999997E+02  0.45594000000E+02  0.51100000000E-03 0. -1.
    9900012    2    1    2    0    0  0.16312105974E+00 -0.17759291705E+02  0.59381616362E+01  0.72461526388E+02  0.69999942803E+02 0.  0.
         12    1    1    2    0    0 -0.16312105974E+00  0.17759291705E+02 -0.59381616362E+01  0.18726473612E+02  0.00000000000E+00 0. -1.
         11    1    3    3    0    0  0.56590465529E+00  0.35843750273E+01 -0.47852722752E+01  0.60055660369E+01  0.51100000000E-03 0. -1.
        -11    1    3    3    0    0  0.21112995281E+02  0.10039455077E+02 -0.71074292288E+01  0.24434909013E+02  0.51100000000E-03 0.  1.
         12    1    3    3    0    0 -0.21515778877E+02 -0.31383121809E+02  0.17830863140E+02  0.42021051337E+02  0.00000000000E+00 0. -1.
</event>
<event>
 7    1  0.2972263E-013  0.7246181E+02  0.7816164E-02  0.1226707E+00
        -11   -1    0    0    0    0  0.00000000000E+00  0.00000000000E+00  0.45593999997E+02  0.45594000000E+02  0.51100000000E-03 0.  1.
         11   -1    0    0    0    0 -0.00000000000E+00 -0.00000000000E+00 -0.45593999997E+02  0.45594000000E+02  0.51100000000E-03 0. -1.
    9900012    2    1    2    0    0  0.11821738995E+02  0.14477083541E+02 -0.11535384083E+01  0.72461812145E+02  0.70000315055E+02 0.  0.
         12    1    1    2    0    0 -0.11821738995E+02 -0.14477083541E+02  0.11535384083E+01  0.18726187855E+02  0.00000000000E+00 0. -1.
         11    1    3    3    0    0  0.41508586142E+01  0.53489453464E+01  0.12778085472E+02  0.14460992779E+02  0.51100000000E-03 0. -1.
        -11    1    3    3    0    0  0.20386516201E+02  0.25614010316E+02  0.37566468837E+00  0.32738794900E+02  0.51100000000E-03 0.  1.
         12    1    3    3    0    0 -0.12715635821E+02 -0.16485872122E+02 -0.14307288569E+02  0.25262024466E+02  0.00000000000E+00 0. -1.
</event>
<event>
 7    1  0.2972263E-013  0.7246157E+02  0.7816164E-02  0.1226708E+00
        -11   -1    0    0    0    0  0.00000000000E+00  0.00000000000E+00  0.45593999997E+02  0.45594000000E+02  0.51100000000E-03 0.  1.
         11   -1    0    0    0    0 -0.00000000000E+00 -0.00000000000E+00 -0.45593999997E+02  0.45594000000E+02  0.51100000000E-03 0. -1.
    9900012    2    1    2    0    0 -0.11863105025E+02 -0.14472387484E+02  0.70432545668E+00  0.72461565885E+02  0.69999994256E+02 0.  0.
         12    1    1    2    0    0  0.11863105025E+02  0.14472387484E+02 -0.70432545668E+00  0.18726434115E+02  0.00000000000E+00 0. -1.
         11    1    3    3    0    0 -0.30947104287E+01 -0.14293939785E+02  0.80394981005E+01  0.16689142494E+02  0.51100000000E-03 0.  1.
        -11    1    3    3    0    0  0.34480990489E+01 -0.17110943584E+02 -0.23566094967E+02  0.29326346681E+02  0.51100000000E-03 0. -1.
         12    1    3    3    0    0 -0.12216493645E+02  0.16932495885E+02  0.16230922323E+02  0.26446076710E+02  0.00000000000E+00 0. -1.
</event>
<event>
 7    1  0.2972263E-013  0.7246162E+02  0.7816164E-02  0.1226708E+00
        -11   -1    0    0    0    0  0.00000000000E+00  0.00000000000E+00  0.45593999997E+02  0.45594000000E+02  0.51100000000E-03 0. -1.
         11   -1    0    0    0    0 -0.00000000000E+00 -0.00000000000E+00 -0.45593999997E+02  0.45594000000E+02  0.51100000000E-03 0.  1.
    9900012    2    1    2    0    0  0.11461609131E+02 -0.14677953285E+02 -0.19663537463E+01  0.72461619048E+02  0.70000063511E+02 0.  0.
         12    1    1    2    0    0 -0.11461609131E+02  0.14677953285E+02  0.19663537463E+01  0.18726380952E+02  0.00000000000E+00 0. -1.
         11    1    3    3    0    0  0.73571184796E+01  0.35225867326E+00  0.23294258603E+02  0.24431000033E+02  0.51100000000E-03 0. -1.
        -11    1    3    3    0    0 -0.20810848909E+01  0.11259297412E+02 -0.61217939747E+00  0.11466361951E+02  0.51100000000E-03 0.  1.
         12    1    3    3    0    0  0.61855755420E+01 -0.26289509370E+02 -0.24648432951E+02  0.36564257064E+02  0.00000000000E+00 0. -1.
</event>
<event>
 7    1  0.2972263E-013  0.7246157E+02  0.7816164E-02  0.1226708E+00
        -11   -1    0    0    0    0  0.00000000000E+00  0.00000000000E+00  0.45593999997E+02  0.45594000000E+02  0.51100000000E-03 0.  1.
         11   -1    0    0    0    0 -0.00000000000E+00 -0.00000000000E+00 -0.45593999997E+02  0.45594000000E+02  0.51100000000E-03 0. -1.
    9900012    2    1    2    0    0  0.16732364718E+01  0.86906333943E+01  0.16503100558E+02  0.72461570626E+02  0.70000000432E+02 0.  0.
         12    1    1    2    0    0 -0.16732364718E+01 -0.86906333943E+01 -0.16503100558E+02  0.18726429374E+02  0.00000000000E+00 0. -1.
         11    1    3    3    0    0  0.17975980790E+02 -0.29571724743E+01 -0.48002484526E+01  0.18839403915E+02  0.51100000000E-03 0. -1.
        -11    1    3    3    0    0 -0.12539889829E+02 -0.16178664377E+02  0.47039617403E+01  0.21002982509E+02  0.51100000000E-03 0.  1.
        -12    1    3    3    0    0 -0.37628544890E+01  0.27826470246E+02  0.16599387270E+02  0.32619184202E+02  0.00000000000E+00 0.  1.
</event>
<event>
 7    1  0.2972263E-013  0.7246141E+02  0.7816164E-02  0.1226708E+00
        -11   -1    0    0    0    0  0.00000000000E+00  0.00000000000E+00  0.45593999997E+02  0.45594000000E+02  0.51100000000E-03 0.  1.
         11   -1    0    0    0    0 -0.00000000000E+00 -0.00000000000E+00 -0.45593999997E+02  0.45594000000E+02  0.51100000000E-03 0. -1.
    9900012    2    1    2    0    0 -0.10803252899E+02 -0.35720391081E+00  0.15292063789E+02  0.72461412410E+02  0.69999794326E+02 0.  0.
         12    1    1    2    0    0  0.10803252899E+02  0.35720391081E+00 -0.15292063789E+02  0.18726587590E+02  0.00000000000E+00 0. -1.
         11    1    3    3    0    0  0.28766830743E+01 -0.46331086803E+01  0.41671840287E+01  0.68634120190E+01  0.51100000000E-03 0. -1.
        -11    1    3    3    0    0  0.41844957083E+01 -0.22493432885E+02 -0.12126728363E+02  0.25894440877E+02  0.51100000000E-03 0.  1.
         12    1    3    3    0    0 -0.17864431682E+02  0.26769337654E+02  0.23251608123E+02  0.39703559514E+02  0.00000000000E+00 0. -1.
</event>
<event>
 7    1  0.3899639E-013  0.7246159E+02  0.7816164E-02  0.1226708E+00
        -11   -1    0    0    0    0  0.00000000000E+00  0.00000000000E+00  0.45593999997E+02  0.45594000000E+02  0.51100000000E-03 0. -1.
         11   -1    0    0    0    0 -0.00000000000E+00 -0.00000000000E+00 -0.45593999997E+02  0.45594000000E+02  0.51100000000E-03 0.  1.
    9900012    2    1    2    0    0  0.24599317994E+01  0.10688897805E+02 -0.15178094613E+02  0.72461591993E+02  0.70000028267E+02 0.  0.
         12    1    1    2    0    0 -0.24599317994E+01 -0.10688897805E+02  0.15178094613E+02  0.18726408007E+02  0.00000000000E+00 0. -1.
         11    1    3    3    0    0  0.63471837404E+01  0.10718689091E+02  0.72553711503E+01  0.14415874862E+02  0.51100000000E-03 0. -1.
        -11    1    3    3    0    0  0.16130378915E+02 -0.14636009503E+02 -0.24971918863E+02  0.33136062380E+02  0.51100000000E-03 0.  1.
         12    1    3    3    0    0 -0.20017630856E+02  0.14606218217E+02  0.25384530994E+01  0.24909654751E+02  0.00000000000E+00 0. -1.
</event>
<event>
 7    1  0.2972263E-013  0.7246147E+02  0.7816164E-02  0.1226708E+00
        -11   -1    0    0    0    0  0.00000000000E+00  0.00000000000E+00  0.45593999997E+02  0.45594000000E+02  0.51100000000E-03 0.  1.
         11   -1    0    0    0    0 -0.00000000000E+00 -0.00000000000E+00 -0.45593999997E+02  0.45594000000E+02  0.51100000000E-03 0. -1.
    9900012    2    1    2    0    0 -0.13755243810E+02  0.25155412024E+01  0.12455848050E+02  0.72461472547E+02  0.69999872666E+02 0.  0.
         12    1    1    2    0    0  0.13755243810E+02 -0.25155412024E+01 -0.12455848050E+02  0.18726527453E+02  0.00000000000E+00 0. -1.
         11    1    3    3    0    0  0.10210401846E+02  0.99522538433E+01  0.36843308178E+01  0.14726641038E+02  0.51100000000E-03 0. -1.
        -11    1    3    3    0    0  0.70424326836E+01 -0.30925420760E+01  0.22327640940E+02  0.23615317588E+02  0.51100000000E-03 0.  1.
         12    1    3    3    0    0 -0.31008078340E+02 -0.43441705649E+01 -0.13556123708E+02  0.34119513921E+02  0.00000000000E+00 0. -1.
</event>
<event>
 7    1  0.2972263E-013  0.7246159E+02  0.7816164E-02  0.1226708E+00
        -11   -1    0    0    0    0  0.00000000000E+00  0.00000000000E+00  0.45593999997E+02  0.45594000000E+02  0.51100000000E-03 0. -1.
         11   -1    0    0    0    0 -0.00000000000E+00 -0.00000000000E+00 -0.45593999997E+02  0.45594000000E+02  0.51100000000E-03 0.  1.
    9900012    2    1    2    0    0  0.52774789787E+01  0.14845575650E+02 -0.10121034917E+02  0.72461594884E+02  0.70000032033E+02 0.  0.
         12    1    1    2    0    0 -0.52774789787E+01 -0.14845575650E+02  0.10121034917E+02  0.18726405116E+02  0.00000000000E+00 0. -1.
         11    1    3    3    0    0  0.58975376506E+01  0.13406780038E+02 -0.15304756354E+02  0.21183915329E+02  0.51100000000E-03 0. -1.
        -11    1    3    3    0    0  0.17136538880E+02 -0.17834806155E+02  0.39092695840E+01  0.25040440577E+02  0.51100000000E-03 0.  1.
         12    1    3    3    0    0 -0.17756597551E+02  0.19273601767E+02  0.12744518528E+01  0.26237238978E+02  0.00000000000E+00 0. -1.
</event>
<event>
 7    1  0.2972263E-013  0.7246162E+02  0.7816164E-02  0.1226708E+00
        -11   -1    0    0    0    0  0.00000000000E+00  0.00000000000E+00  0.45593999997E+02  0.45594000000E+02  0.51100000000E-03 0.  1.
         11   -1    0    0    0    0 -0.00000000000E+00 -0.00000000000E+00 -0.45593999997E+02  0.45594000000E+02  0.51100000000E-03 0. -1.
    9900012    2    1    2    0    0 -0.16545108329E+01 -0.16291606287E+02  0.90842437120E+01  0.72461619535E+02  0.70000064144E+02 0.  0.
         12    1    1    2    0    0  0.16545108329E+01  0.16291606287E+02 -0.90842437120E+01  0.18726380465E+02  0.00000000000E+00 0. -1.
         11    1    3    3    0    0 -0.12022601691E+02 -0.35631431914E+02  0.15641493858E+02  0.40728346664E+02  0.51100000000E-03 0. -1.
        -11    1    3    3    0    0  0.11698363774E+01 -0.39590326599E+01 -0.52112672428E+01  0.66482902531E+01  0.51100000000E-03 0.  1.
        -12    1    3    3    0    0  0.91982544806E+01  0.23298858286E+02 -0.13459829033E+01  0.25084982617E+02  0.00000000000E+00 0.  1.
</event>
<event>
 7    1  0.2972263E-013  0.7246159E+02  0.7816164E-02  0.1226708E+00
        -11   -1    0    0    0    0  0.00000000000E+00  0.00000000000E+00  0.45593999997E+02  0.45594000000E+02  0.51100000000E-03 0. -1.
         11   -1    0    0    0    0 -0.00000000000E+00 -0.00000000000E+00 -0.45593999997E+02  0.45594000000E+02  0.51100000000E-03 0.  1.
    9900012    2    1    2    0    0 -0.35948049647E+01 -0.18339014856E+02  0.11984799787E+01  0.72461589696E+02  0.70000025274E+02 0.  0.
         12    1    1    2    0    0  0.35948049647E+01  0.18339014856E+02 -0.11984799787E+01  0.18726410304E+02  0.00000000000E+00 0. -1.
         11    1    3    3    0    0  0.70414824340E+01 -0.13273813409E+02 -0.24336330599E+02  0.28601286415E+02  0.51100000000E-03 0. -1.
        -11    1    3    3    0    0  0.75222469856E+01  0.77929296331E+01  0.12168301516E+01  0.10899294833E+02  0.51100000000E-03 0.  1.
         12    1    3    3    0    0 -0.18158534384E+02 -0.12858131081E+02  0.24317980426E+02  0.32961008448E+02  0.00000000000E+00 0. -1.
</event>
<event>
 7    1  0.2972263E-013  0.7246160E+02  0.7816164E-02  0.1226708E+00
        -11   -1    0    0    0    0  0.00000000000E+00  0.00000000000E+00  0.45593999997E+02  0.45594000000E+02  0.51100000000E-03 0. -1.
         11   -1    0    0    0    0 -0.00000000000E+00 -0.00000000000E+00 -0.45593999997E+02  0.45594000000E+02  0.51100000000E-03 0.  1.
    9900012    2    1    2    0    0 -0.10936879168E+02  0.94033890516E+01 -0.11943156958E+02  0.72461600194E+02  0.70000038949E+02 0.  0.
         12    1    1    2    0    0  0.10936879168E+02 -0.94033890516E+01  0.11943156958E+02  0.18726399806E+02  0.00000000000E+00 0. -1.
         11    1    3    3    0    0  0.13408688502E+02 -0.86157791447E+00 -0.22897061099E+02  0.26548270209E+02  0.51100000000E-03 0. -1.
        -11    1    3    3    0    0 -0.10236173926E+02 -0.12776159862E+02 -0.92981501769E+00  0.16397380086E+02  0.51100000000E-03 0.  1.
         12    1    3    3    0    0 -0.14109393745E+02  0.23041126828E+02  0.11883719159E+02  0.29515949898E+02  0.00000000000E+00 0. -1.
</event>
<event>
 7    1  0.2972263E-013  0.7246153E+02  0.7816164E-02  0.1226708E+00
        -11   -1    0    0    0    0  0.00000000000E+00  0.00000000000E+00  0.45593999997E+02  0.45594000000E+02  0.51100000000E-03 0.  1.
         11   -1    0    0    0    0 -0.00000000000E+00 -0.00000000000E+00 -0.45593999997E+02  0.45594000000E+02  0.51100000000E-03 0. -1.
    9900012    2    1    2    0    0 -0.99681640992E+01  0.87049594682E+01  0.13249147020E+02  0.72461534460E+02  0.69999953319E+02 0.  0.
         12    1    1    2    0    0  0.99681640992E+01 -0.87049594682E+01 -0.13249147020E+02  0.18726465540E+02  0.00000000000E+00 0. -1.
         11    1    3    3    0    0  0.54689123617E+01 -0.16169702040E+02  0.59329714520E+01  0.18071204083E+02  0.51100000000E-03 0. -1.
        -11    1    3    3    0    0 -0.19018396006E+01 -0.81642780937E+01  0.15625550541E+02  0.17732181497E+02  0.51100000000E-03 0.  1.
         12    1    3    3    0    0 -0.13535236860E+02  0.33038939602E+02 -0.83093749727E+01  0.36658148881E+02  0.00000000000E+00 0. -1.
</event>
<event>
 7    1  0.2972263E-013  0.7246161E+02  0.7816164E-02  0.1226708E+00
        -11   -1    0    0    0    0  0.00000000000E+00  0.00000000000E+00  0.45593999997E+02  0.45594000000E+02  0.51100000000E-03 0.  1.
         11   -1    0    0    0    0 -0.00000000000E+00 -0.00000000000E+00 -0.45593999997E+02  0.45594000000E+02  0.51100000000E-03 0. -1.
    9900012    2    1    2    0    0  0.79915023913E+01 -0.96061466020E+01  0.13947597054E+02  0.72461611491E+02  0.70000053666E+02 0.  0.
         12    1    1    2    0    0 -0.79915023913E+01  0.96061466020E+01 -0.13947597054E+02  0.18726388509E+02  0.00000000000E+00 0. -1.
         11    1    3    3    0    0 -0.13201219855E+00  0.73606590959E+01 -0.15257259784E+02  0.16940504889E+02  0.51100000000E-03 0. -1.
        -11    1    3    3    0    0  0.13860823062E+02 -0.23801025662E+02  0.28421032548E+01  0.27689145702E+02  0.51100000000E-03 0.  1.
         12    1    3    3    0    0 -0.57373084719E+01  0.68342199642E+01  0.26362753583E+02  0.27831960899E+02  0.00000000000E+00 0. -1.
</event>
<event>
 7    1  0.2972263E-013  0.7246155E+02  0.7816164E-02  0.1226708E+00
        -11   -1    0    0    0    0  0.00000000000E+00  0.00000000000E+00  0.45593999997E+02  0.45594000000E+02  0.51100000000E-03 0. -1.
         11   -1    0    0    0    0 -0.00000000000E+00 -0.00000000000E+00 -0.45593999997E+02  0.45594000000E+02  0.51100000000E-03 0.  1.
    9900012    2    1    2    0    0  0.92413747227E+01 -0.11765388750E+02 -0.11262887540E+02  0.72461547721E+02  0.69999970594E+02 0.  0.
         12    1    1    2    0    0 -0.92413747227E+01  0.11765388750E+02  0.11262887540E+02  0.18726452279E+02  0.00000000000E+00 0. -1.
         11    1    3    3    0    0  0.11324649336E+01  0.13407801188E+02 -0.54093890251E+01  0.14502175678E+02  0.51100000000E-03 0. -1.
        -11    1    3    3    0    0  0.28163367225E+02 -0.43761020543E+01 -0.57108625964E+01  0.29067842619E+02  0.51100000000E-03 0.  1.
        -12    1    3    3    0    0 -0.20054457436E+02 -0.20797087883E+02 -0.14263591891E+00  0.28891529424E+02  0.00000000000E+00 0.  1.
</event>
<event>
 7    1  0.2972263E-013  0.7246160E+02  0.7816164E-02  0.1226708E+00
        -11   -1    0    0    0    0  0.00000000000E+00  0.00000000000E+00  0.45593999997E+02  0.45594000000E+02  0.51100000000E-03 0. -1.
         11   -1    0    0    0    0 -0.00000000000E+00 -0.00000000000E+00 -0.45593999997E+02  0.45594000000E+02  0.51100000000E-03 0.  1.
    9900012    2    1    2    0    0 -0.13366212678E+02  0.42649293241E+01 -0.12402936269E+02  0.72461599076E+02  0.70000037493E+02 0.  0.
         12    1    1    2    0    0  0.13366212678E+02 -0.42649293241E+01  0.12402936269E+02  0.18726400924E+02  0.00000000000E+00 0. -1.
         11    1    3    3    0    0  0.16179107959E+02 -0.23404865667E+01  0.20687736656E+00  0.16348829017E+02  0.51100000000E-03 0. -1.
        -11    1    3    3    0    0 -0.27131019864E+02 -0.14811785920E+02  0.44579432715E+00  0.30914074042E+02  0.51100000000E-03 0.  1.
         12    1    3    3    0    0 -0.24143007725E+01  0.21417201811E+02 -0.13055607963E+02  0.25198696016E+02  0.00000000000E+00 0. -1.
</event>
<event>
 7    1  0.2972263E-013  0.7246147E+02  0.7816164E-02  0.1226708E+00
        -11   -1    0    0    0    0  0.00000000000E+00  0.00000000000E+00  0.45593999997E+02  0.45594000000E+02  0.51100000000E-03 0.  1.
         11   -1    0    0    0    0 -0.00000000000E+00 -0.00000000000E+00 -0.45593999997E+02  0.45594000000E+02  0.51100000000E-03 0. -1.
    9900012    2    1    2    0    0 -0.12511151073E+02  0.72685998238E+00  0.13914949530E+02  0.72461466764E+02  0.69999865133E+02 0.  0.
         12    1    1    2    0    0  0.12511151073E+02 -0.72685998238E+00 -0.13914949530E+02  0.18726533236E+02  0.00000000000E+00 0. -1.
         11    1    3    3    0    0 -0.37104213422E+01 -0.84061811686E+00 -0.10507709671E+02  0.11175232801E+02  0.51100000000E-03 0. -1.
        -11    1    3    3    0    0  0.69451423311E+01 -0.17916233018E+02 -0.75701246039E+01  0.20652680076E+02  0.51100000000E-03 0.  1.
        -12    1    3    3    0    0 -0.15745872062E+02  0.19483711117E+02  0.31992783805E+02  0.40633553887E+02  0.00000000000E+00 0.  1.
</event>
<event>
 7    1  0.2972263E-013  0.7246158E+02  0.7816164E-02  0.1226708E+00
        -11   -1    0    0    0    0  0.00000000000E+00  0.00000000000E+00  0.45593999997E+02  0.45594000000E+02  0.51100000000E-03 0.  1.
         11   -1    0    0    0    0 -0.00000000000E+00 -0.00000000000E+00 -0.45593999997E+02  0.45594000000E+02  0.51100000000E-03 0. -1.
    9900012    2    1    2    0    0  0.54536706188E+01 -0.16531631563E+02  0.69022831812E+01  0.72461578065E+02  0.70000010123E+02 0.  0.
         12    1    1    2    0    0 -0.54536706188E+01  0.16531631563E+02 -0.69022831812E+01  0.18726421935E+02  0.00000000000E+00 0. -1.
         11    1    3    3    0    0  0.75033794290E+01 -0.57211067348E+01  0.73494267409E+01  0.11960177206E+02  0.51100000000E-03 0. -1.
        -11    1    3    3    0    0 -0.25460393988E+02  0.42906127593E+01  0.13729839822E+02  0.29242939689E+02  0.51100000000E-03 0.  1.
         12    1    3    3    0    0  0.23410685178E+02 -0.15101137588E+02 -0.14176983381E+02  0.31258461170E+02  0.00000000000E+00 0. -1.
</event>
<event>
 7    1  0.2972263E-013  0.7246168E+02  0.7816164E-02  0.1226708E+00
        -11   -1    0    0    0    0  0.00000000000E+00  0.00000000000E+00  0.45593999997E+02  0.45594000000E+02  0.51100000000E-03 0.  1.
         11   -1    0    0    0    0 -0.00000000000E+00 -0.00000000000E+00 -0.45593999997E+02  0.45594000000E+02  0.51100000000E-03 0. -1.
    9900012    2    1    2    0    0  0.13855043585E+02  0.10775181084E+02  0.65275025593E+01  0.72461680292E+02  0.70000143293E+02 0.  0.
         12    1    1    2    0    0 -0.13855043585E+02 -0.10775181084E+02 -0.65275025593E+01  0.18726319708E+02  0.00000000000E+00 0. -1.
         11    1    3    3    0    0 -0.17064008307E+02  0.30055790112E+01 -0.76218164009E+01  0.18928971716E+02  0.51100000000E-03 0. -1.
        -11    1    3    3    0    0 -0.68623727123E+01  0.67124172927E+01  0.12419542784E+02  0.15696934362E+02  0.51100000000E-03 0.  1.
        -12    1    3    3    0    0  0.37781424604E+02  0.10571847806E+01  0.17297761762E+01  0.37835774214E+02  0.00000000000E+00 0.  1.
</event>
<event>
 7    1  0.2972263E-013  0.7246157E+02  0.7816164E-02  0.1226708E+00
        -11   -1    0    0    0    0  0.00000000000E+00  0.00000000000E+00  0.45593999997E+02  0.45594000000E+02  0.51100000000E-03 0.  1.
         11   -1    0    0    0    0 -0.00000000000E+00 -0.00000000000E+00 -0.45593999997E+02  0.45594000000E+02  0.51100000000E-03 0. -1.
    9900012    2    1    2    0    0 -0.16204135208E+02  0.66364578485E+01  0.66379630729E+01  0.72461571499E+02  0.70000001570E+02 0.  0.
         12    1    1    2    0    0  0.16204135208E+02 -0.66364578485E+01 -0.66379630729E+01  0.18726428501E+02  0.00000000000E+00 0. -1.
         11    1    3    3    0    0 -0.18680071819E+02  0.46950914191E+00 -0.70937158623E+01  0.19987154049E+02  0.51100000000E-03 0. -1.
        -11    1    3    3    0    0  0.11772236306E+00  0.16598908825E+02 -0.14653063451E+02  0.22141587601E+02  0.51100000000E-03 0.  1.
         12    1    3    3    0    0  0.23582142474E+01 -0.10431960118E+02  0.28384742386E+02  0.30332829849E+02  0.00000000000E+00 0. -1.
</event>
<event>
 7    1  0.2972263E-013  0.7246151E+02  0.7816164E-02  0.1226708E+00
        -11   -1    0    0    0    0  0.00000000000E+00  0.00000000000E+00  0.45593999997E+02  0.45594000000E+02  0.51100000000E-03 0.  1.
         11   -1    0    0    0    0 -0.00000000000E+00 -0.00000000000E+00 -0.45593999997E+02  0.45594000000E+02  0.51100000000E-03 0. -1.
    9900012    2    1    2    0    0  0.27813748000E+01  0.18357510199E+02  0.24386891847E+01  0.72461509901E+02  0.69999921327E+02 0.  0.
         12    1    1    2    0    0 -0.27813748000E+01 -0.18357510199E+02 -0.24386891847E+01  0.18726490099E+02  0.00000000000E+00 0. -1.
         11    1    3    3    0    0 -0.90611548078E+01 -0.16985189053E+01  0.63987036179E+01  0.11221982943E+02  0.51100000000E-03 0. -1.
        -11    1    3    3    0    0  0.20173698601E+02  0.19365577619E+02  0.20964672980E+02  0.34950267884E+02  0.51100000000E-03 0.  1.
         12    1    3    3    0    0 -0.83311689932E+01  0.69045148503E+00 -0.24924687413E+02  0.26289259074E+02  0.00000000000E+00 0. -1.
</event>
<event>
 7    1  0.2972263E-013  0.7246166E+02  0.7816164E-02  0.1226708E+00
        -11   -1    0    0    0    0  0.00000000000E+00  0.00000000000E+00  0.45593999997E+02  0.45594000000E+02  0.51100000000E-03 0. -1.
         11   -1    0    0    0    0 -0.00000000000E+00 -0.00000000000E+00 -0.45593999997E+02  0.45594000000E+02  0.51100000000E-03 0.  1.
    9900012    2    1    2    0    0 -0.14733662526E+02 -0.11151336334E+02  0.30401960318E+01  0.72461657448E+02  0.70000113534E+02 0.  0.
         12    1    1    2    0    0  0.14733662526E+02  0.11151336334E+02 -0.30401960318E+01  0.18726342552E+02  0.00000000000E+00 0. -1.
         11    1    3    3    0    0 -0.39578154189E+01  0.82974479510E+01  0.49908277993E+01  0.10460416233E+02  0.51100000000E-03 0. -1.
        -11    1    3    3    0    0 -0.32498492577E+02 -0.16310447005E+02 -0.11397655574E+02  0.38106288905E+02  0.51100000000E-03 0.  1.
         12    1    3    3    0    0  0.21722645470E+02 -0.31383372795E+01  0.94470238061E+01  0.23894952310E+02  0.00000000000E+00 0. -1.
</event>
<event>
 7    1  0.2972263E-013  0.7246159E+02  0.7816164E-02  0.1226708E+00
        -11   -1    0    0    0    0  0.00000000000E+00  0.00000000000E+00  0.45593999997E+02  0.45594000000E+02  0.51100000000E-03 0. -1.
         11   -1    0    0    0    0 -0.00000000000E+00 -0.00000000000E+00 -0.45593999997E+02  0.45594000000E+02  0.51100000000E-03 0.  1.
    9900012    2    1    2    0    0 -0.10273959158E+02  0.10698381230E+02 -0.11431049583E+02  0.72461588377E+02  0.70000023556E+02 0.  0.
         12    1    1    2    0    0  0.10273959158E+02 -0.10698381230E+02  0.11431049583E+02  0.18726411623E+02  0.00000000000E+00 0. -1.
         11    1    3    3    0    0  0.12670122525E+01 -0.24909794797E+02  0.60209984231E+01  0.25658441480E+02  0.51100000000E-03 0. -1.
        -11    1    3    3    0    0  0.33186805928E+01  0.90508500244E+01  0.30479829108E+01  0.10110476108E+02  0.51100000000E-03 0.  1.
        -12    1    3    3    0    0 -0.14859652003E+02  0.26557326003E+02 -0.20500030917E+02  0.36692670789E+02  0.00000000000E+00 0.  1.
</event>
<event>
 7    1  0.2972263E-013  0.7246189E+02  0.7816164E-02  0.1226707E+00
        -11   -1    0    0    0    0  0.00000000000E+00  0.00000000000E+00  0.45593999997E+02  0.45594000000E+02  0.51100000000E-03 0.  1.
         11   -1    0    0    0    0 -0.00000000000E+00 -0.00000000000E+00 -0.45593999997E+02  0.45594000000E+02  0.51100000000E-03 0. -1.
    9900012    2    1    2    0    0 -0.42939219051E+01 -0.10553126316E+02  0.14861390055E+02  0.72461891095E+02  0.70000417901E+02 0.  0.
         12    1    1    2    0    0  0.42939219051E+01  0.10553126316E+02 -0.14861390055E+02  0.18726108905E+02  0.00000000000E+00 0. -1.
         11    1    3    3    0    0 -0.94471531735E+01 -0.26802378271E+02  0.12609078853E+02  0.31090272657E+02  0.51100000000E-03 0.  1.
        -11    1    3    3    0    0  0.18271522308E+02 -0.61260652104E+00 -0.47513220837E+01  0.18889120573E+02  0.51100000000E-03 0. -1.
        -12    1    3    3    0    0 -0.13118291040E+02  0.16861858476E+02  0.70036332848E+01  0.22482497865E+02  0.00000000000E+00 0.  1.
</event>
<event>
 7    1  0.2972263E-013  0.7246159E+02  0.7816164E-02  0.1226708E+00
        -11   -1    0    0    0    0  0.00000000000E+00  0.00000000000E+00  0.45593999997E+02  0.45594000000E+02  0.51100000000E-03 0. -1.
         11   -1    0    0    0    0 -0.00000000000E+00 -0.00000000000E+00 -0.45593999997E+02  0.45594000000E+02  0.51100000000E-03 0.  1.
    9900012    2    1    2    0    0  0.15122435586E+02 -0.17347188458E+01 -0.10907852484E+02  0.72461586746E+02  0.70000021432E+02 0.  0.
         12    1    1    2    0    0 -0.15122435586E+02  0.17347188458E+01  0.10907852484E+02  0.18726413254E+02  0.00000000000E+00 0. -1.
         11    1    3    3    0    0  0.83648424574E+01 -0.12941733252E+02 -0.11636020435E+02  0.19309480074E+02  0.51100000000E-03 0. -1.
        -11    1    3    3    0    0  0.99657162854E+01  0.62362180785E+00 -0.24037776129E+02  0.26029196813E+02  0.51100000000E-03 0.  1.
         12    1    3    3    0    0 -0.32081231565E+01  0.10583392598E+02  0.24765944080E+02  0.27122909860E+02  0.00000000000E+00 0. -1.
</event>
<event>
 7    1  0.2972263E-013  0.7246169E+02  0.7816164E-02  0.1226708E+00
        -11   -1    0    0    0    0  0.00000000000E+00  0.00000000000E+00  0.45593999997E+02  0.45594000000E+02  0.51100000000E-03 0.  1.
         11   -1    0    0    0    0 -0.00000000000E+00 -0.00000000000E+00 -0.45593999997E+02  0.45594000000E+02  0.51100000000E-03 0. -1.
    9900012    2    1    2    0    0  0.48649034019E+01  0.17742112409E+02  0.34963927202E+01  0.72461692305E+02  0.70000158941E+02 0.  0.
         12    1    1    2    0    0 -0.48649034019E+01 -0.17742112409E+02 -0.34963927202E+01  0.18726307695E+02  0.00000000000E+00 0. -1.
         11    1    3    3    0    0  0.13552753365E+02 -0.44638234406E+01 -0.17407456811E+02  0.22508273953E+02  0.51100000000E-03 0. -1.
        -11    1    3    3    0    0 -0.13921826590E+02 -0.34833553394E+01 -0.27857308576E+01  0.14618868516E+02  0.51100000000E-03 0.  1.
        -12    1    3    3    0    0  0.52339766264E+01  0.25689291189E+02  0.23689580388E+02  0.35334549836E+02  0.00000000000E+00 0.  1.
</event>
<event>
 7    1  0.2972263E-013  0.7246159E+02  0.7816164E-02  0.1226708E+00
        -11   -1    0    0    0    0  0.00000000000E+00  0.00000000000E+00  0.45593999997E+02  0.45594000000E+02  0.51100000000E-03 0.  1.
         11   -1    0    0    0    0 -0.00000000000E+00 -0.00000000000E+00 -0.45593999997E+02  0.45594000000E+02  0.51100000000E-03 0. -1.
    9900012    2    1    2    0    0  0.52839445255E+01 -0.59215122865E+01  0.16961549649E+02  0.72461586996E+02  0.70000021757E+02 0.  0.
         12    1    1    2    0    0 -0.52839445255E+01  0.59215122865E+01 -0.16961549649E+02  0.18726413004E+02  0.00000000000E+00 0. -1.
         11    1    3    3    0    0 -0.19044672424E+02 -0.17606757242E+02  0.30993520005E+01  0.26120938562E+02  0.51100000000E-03 0. -1.
        -11    1    3    3    0    0  0.52196003691E+01  0.37328345411E+00 -0.11497684170E+02  0.12632510047E+02  0.51100000000E-03 0.  1.
        -12    1    3    3    0    0  0.19109016580E+02  0.11311961501E+02  0.25359881818E+02  0.33708138387E+02  0.00000000000E+00 0.  1.
</event>
<event>
 7    1  0.2972263E-013  0.7246157E+02  0.7816164E-02  0.1226708E+00
        -11   -1    0    0    0    0  0.00000000000E+00  0.00000000000E+00  0.45593999997E+02  0.45594000000E+02  0.51100000000E-03 0. -1.
         11   -1    0    0    0    0 -0.00000000000E+00 -0.00000000000E+00 -0.45593999997E+02  0.45594000000E+02  0.51100000000E-03 0.  1.
    9900012    2    1    2    0    0  0.53119880250E+01 -0.17907833775E+02 -0.13310037293E+01  0.72461566858E+02  0.69999995523E+02 0.  0.
         12    1    1    2    0    0 -0.53119880250E+01  0.17907833775E+02  0.13310037293E+01  0.18726433142E+02  0.00000000000E+00 0. -1.
         11    1    3    3    0    0  0.10432660998E+02 -0.10173393414E+02 -0.14762518512E+02  0.20742957893E+02  0.51100000000E-03 0.  1.
        -11    1    3    3    0    0  0.25264087343E+01 -0.19978128844E+02 -0.11293563139E+02  0.23087939316E+02  0.51100000000E-03 0. -1.
         12    1    3    3    0    0 -0.76470817077E+01  0.12243688483E+02  0.24725077922E+02  0.28630669649E+02  0.00000000000E+00 0. -1.
</event>
<event>
 7    1  0.2972263E-013  0.7246157E+02  0.7816164E-02  0.1226708E+00
        -11   -1    0    0    0    0  0.00000000000E+00  0.00000000000E+00  0.45593999997E+02  0.45594000000E+02  0.51100000000E-03 0.  1.
         11   -1    0    0    0    0 -0.00000000000E+00 -0.00000000000E+00 -0.45593999997E+02  0.45594000000E+02  0.51100000000E-03 0. -1.
    9900012    2    1    2    0    0  0.36759893710E+01 -0.13818995850E+02  0.12091380567E+02  0.72461574068E+02  0.70000004916E+02 0.  0.
         12    1    1    2    0    0 -0.36759893710E+01  0.13818995850E+02 -0.12091380567E+02  0.18726425932E+02  0.00000000000E+00 0. -1.
         11    1    3    3    0    0  0.68106002336E+01 -0.22729038697E+02 -0.15516696827E+02  0.28350685288E+02  0.51100000000E-03 0. -1.
        -11    1    3    3    0    0 -0.10159840628E+01 -0.11678453222E+02  0.32859873348E+01  0.12174407842E+02  0.51100000000E-03 0.  1.
         12    1    3    3    0    0 -0.21186267998E+01  0.20588496068E+02  0.24322090059E+02  0.31936480938E+02  0.00000000000E+00 0. -1.
</event>
<event>
 7    1  0.2972263E-013  0.7246158E+02  0.7816164E-02  0.1226708E+00
        -11   -1    0    0    0    0  0.00000000000E+00  0.00000000000E+00  0.45593999997E+02  0.45594000000E+02  0.51100000000E-03 0. -1.
         11   -1    0    0    0    0 -0.00000000000E+00 -0.00000000000E+00 -0.45593999997E+02  0.45594000000E+02  0.51100000000E-03 0.  1.
    9900012    2    1    2    0    0 -0.15149572596E+02 -0.91603303937E+01  0.61038931561E+01  0.72461582446E+02  0.70000015829E+02 0.  0.
         12    1    1    2    0    0  0.15149572596E+02  0.91603303937E+01 -0.61038931561E+01  0.18726417554E+02  0.00000000000E+00 0. -1.
         11    1    3    3    0    0  0.10129326205E+02  0.11058600063E+02  0.94780036931E+01  0.17740587335E+02  0.51100000000E-03 0. -1.
        -11    1    3    3    0    0  0.29903116837E+01 -0.33034692278E+01  0.15927747702E+02  0.16539287168E+02  0.51100000000E-03 0.  1.
        -12    1    3    3    0    0 -0.28269210484E+02 -0.16915461229E+02 -0.19301858239E+02  0.38181707943E+02  0.00000000000E+00 0.  1.
</event>
<event>
 7    1  0.2972263E-013  0.7246156E+02  0.7816164E-02  0.1226708E+00
        -11   -1    0    0    0    0  0.00000000000E+00  0.00000000000E+00  0.45593999997E+02  0.45594000000E+02  0.51100000000E-03 0.  1.
         11   -1    0    0    0    0 -0.00000000000E+00 -0.00000000000E+00 -0.45593999997E+02  0.45594000000E+02  0.51100000000E-03 0. -1.
    9900012    2    1    2    0    0  0.16360950249E+02 -0.64723765061E+01  0.64114765088E+01  0.72461564629E+02  0.69999992620E+02 0.  0.
         12    1    1    2    0    0 -0.16360950249E+02  0.64723765061E+01 -0.64114765088E+01  0.18726435371E+02  0.00000000000E+00 0. -1.
         11    1    3    3    0    0  0.11911339887E+02  0.85012162599E+01 -0.56369545287E+01  0.15682026413E+02  0.51100000000E-03 0. -1.
        -11    1    3    3    0    0 -0.90900547924E+01  0.13812958851E+02  0.17971202381E+02  0.24421118804E+02  0.51100000000E-03 0.  1.
        -12    1    3    3    0    0  0.13539665154E+02 -0.28786551617E+02 -0.59227713434E+01  0.32358419412E+02  0.00000000000E+00 0.  1.
</event>
<event>
 7    1  0.3463994E-013  0.7246154E+02  0.7816164E-02  0.1226708E+00
        -11   -1    0    0    0    0  0.00000000000E+00  0.00000000000E+00  0.45593999997E+02  0.45594000000E+02  0.51100000000E-03 0. -1.
         11   -1    0    0    0    0 -0.00000000000E+00 -0.00000000000E+00 -0.45593999997E+02  0.45594000000E+02  0.51100000000E-03 0.  1.
    9900012    2    1    2    0    0  0.18719097161E+01  0.11657924425E+02 -0.14535095711E+02  0.72461541306E+02  0.69999962237E+02 0.  0.
         12    1    1    2    0    0 -0.18719097161E+01 -0.11657924425E+02  0.14535095711E+02  0.18726458694E+02  0.00000000000E+00 0. -1.
         11    1    3    3    0    0 -0.91282093137E+01  0.18495757431E+02  0.17737850146E+02  0.27203833853E+02  0.51100000000E-03 0. -1.
        -11    1    3    3    0    0  0.21402687783E+00  0.10360215479E+02 -0.57287539791E+01  0.11840544527E+02  0.51100000000E-03 0.  1.
        -12    1    3    3    0    0  0.10786092152E+02 -0.17198048485E+02 -0.26544191878E+02  0.33417162927E+02  0.00000000000E+00 0.  1.
</event>
<event>
 7    1  0.2972263E-013  0.7246157E+02  0.7816164E-02  0.1226708E+00
        -11   -1    0    0    0    0  0.00000000000E+00  0.00000000000E+00  0.45593999997E+02  0.45594000000E+02  0.51100000000E-03 0.  1.
         11   -1    0    0    0    0 -0.00000000000E+00 -0.00000000000E+00 -0.45593999997E+02  0.45594000000E+02  0.51100000000E-03 0. -1.
    9900012    2    1    2    0    0 -0.40568758095E+01 -0.11415313194E+02  0.14279762489E+02  0.72461568589E+02  0.69999997778E+02 0.  0.
         12    1    1    2    0    0  0.40568758095E+01  0.11415313194E+02 -0.14279762489E+02  0.18726431411E+02  0.00000000000E+00 0. -1.
         11    1    3    3    0    0 -0.11619908100E+00 -0.41936485143E+01 -0.22280436163E+02  0.22671965640E+02  0.51100000000E-03 0. -1.
        -11    1    3    3    0    0  0.50195240167E+01 -0.10209165626E+02 -0.65430255624E+00  0.11395209354E+02  0.51100000000E-03 0.  1.
        -12    1    3    3    0    0 -0.89602007452E+01  0.29875009460E+01  0.37214501209E+02  0.38394393595E+02  0.00000000000E+00 0.  1.
</event>
<event>
 7    1  0.2972263E-013  0.7246158E+02  0.7816164E-02  0.1226708E+00
        -11   -1    0    0    0    0  0.00000000000E+00  0.00000000000E+00  0.45593999997E+02  0.45594000000E+02  0.51100000000E-03 0.  1.
         11   -1    0    0    0    0 -0.00000000000E+00 -0.00000000000E+00 -0.45593999997E+02  0.45594000000E+02  0.51100000000E-03 0. -1.
    9900012    2    1    2    0    0 -0.13451762765E+02 -0.61754899248E+01  0.11471371121E+02  0.72461576084E+02  0.70000007542E+02 0.  0.
         12    1    1    2    0    0  0.13451762765E+02  0.61754899248E+01 -0.11471371121E+02  0.18726423916E+02  0.00000000000E+00 0. -1.
         11    1    3    3    0    0 -0.23050548761E+02  0.22874781318E+02  0.76814364465E-01  0.32474441015E+02  0.51100000000E-03 0. -1.
        -11    1    3    3    0    0 -0.42577793807E+01 -0.60096814828E+01 -0.46185861383E+01  0.86934627714E+01  0.51100000000E-03 0.  1.
        -12    1    3    3    0    0  0.13856565377E+02 -0.23040589760E+02  0.16013142895E+02  0.31293672298E+02  0.00000000000E+00 0.  1.
</event>
<event>
 7    1  0.2972263E-013  0.7246153E+02  0.7816164E-02  0.1226708E+00
        -11   -1    0    0    0    0  0.00000000000E+00  0.00000000000E+00  0.45593999997E+02  0.45594000000E+02  0.51100000000E-03 0. -1.
         11   -1    0    0    0    0 -0.00000000000E+00 -0.00000000000E+00 -0.45593999997E+02  0.45594000000E+02  0.51100000000E-03 0.  1.
    9900012    2    1    2    0    0 -0.17080462923E+02 -0.76492891022E+01  0.65338374159E+00  0.72461528155E+02  0.69999945106E+02 0.  0.
         12    1    1    2    0    0  0.17080462923E+02  0.76492891022E+01 -0.65338374159E+00  0.18726471845E+02  0.00000000000E+00 0. -1.
         11    1    3    3    0    0  0.12479247787E+01  0.42294431329E+00  0.26903531355E+02  0.26935779139E+02  0.51100000000E-03 0. -1.
        -11    1    3    3    0    0 -0.18871956994E+02 -0.11952831431E+02 -0.37066210836E+01  0.22644204118E+02  0.51100000000E-03 0.  1.
        -12    1    3    3    0    0  0.54356929193E+00  0.38805980155E+01 -0.22543526530E+02  0.22881544899E+02  0.00000000000E+00 0.  1.
</event>
<event>
 7    1  0.2972263E-013  0.7246165E+02  0.7816164E-02  0.1226708E+00
        -11   -1    0    0    0    0  0.00000000000E+00  0.00000000000E+00  0.45593999997E+02  0.45594000000E+02  0.51100000000E-03 0.  1.
         11   -1    0    0    0    0 -0.00000000000E+00 -0.00000000000E+00 -0.45593999997E+02  0.45594000000E+02  0.51100000000E-03 0. -1.
    9900012    2    1    2    0    0  0.39548344405E+01  0.18020875465E+02 -0.32068166292E+01  0.72461645820E+02  0.70000098386E+02 0.  0.
         12    1    1    2    0    0 -0.39548344405E+01 -0.18020875465E+02  0.32068166292E+01  0.18726354180E+02  0.00000000000E+00 0. -1.
         11    1    3    3    0    0  0.22692348522E+02 -0.42591546379E+00  0.12708893331E+02  0.26012305845E+02  0.51100000000E-03 0. -1.
        -11    1    3    3    0    0  0.72787078432E+01 -0.30418864725E+01  0.21470361054E+01  0.81757217099E+01  0.51100000000E-03 0.  1.
        -12    1    3    3    0    0 -0.26016221925E+02  0.21488677401E+02 -0.18062746065E+02  0.38273618265E+02  0.00000000000E+00 0.  1.
</event>
<event>
 7    1  0.2972263E-013  0.7246161E+02  0.7816164E-02  0.1226708E+00
        -11   -1    0    0    0    0  0.00000000000E+00  0.00000000000E+00  0.45593999997E+02  0.45594000000E+02  0.51100000000E-03 0.  1.
         11   -1    0    0    0    0 -0.00000000000E+00 -0.00000000000E+00 -0.45593999997E+02  0.45594000000E+02  0.51100000000E-03 0. -1.
    9900012    2    1    2    0    0  0.81938203688E+01 -0.53878803110E+01  0.15953365846E+02  0.72461606105E+02  0.70000046651E+02 0.  0.
         12    1    1    2    0    0 -0.81938203688E+01  0.53878803110E+01 -0.15953365846E+02  0.18726393895E+02  0.00000000000E+00 0. -1.
         11    1    3    3    0    0 -0.76499002212E+00  0.15206914838E+02 -0.15793217601E+02  0.21937666036E+02  0.51100000000E-03 0. -1.
        -11    1    3    3    0    0  0.10560523033E+02  0.46724809091E+01  0.24532496907E+01  0.11805725682E+02  0.51100000000E-03 0.  1.
        -12    1    3    3    0    0 -0.16017126419E+01 -0.25267276058E+02  0.29293333757E+02  0.38718214388E+02  0.00000000000E+00 0.  1.
</event>
<event>
 7    1  0.3898450E-013  0.7246157E+02  0.7816164E-02  0.1226708E+00
        -11   -1    0    0    0    0  0.00000000000E+00  0.00000000000E+00  0.45593999997E+02  0.45594000000E+02  0.51100000000E-03 0. -1.
         11   -1    0    0    0    0 -0.00000000000E+00 -0.00000000000E+00 -0.45593999997E+02  0.45594000000E+02  0.51100000000E-03 0.  1.
    9900012    2    1    2    0    0 -0.69037250420E+01 -0.12684143531E+02 -0.11921836871E+02  0.72461571859E+02  0.70000002038E+02 0.  0.
         12    1    1    2    0    0  0.69037250420E+01  0.12684143531E+02  0.11921836871E+02  0.18726428141E+02  0.00000000000E+00 0. -1.
         11    1    3    3    0    0 -0.23065369314E+01 -0.72910926631E+01  0.23482633549E+02  0.24696441515E+02  0.51100000000E-03 0. -1.
        -11    1    3    3    0    0 -0.17918874862E+02 -0.46410382848E+01 -0.17843901371E+02  0.25710506200E+02  0.51100000000E-03 0.  1.
        -12    1    3    3    0    0  0.13321686751E+02 -0.75201258295E+00 -0.17560569048E+02  0.22054624144E+02  0.00000000000E+00 0.  1.
</event>
<event>
 7    1  0.2972263E-013  0.7246153E+02  0.7816164E-02  0.1226708E+00
        -11   -1    0    0    0    0  0.00000000000E+00  0.00000000000E+00  0.45593999997E+02  0.45594000000E+02  0.51100000000E-03 0. -1.
         11   -1    0    0    0    0 -0.00000000000E+00 -0.00000000000E+00 -0.45593999997E+02  0.45594000000E+02  0.51100000000E-03 0.  1.
    9900012    2    1    2    0    0 -0.88779536261E+01  0.58792257397E+01 -0.15404455208E+02  0.72461532203E+02  0.69999950379E+02 0.  0.
         12    1    1    2    0    0  0.88779536261E+01 -0.58792257397E+01  0.15404455208E+02  0.18726467797E+02  0.00000000000E+00 0. -1.
         11    1    3    3    0    0 -0.40580268465E+01  0.23760358661E+01 -0.10256741206E+01  0.48130173474E+01  0.51100000000E-03 0. -1.
        -11    1    3    3    0    0  0.20084124222E+01  0.31730523641E+02  0.57547166761E+01  0.32310626972E+02  0.51100000000E-03 0.  1.
         12    1    3    3    0    0 -0.68283392018E+01 -0.28227333768E+02 -0.20133497764E+02  0.35337887884E+02  0.00000000000E+00 0. -1.
</event>
<event>
 7    1  0.2972263E-013  0.7246157E+02  0.7816164E-02  0.1226708E+00
        -11   -1    0    0    0    0  0.00000000000E+00  0.00000000000E+00  0.45593999997E+02  0.45594000000E+02  0.51100000000E-03 0.  1.
         11   -1    0    0    0    0 -0.00000000000E+00 -0.00000000000E+00 -0.45593999997E+02  0.45594000000E+02  0.51100000000E-03 0. -1.
    9900012    2    1    2    0    0 -0.17470116588E+02  0.22110958597E+01  0.63706439589E+01  0.72461574208E+02  0.70000005098E+02 0.  0.
         12    1    1    2    0    0  0.17470116588E+02 -0.22110958597E+01 -0.63706439589E+01  0.18726425792E+02  0.00000000000E+00 0. -1.
         11    1    3    3    0    0  0.44502511633E+01  0.16566031430E+02 -0.42989528051E+01  0.17683866326E+02  0.51100000000E-03 0.  1.
        -11    1    3    3    0    0  0.11216031010E+02  0.17168769469E+01  0.13742496019E+02  0.17821425733E+02  0.51100000000E-03 0. -1.
         12    1    3    3    0    0 -0.33136398761E+02 -0.16071812517E+02 -0.30728992553E+01  0.36956282149E+02  0.00000000000E+00 0. -1.
</event>
<event>
 7    1  0.2972263E-013  0.7246157E+02  0.7816164E-02  0.1226708E+00
        -11   -1    0    0    0    0  0.00000000000E+00  0.00000000000E+00  0.45593999997E+02  0.45594000000E+02  0.51100000000E-03 0.  1.
         11   -1    0    0    0    0 -0.00000000000E+00 -0.00000000000E+00 -0.45593999997E+02  0.45594000000E+02  0.51100000000E-03 0. -1.
    9900012    2    1    2    0    0 -0.11907502413E+02 -0.83120371705E+01  0.11823736395E+02  0.72461566331E+02  0.69999994837E+02 0.  0.
         12    1    1    2    0    0  0.11907502413E+02  0.83120371705E+01 -0.11823736395E+02  0.18726433669E+02  0.00000000000E+00 0. -1.
         11    1    3    3    0    0 -0.56161185983E+01 -0.12272123835E+02  0.62933264203E+01  0.14891332017E+02  0.51100000000E-03 0. -1.
        -11    1    3    3    0    0  0.12553874851E+02 -0.54083780307E+01  0.25260970122E+02  0.28722237699E+02  0.51100000000E-03 0.  1.
        -12    1    3    3    0    0 -0.18845258666E+02  0.93684646956E+01 -0.19730560147E+02  0.28847996615E+02  0.00000000000E+00 0.  1.
</event>
<event>
 7    1  0.2972263E-013  0.7246156E+02  0.7816164E-02  0.1226708E+00
        -11   -1    0    0    0    0  0.00000000000E+00  0.00000000000E+00  0.45593999997E+02  0.45594000000E+02  0.51100000000E-03 0. -1.
         11   -1    0    0    0    0 -0.00000000000E+00 -0.00000000000E+00 -0.45593999997E+02  0.45594000000E+02  0.51100000000E-03 0.  1.
    9900012    2    1    2    0    0  0.17649098160E+02  0.39327162856E+01 -0.48705895222E+01  0.72461559720E+02  0.69999986225E+02 0.  0.
         12    1    1    2    0    0 -0.17649098160E+02 -0.39327162856E+01  0.48705895222E+01  0.18726440280E+02  0.00000000000E+00 0. -1.
         11    1    3    3    0    0  0.36669728197E+01  0.20175356697E+02  0.14931978282E+02  0.25366428270E+02  0.51100000000E-03 0. -1.
        -11    1    3    3    0    0  0.84395844293E+01  0.11485996305E+02 -0.45219798446E+01  0.14953360774E+02  0.51100000000E-03 0.  1.
        -12    1    3    3    0    0  0.55425409112E+01 -0.27728636716E+02 -0.15280587959E+02  0.32141770677E+02  0.00000000000E+00 0.  1.
</event>
<event>
 7    1  0.2972263E-013  0.7246159E+02  0.7816164E-02  0.1226708E+00
        -11   -1    0    0    0    0  0.00000000000E+00  0.00000000000E+00  0.45593999997E+02  0.45594000000E+02  0.51100000000E-03 0.  1.
         11   -1    0    0    0    0 -0.00000000000E+00 -0.00000000000E+00 -0.45593999997E+02  0.45594000000E+02  0.51100000000E-03 0. -1.
    9900012    2    1    2    0    0 -0.10616171915E+02  0.67391817881E+01  0.13876555398E+02  0.72461589051E+02  0.70000024435E+02 0.  0.
         12    1    1    2    0    0  0.10616171915E+02 -0.67391817881E+01 -0.13876555398E+02  0.18726410949E+02  0.00000000000E+00 0. -1.
         11    1    3    3    0    0  0.16083542382E+02 -0.85339003742E+01 -0.44440993640E+01  0.18741873187E+02  0.51100000000E-03 0. -1.
        -11    1    3    3    0    0  0.40870643285E+01 -0.78302064142E+01  0.11705408320E+02  0.14663997119E+02  0.51100000000E-03 0.  1.
        -12    1    3    3    0    0 -0.30786778626E+02  0.23103288576E+02  0.66152464416E+01  0.39055718745E+02  0.00000000000E+00 0.  1.
</event>
<event>
 7    1  0.2972263E-013  0.7246152E+02  0.7816164E-02  0.1226708E+00
        -11   -1    0    0    0    0  0.00000000000E+00  0.00000000000E+00  0.45593999997E+02  0.45594000000E+02  0.51100000000E-03 0.  1.
         11   -1    0    0    0    0 -0.00000000000E+00 -0.00000000000E+00 -0.45593999997E+02  0.45594000000E+02  0.51100000000E-03 0. -1.
    9900012    2    1    2    0    0 -0.61161513438E+00 -0.15822356987E+02  0.99980056027E+01  0.72461516888E+02  0.69999930429E+02 0.  0.
         12    1    1    2    0    0  0.61161513438E+00  0.15822356987E+02 -0.99980056027E+01  0.18726483112E+02  0.00000000000E+00 0. -1.
         11    1    3    3    0    0 -0.83869285772E+01 -0.33568815845E+02 -0.42716259508E+01  0.34863344027E+02  0.51100000000E-03 0. -1.
        -11    1    3    3    0    0  0.10269659360E+02  0.55737454498E+01 -0.65181717751E+01  0.13379802138E+02  0.51100000000E-03 0.  1.
        -12    1    3    3    0    0 -0.24943459171E+01  0.12172713408E+02  0.20787803329E+02  0.24218370723E+02  0.00000000000E+00 0.  1.
</event>
<event>
 7    1  0.2972263E-013  0.7246158E+02  0.7816164E-02  0.1226708E+00
        -11   -1    0    0    0    0  0.00000000000E+00  0.00000000000E+00  0.45593999997E+02  0.45594000000E+02  0.51100000000E-03 0.  1.
         11   -1    0    0    0    0 -0.00000000000E+00 -0.00000000000E+00 -0.45593999997E+02  0.45594000000E+02  0.51100000000E-03 0. -1.
    9900012    2    1    2    0    0 -0.31378724625E+01 -0.18457284911E+02  0.40146741613E+00  0.72461580536E+02  0.70000013341E+02 0.  0.
         12    1    1    2    0    0  0.31378724625E+01  0.18457284911E+02 -0.40146741613E+00  0.18726419464E+02  0.00000000000E+00 0. -1.
         11    1    3    3    0    0 -0.97953419490E+00 -0.18484149113E+02 -0.22304953458E+02  0.28985068651E+02  0.51100000000E-03 0. -1.
        -11    1    3    3    0    0  0.62674160649E+01 -0.12196927297E+02 -0.27699273012E+01  0.13989926273E+02  0.51100000000E-03 0.  1.
        -12    1    3    3    0    0 -0.84257543325E+01  0.12223791499E+02  0.25476348175E+02  0.29486585612E+02  0.00000000000E+00 0.  1.
</event>
<event>
 7    1  0.2972263E-013  0.7246159E+02  0.7816164E-02  0.1226708E+00
        -11   -1    0    0    0    0  0.00000000000E+00  0.00000000000E+00  0.45593999997E+02  0.45594000000E+02  0.51100000000E-03 0. -1.
         11   -1    0    0    0    0 -0.00000000000E+00 -0.00000000000E+00 -0.45593999997E+02  0.45594000000E+02  0.51100000000E-03 0.  1.
    9900012    2    1    2    0    0  0.74434029458E+01 -0.12816833493E+02 -0.11445652189E+02  0.72461590247E+02  0.70000025993E+02 0.  0.
         12    1    1    2    0    0 -0.74434029458E+01  0.12816833493E+02  0.11445652189E+02  0.18726409753E+02  0.00000000000E+00 0. -1.
         11    1    3    3    0    0 -0.32021755018E+01 -0.27017620938E+02 -0.13104939757E+02  0.30198430677E+02  0.51100000000E-03 0. -1.
        -11    1    3    3    0    0  0.97323979196E+01 -0.12261599466E+02 -0.77208243277E+00  0.15673624414E+02  0.51100000000E-03 0.  1.
        -12    1    3    3    0    0  0.91318052807E+00  0.26462386911E+02  0.24313700005E+01  0.26589535156E+02  0.00000000000E+00 0.  1.
</event>
<event>
 7    1  0.2972263E-013  0.7246164E+02  0.7816164E-02  0.1226708E+00
        -11   -1    0    0    0    0  0.00000000000E+00  0.00000000000E+00  0.45593999997E+02  0.45594000000E+02  0.51100000000E-03 0. -1.
         11   -1    0    0    0    0 -0.00000000000E+00 -0.00000000000E+00 -0.45593999997E+02  0.45594000000E+02  0.51100000000E-03 0.  1.
    9900012    2    1    2    0    0  0.80980732602E+01  0.59884390711E+01 -0.15787218044E+02  0.72461642997E+02  0.70000094708E+02 0.  0.
         12    1    1    2    0    0 -0.80980732602E+01 -0.59884390711E+01  0.15787218044E+02  0.18726357003E+02  0.00000000000E+00 0. -1.
         11    1    3    3    0    0  0.51400369345E+01 -0.94332793983E+00 -0.87508239534E+00  0.52986429159E+01  0.51100000000E-03 0. -1.
        -11    1    3    3    0    0  0.32790907768E+02  0.12103767630E+02 -0.50316804050E+01  0.35313773957E+02  0.51100000000E-03 0.  1.
         12    1    3    3    0    0 -0.29832871442E+02 -0.51720006194E+01 -0.98804552439E+01  0.31849226124E+02  0.00000000000E+00 0. -1.
</event>
<event>
 7    1  0.2972263E-013  0.7246163E+02  0.7816164E-02  0.1226708E+00
        -11   -1    0    0    0    0  0.00000000000E+00  0.00000000000E+00  0.45593999997E+02  0.45594000000E+02  0.51100000000E-03 0. -1.
         11   -1    0    0    0    0 -0.00000000000E+00 -0.00000000000E+00 -0.45593999997E+02  0.45594000000E+02  0.51100000000E-03 0.  1.
    9900012    2    1    2    0    0 -0.39482066245E+01 -0.71184346273E+01 -0.16864654108E+02  0.72461628080E+02  0.70000075276E+02 0.  0.
         12    1    1    2    0    0  0.39482066245E+01  0.71184346273E+01  0.16864654108E+02  0.18726371920E+02  0.00000000000E+00 0. -1.
         11    1    3    3    0    0  0.27317306567E+02 -0.98883048520E+01 -0.12369160629E+02  0.31575464302E+02  0.51100000000E-03 0. -1.
        -11    1    3    3    0    0 -0.15526685444E+01 -0.40998720685E+01 -0.90455377348E+01  0.10051939303E+02  0.51100000000E-03 0.  1.
        -12    1    3    3    0    0 -0.29712844648E+02  0.68697422932E+01  0.45500442555E+01  0.30834224475E+02  0.00000000000E+00 0.  1.
</event>
<event>
 7    1  0.2972263E-013  0.7246168E+02  0.7816164E-02  0.1226708E+00
        -11   -1    0    0    0    0  0.00000000000E+00  0.00000000000E+00  0.45593999997E+02  0.45594000000E+02  0.51100000000E-03 0.  1.
         11   -1    0    0    0    0 -0.00000000000E+00 -0.00000000000E+00 -0.45593999997E+02  0.45594000000E+02  0.51100000000E-03 0. -1.
    9900012    2    1    2    0    0  0.12592921620E+02 -0.12523693712E+02  0.59372148090E+01  0.72461678984E+02  0.70000141588E+02 0.  0.
         12    1    1    2    0    0 -0.12592921620E+02  0.12523693712E+02 -0.59372148090E+01  0.18726321016E+02  0.00000000000E+00 0. -1.
         11    1    3    3    0    0  0.50587206764E+01 -0.16299158146E+02 -0.22723826875E+01  0.17216763183E+02  0.51100000000E-03 0. -1.
        -11    1    3    3    0    0  0.37572694866E+01 -0.57694976183E+01  0.30200926013E+02  0.30975798764E+02  0.51100000000E-03 0.  1.
         12    1    3    3    0    0  0.37769314567E+01  0.95449620531E+01 -0.21991328517E+02  0.24269117037E+02  0.00000000000E+00 0. -1.
</event>
<event>
 7    1  0.2972263E-013  0.7246158E+02  0.7816164E-02  0.1226708E+00
        -11   -1    0    0    0    0  0.00000000000E+00  0.00000000000E+00  0.45593999997E+02  0.45594000000E+02  0.51100000000E-03 0. -1.
         11   -1    0    0    0    0 -0.00000000000E+00 -0.00000000000E+00 -0.45593999997E+02  0.45594000000E+02  0.51100000000E-03 0.  1.
    9900012    2    1    2    0    0 -0.86478468789E+01  0.16465624174E+02  0.21856215243E+01  0.72461575448E+02  0.70000006713E+02 0.  0.
         12    1    1    2    0    0  0.86478468789E+01 -0.16465624174E+02 -0.21856215243E+01  0.18726424552E+02  0.00000000000E+00 0. -1.
         11    1    3    3    0    0 -0.15428862366E+01  0.83463721971E+01 -0.53946412082E+00  0.85049073240E+01  0.51100000000E-03 0.  1.
        -11    1    3    3    0    0  0.41124428055E+01 -0.26808202044E+02 -0.53922271295E+00  0.27127156947E+02  0.51100000000E-03 0. -1.
         12    1    3    3    0    0 -0.11217403448E+02  0.34927454020E+02  0.32643083581E+01  0.36829511176E+02  0.00000000000E+00 0. -1.
</event>
<event>
 7    1  0.2972263E-013  0.7246154E+02  0.7816164E-02  0.1226708E+00
        -11   -1    0    0    0    0  0.00000000000E+00  0.00000000000E+00  0.45593999997E+02  0.45594000000E+02  0.51100000000E-03 0.  1.
         11   -1    0    0    0    0 -0.00000000000E+00 -0.00000000000E+00 -0.45593999997E+02  0.45594000000E+02  0.51100000000E-03 0. -1.
    9900012    2    1    2    0    0 -0.66131021247E+01  0.84490506368E+00  0.17499525916E+02  0.72461537665E+02  0.69999957495E+02 0.  0.
         12    1    1    2    0    0  0.66131021247E+01 -0.84490506368E+00 -0.17499525916E+02  0.18726462335E+02  0.00000000000E+00 0. -1.
         11    1    3    3    0    0 -0.22438364122E+02 -0.13303128093E+02 -0.10015651201E+02  0.27942202325E+02  0.51100000000E-03 0. -1.
        -11    1    3    3    0    0 -0.49842721437E+01 -0.45617663718E+01  0.76193956486E+01  0.10183706179E+02  0.51100000000E-03 0.  1.
        -12    1    3    3    0    0  0.20809534141E+02  0.18709799529E+02  0.19895781469E+02  0.34335629161E+02  0.00000000000E+00 0.  1.
</event>
<event>
 7    1  0.2972263E-013  0.7246163E+02  0.7816164E-02  0.1226708E+00
        -11   -1    0    0    0    0  0.00000000000E+00  0.00000000000E+00  0.45593999997E+02  0.45594000000E+02  0.51100000000E-03 0.  1.
         11   -1    0    0    0    0 -0.00000000000E+00 -0.00000000000E+00 -0.45593999997E+02  0.45594000000E+02  0.51100000000E-03 0. -1.
    9900012    2    1    2    0    0  0.11492838642E+02  0.12822629426E+02  0.73601359697E+01  0.72461634443E+02  0.70000083566E+02 0.  0.
         12    1    1    2    0    0 -0.11492838642E+02 -0.12822629426E+02 -0.73601359697E+01  0.18726365557E+02  0.00000000000E+00 0. -1.
         11    1    3    3    0    0  0.19475170994E+02  0.75943569098E+01 -0.13055449619E+02  0.24645512920E+02  0.51100000000E-03 0. -1.
        -11    1    3    3    0    0 -0.34900732292E-01  0.20137890893E+02 -0.14423925052E+01  0.20189511239E+02  0.51100000000E-03 0.  1.
         12    1    3    3    0    0 -0.79474316190E+01 -0.14909618376E+02  0.21857978094E+02  0.27626610284E+02  0.00000000000E+00 0. -1.
</event>
<event>
 7    1  0.2972263E-013  0.7246154E+02  0.7816164E-02  0.1226708E+00
        -11   -1    0    0    0    0  0.00000000000E+00  0.00000000000E+00  0.45593999997E+02  0.45594000000E+02  0.51100000000E-03 0.  1.
         11   -1    0    0    0    0 -0.00000000000E+00 -0.00000000000E+00 -0.45593999997E+02  0.45594000000E+02  0.51100000000E-03 0. -1.
    9900012    2    1    2    0    0  0.40244071486E+01 -0.14650986798E+02  0.10946830750E+02  0.72461538227E+02  0.69999958227E+02 0.  0.
         12    1    1    2    0    0 -0.40244071486E+01  0.14650986798E+02 -0.10946830750E+02  0.18726461773E+02  0.00000000000E+00 0. -1.
         11    1    3    3    0    0 -0.57927496000E+01 -0.14101574917E+01 -0.23803970520E+02  0.24539223803E+02  0.51100000000E-03 0. -1.
        -11    1    3    3    0    0  0.10747616561E+02 -0.32183867722E+01 -0.53208163050E+00  0.11231757934E+02  0.51100000000E-03 0.  1.
        -12    1    3    3    0    0 -0.93045981282E+00 -0.10022442534E+02  0.35282882900E+02  0.36690556490E+02  0.00000000000E+00 0.  1.
</event>
<event>
 7    1  0.2972263E-013  0.7246159E+02  0.7816164E-02  0.1226708E+00
        -11   -1    0    0    0    0  0.00000000000E+00  0.00000000000E+00  0.45593999997E+02  0.45594000000E+02  0.51100000000E-03 0. -1.
         11   -1    0    0    0    0 -0.00000000000E+00 -0.00000000000E+00 -0.45593999997E+02  0.45594000000E+02  0.51100000000E-03 0.  1.
    9900012    2    1    2    0    0 -0.18584601963E+02 -0.17840656942E+01 -0.14519600421E+01  0.72461587944E+02  0.70000022992E+02 0.  0.
         12    1    1    2    0    0  0.18584601963E+02  0.17840656942E+01  0.14519600421E+01  0.18726412056E+02  0.00000000000E+00 0. -1.
         11    1    3    3    0    0 -0.10667478641E+02  0.20112808233E+02  0.17972279657E+02  0.29005568291E+02  0.51100000000E-03 0. -1.
        -11    1    3    3    0    0  0.11811113454E+02 -0.48428995136E+01 -0.55848046650E+01  0.13933632696E+02  0.51100000000E-03 0.  1.
        -12    1    3    3    0    0 -0.19728236776E+02 -0.17053974413E+02 -0.13839435034E+02  0.29522386957E+02  0.00000000000E+00 0.  1.
</event>
<event>
 7    1  0.2972263E-013  0.7246148E+02  0.7816164E-02  0.1226708E+00
        -11   -1    0    0    0    0  0.00000000000E+00  0.00000000000E+00  0.45593999997E+02  0.45594000000E+02  0.51100000000E-03 0.  1.
         11   -1    0    0    0    0 -0.00000000000E+00 -0.00000000000E+00 -0.45593999997E+02  0.45594000000E+02  0.51100000000E-03 0. -1.
    9900012    2    1    2    0    0  0.13361000764E+02 -0.11383429132E+02  0.65256130454E+01  0.72461483350E+02  0.69999886739E+02 0.  0.
         12    1    1    2    0    0 -0.13361000764E+02  0.11383429132E+02 -0.65256130454E+01  0.18726516650E+02  0.00000000000E+00 0. -1.
         11    1    3    3    0    0 -0.18905548068E+02 -0.12275238878E+02  0.14228834364E+02  0.26656349429E+02  0.51100000000E-03 0. -1.
        -11    1    3    3    0    0  0.42195936963E+01 -0.14574361713E+01  0.11095074451E+02  0.11959505361E+02  0.51100000000E-03 0.  1.
        -12    1    3    3    0    0  0.28046955136E+02  0.23492459176E+01 -0.18798295769E+02  0.33845628560E+02  0.00000000000E+00 0.  1.
</event>
<event>
 7    1  0.2972263E-013  0.7246150E+02  0.7816164E-02  0.1226708E+00
        -11   -1    0    0    0    0  0.00000000000E+00  0.00000000000E+00  0.45593999997E+02  0.45594000000E+02  0.51100000000E-03 0.  1.
         11   -1    0    0    0    0 -0.00000000000E+00 -0.00000000000E+00 -0.45593999997E+02  0.45594000000E+02  0.51100000000E-03 0. -1.
    9900012    2    1    2    0    0 -0.17397689108E+01  0.80734832290E+01  0.16806958062E+02  0.72461500952E+02  0.69999909669E+02 0.  0.
         12    1    1    2    0    0  0.17397689108E+01 -0.80734832290E+01 -0.16806958062E+02  0.18726499048E+02  0.00000000000E+00 0. -1.
         11    1    3    3    0    0  0.14859276612E+02  0.62413599293E+01  0.16654765626E+02  0.23176149238E+02  0.51100000000E-03 0. -1.
        -11    1    3    3    0    0  0.27422051101E+01 -0.16917900958E+01  0.20640460328E+02  0.20890439090E+02  0.51100000000E-03 0.  1.
         12    1    3    3    0    0 -0.19341250633E+02  0.35239133956E+01 -0.20488267892E+02  0.28394912623E+02  0.00000000000E+00 0. -1.
</event>
<event>
 7    1  0.2972263E-013  0.7246152E+02  0.7816164E-02  0.1226708E+00
        -11   -1    0    0    0    0  0.00000000000E+00  0.00000000000E+00  0.45593999997E+02  0.45594000000E+02  0.51100000000E-03 0. -1.
         11   -1    0    0    0    0 -0.00000000000E+00 -0.00000000000E+00 -0.45593999997E+02  0.45594000000E+02  0.51100000000E-03 0.  1.
    9900012    2    1    2    0    0  0.39181513031E+01  0.18309653258E+02  0.29250749584E+00  0.72461524819E+02  0.69999940760E+02 0.  0.
         12    1    1    2    0    0 -0.39181513031E+01 -0.18309653258E+02 -0.29250749584E+00  0.18726475181E+02  0.00000000000E+00 0. -1.
         11    1    3    3    0    0  0.91920227631E+01  0.23927686532E+02  0.12202406716E+02  0.28388839271E+02  0.51100000000E-03 0.  1.
        -11    1    3    3    0    0  0.16823187445E+02 -0.50626407942E+01 -0.13133394142E+02  0.21934812731E+02  0.51100000000E-03 0. -1.
         12    1    3    3    0    0 -0.22097058905E+02 -0.55539247970E+00  0.12234949222E+01  0.22137872817E+02  0.00000000000E+00 0. -1.
</event>
<event>
 7    1  0.2972263E-013  0.7246156E+02  0.7816164E-02  0.1226708E+00
        -11   -1    0    0    0    0  0.00000000000E+00  0.00000000000E+00  0.45593999997E+02  0.45594000000E+02  0.51100000000E-03 0. -1.
         11   -1    0    0    0    0 -0.00000000000E+00 -0.00000000000E+00 -0.45593999997E+02  0.45594000000E+02  0.51100000000E-03 0.  1.
    9900012    2    1    2    0    0 -0.56822103712E+01  0.13997319219E+02  0.11066479540E+02  0.72461563355E+02  0.69999990960E+02 0.  0.
         12    1    1    2    0    0  0.56822103712E+01 -0.13997319219E+02 -0.11066479540E+02  0.18726436645E+02  0.00000000000E+00 0. -1.
         11    1    3    3    0    0  0.26164399026E+01  0.22122613060E+01  0.34398143429E+02  0.34568368915E+02  0.51100000000E-03 0. -1.
        -11    1    3    3    0    0 -0.13323057115E+02  0.96281650427E+00 -0.20767567662E+01  0.13518275979E+02  0.51100000000E-03 0.  1.
        -12    1    3    3    0    0  0.50244068412E+01  0.10822241408E+02 -0.21254907122E+02  0.24374918461E+02  0.00000000000E+00 0.  1.
</event>
<event>
 7    1  0.2972263E-013  0.7246161E+02  0.7816164E-02  0.1226708E+00
        -11   -1    0    0    0    0  0.00000000000E+00  0.00000000000E+00  0.45593999997E+02  0.45594000000E+02  0.51100000000E-03 0.  1.
         11   -1    0    0    0    0 -0.00000000000E+00 -0.00000000000E+00 -0.45593999997E+02  0.45594000000E+02  0.51100000000E-03 0. -1.
    9900012    2    1    2    0    0 -0.13340047125E+02 -0.12818659200E+02  0.28987641630E+01  0.72461609139E+02  0.70000050603E+02 0.  0.
         12    1    1    2    0    0  0.13340047125E+02  0.12818659200E+02 -0.28987641630E+01  0.18726390861E+02  0.00000000000E+00 0. -1.
         11    1    3    3    0    0  0.18082065346E+02  0.99525061547E+01 -0.17090183231E+02  0.26797160840E+02  0.51100000000E-03 0. -1.
        -11    1    3    3    0    0 -0.36563563847E+01 -0.25337335600E+01  0.82198526620E+01  0.93463750091E+01  0.51100000000E-03 0.  1.
        -12    1    3    3    0    0 -0.27765756087E+02 -0.20237431795E+02  0.11769094732E+02  0.36318073290E+02  0.00000000000E+00 0.  1.
</event>
<event>
 7    1  0.2972263E-013  0.7246151E+02  0.7816164E-02  0.1226708E+00
        -11   -1    0    0    0    0  0.00000000000E+00  0.00000000000E+00  0.45593999997E+02  0.45594000000E+02  0.51100000000E-03 0.  1.
         11   -1    0    0    0    0 -0.00000000000E+00 -0.00000000000E+00 -0.45593999997E+02  0.45594000000E+02  0.51100000000E-03 0. -1.
    9900012    2    1    2    0    0 -0.12586416728E+02  0.16432934122E+01  0.13768193862E+02  0.72461509098E+02  0.69999920281E+02 0.  0.
         12    1    1    2    0    0  0.12586416728E+02 -0.16432934122E+01 -0.13768193862E+02  0.18726490902E+02  0.00000000000E+00 0. -1.
         11    1    3    3    0    0 -0.56380007096E+00  0.81777762132E+01 -0.80482301153E+00  0.82366033445E+01  0.51100000000E-03 0. -1.
        -11    1    3    3    0    0 -0.32300243502E+02  0.11033833030E+02  0.97655515817E+00  0.34146813348E+02  0.51100000000E-03 0.  1.
         12    1    3    3    0    0  0.20277626845E+02 -0.17568315831E+02  0.13596461715E+02  0.30078092406E+02  0.00000000000E+00 0. -1.
</event>
<event>
 7    1  0.2972263E-013  0.7246158E+02  0.7816164E-02  0.1226708E+00
        -11   -1    0    0    0    0  0.00000000000E+00  0.00000000000E+00  0.45593999997E+02  0.45594000000E+02  0.51100000000E-03 0. -1.
         11   -1    0    0    0    0 -0.00000000000E+00 -0.00000000000E+00 -0.45593999997E+02  0.45594000000E+02  0.51100000000E-03 0.  1.
    9900012    2    1    2    0    0 -0.13191100165E+02 -0.30283703344E+01 -0.12942281750E+02  0.72461579964E+02  0.70000012597E+02 0.  0.
         12    1    1    2    0    0  0.13191100165E+02  0.30283703344E+01  0.12942281750E+02  0.18726420036E+02  0.00000000000E+00 0. -1.
         11    1    3    3    0    0  0.63271137682E+00 -0.11845926109E+02 -0.36983613974E+01  0.12425947302E+02  0.51100000000E-03 0. -1.
        -11    1    3    3    0    0 -0.20200921178E+02 -0.20754795971E+02 -0.63052744860E+01  0.29641107585E+02  0.51100000000E-03 0.  1.
         12    1    3    3    0    0  0.63771096365E+01  0.29572351746E+02 -0.29386458670E+01  0.30394525077E+02  0.00000000000E+00 0. -1.
</event>
<event>
 7    1  0.2972263E-013  0.7246160E+02  0.7816164E-02  0.1226708E+00
        -11   -1    0    0    0    0  0.00000000000E+00  0.00000000000E+00  0.45593999997E+02  0.45594000000E+02  0.51100000000E-03 0. -1.
         11   -1    0    0    0    0 -0.00000000000E+00 -0.00000000000E+00 -0.45593999997E+02  0.45594000000E+02  0.51100000000E-03 0.  1.
    9900012    2    1    2    0    0  0.12737947554E+02  0.82400574712E+01 -0.10978344407E+02  0.72461604166E+02  0.70000044124E+02 0.  0.
         12    1    1    2    0    0 -0.12737947554E+02 -0.82400574712E+01  0.10978344407E+02  0.18726395834E+02  0.00000000000E+00 0. -1.
         11    1    3    3    0    0  0.25743585456E+02  0.69559772954E+01 -0.14847186078E+02  0.30521414564E+02  0.51100000000E-03 0. -1.
        -11    1    3    3    0    0  0.32107067737E+01  0.13078711783E+02 -0.10662018043E+02  0.17176727537E+02  0.51100000000E-03 0.  1.
         12    1    3    3    0    0 -0.16216344676E+02 -0.11794631607E+02  0.14530859715E+02  0.24763462065E+02  0.00000000000E+00 0. -1.
</event>
<event>
 7    1  0.2972263E-013  0.7246159E+02  0.7816164E-02  0.1226708E+00
        -11   -1    0    0    0    0  0.00000000000E+00  0.00000000000E+00  0.45593999997E+02  0.45594000000E+02  0.51100000000E-03 0.  1.
         11   -1    0    0    0    0 -0.00000000000E+00 -0.00000000000E+00 -0.45593999997E+02  0.45594000000E+02  0.51100000000E-03 0. -1.
    9900012    2    1    2    0    0  0.11008146240E+02 -0.13325277548E+02 -0.72066664872E+01  0.72461592249E+02  0.70000028601E+02 0.  0.
         12    1    1    2    0    0 -0.11008146240E+02  0.13325277548E+02  0.72066664872E+01  0.18726407751E+02  0.00000000000E+00 0. -1.
         11    1    3    3    0    0 -0.20602467167E+01  0.97006228264E+01  0.33973538348E+01  0.10482781744E+02  0.51100000000E-03 0. -1.
        -11    1    3    3    0    0 -0.39836778937E+01 -0.27125692364E+02  0.14763561129E+02  0.31138972579E+02  0.51100000000E-03 0.  1.
         12    1    3    3    0    0  0.17052070850E+02  0.40997919893E+01 -0.25367581451E+02  0.30839837927E+02  0.00000000000E+00 0. -1.
</event>
<event>
 7    1  0.2972263E-013  0.7246158E+02  0.7816164E-02  0.1226708E+00
        -11   -1    0    0    0    0  0.00000000000E+00  0.00000000000E+00  0.45593999997E+02  0.45594000000E+02  0.51100000000E-03 0. -1.
         11   -1    0    0    0    0 -0.00000000000E+00 -0.00000000000E+00 -0.45593999997E+02  0.45594000000E+02  0.51100000000E-03 0.  1.
    9900012    2    1    2    0    0  0.71351580327E+01  0.16994754035E+02 -0.33085607602E+01  0.72461582319E+02  0.70000015664E+02 0.  0.
         12    1    1    2    0    0 -0.71351580327E+01 -0.16994754035E+02  0.33085607602E+01  0.18726417681E+02  0.00000000000E+00 0. -1.
         11    1    3    3    0    0  0.10504166306E+02 -0.63678898169E+01 -0.32787631374E+01  0.12713686266E+02  0.51100000000E-03 0. -1.
        -11    1    3    3    0    0  0.59500164267E+01 -0.17131518249E+02  0.12211558163E+01  0.18176436251E+02  0.51100000000E-03 0.  1.
         12    1    3    3    0    0 -0.93190246997E+01  0.40494162101E+02 -0.12509534391E+01  0.41571459802E+02  0.00000000000E+00 0. -1.
</event>
<event>
 7    1  0.2972263E-013  0.7246123E+02  0.7816164E-02  0.1226709E+00
        -11   -1    0    0    0    0  0.00000000000E+00  0.00000000000E+00  0.45593999997E+02  0.45594000000E+02  0.51100000000E-03 0.  1.
         11   -1    0    0    0    0 -0.00000000000E+00 -0.00000000000E+00 -0.45593999997E+02  0.45594000000E+02  0.51100000000E-03 0. -1.
    9900012    2    1    2    0    0  0.96202652275E+01 -0.80686471958E+01 -0.13893854354E+02  0.72461234144E+02  0.69999562100E+02 0.  0.
         12    1    1    2    0    0 -0.96202652275E+01  0.80686471958E+01  0.13893854354E+02  0.18726765856E+02  0.00000000000E+00 0. -1.
         11    1    3    3    0    0  0.26174006030E+02  0.61588345198E+01 -0.28947911323E+02  0.39509383752E+02  0.51100000000E-03 0. -1.
        -11    1    3    3    0    0 -0.58266066059E+01 -0.14404130964E+02  0.14199022800E+01  0.15602706692E+02  0.51100000000E-03 0.  1.
        -12    1    3    3    0    0 -0.10727134196E+02  0.17664924891E+00  0.13634154689E+02  0.17349143699E+02  0.00000000000E+00 0.  1.
</event>
<event>
 7    1  0.2972263E-013  0.7246157E+02  0.7816164E-02  0.1226708E+00
        -11   -1    0    0    0    0  0.00000000000E+00  0.00000000000E+00  0.45593999997E+02  0.45594000000E+02  0.51100000000E-03 0. -1.
         11   -1    0    0    0    0 -0.00000000000E+00 -0.00000000000E+00 -0.45593999997E+02  0.45594000000E+02  0.51100000000E-03 0.  1.
    9900012    2    1    2    0    0 -0.66715470562E+01 -0.13966617678E+02 -0.10540552089E+02  0.72461569806E+02  0.69999999363E+02 0.  0.
         12    1    1    2    0    0  0.66715470562E+01  0.13966617678E+02  0.10540552089E+02  0.18726430194E+02  0.00000000000E+00 0. -1.
         11    1    3    3    0    0  0.44196512176E+01 -0.62724076223E+01  0.19754150798E+02  0.21192047761E+02  0.51100000000E-03 0. -1.
        -11    1    3    3    0    0  0.78592764890E+00  0.11149674539E+02  0.26633186033E+01  0.11490265046E+02  0.51100000000E-03 0.  1.
        -12    1    3    3    0    0 -0.11877125923E+02 -0.18843884594E+02 -0.32958021491E+02  0.39779256999E+02  0.00000000000E+00 0.  1.
</event>
<event>
 7    1  0.2972263E-013  0.7246160E+02  0.7816164E-02  0.1226708E+00
        -11   -1    0    0    0    0  0.00000000000E+00  0.00000000000E+00  0.45593999997E+02  0.45594000000E+02  0.51100000000E-03 0.  1.
         11   -1    0    0    0    0 -0.00000000000E+00 -0.00000000000E+00 -0.45593999997E+02  0.45594000000E+02  0.51100000000E-03 0. -1.
    9900012    2    1    2    0    0  0.40654184319E+01 -0.81666240511E+01  0.16354106767E+02  0.72461596620E+02  0.70000034294E+02 0.  0.
         12    1    1    2    0    0 -0.40654184319E+01  0.81666240511E+01 -0.16354106767E+02  0.18726403380E+02  0.00000000000E+00 0. -1.
         11    1    3    3    0    0 -0.15229470832E+02 -0.18292471901E+02 -0.11192087242E+02  0.26302359726E+02  0.51100000000E-03 0.  1.
        -11    1    3    3    0    0  0.21118391232E+02 -0.35123454189E+01  0.93874048189E+01  0.23376192762E+02  0.51100000000E-03 0. -1.
        -12    1    3    3    0    0 -0.18235019680E+01  0.13638193269E+02  0.18158789189E+02  0.22783044132E+02  0.00000000000E+00 0.  1.
</event>
<event>
 7    1  0.2972263E-013  0.7246156E+02  0.7816164E-02  0.1226708E+00
        -11   -1    0    0    0    0  0.00000000000E+00  0.00000000000E+00  0.45593999997E+02  0.45594000000E+02  0.51100000000E-03 0.  1.
         11   -1    0    0    0    0 -0.00000000000E+00 -0.00000000000E+00 -0.45593999997E+02  0.45594000000E+02  0.51100000000E-03 0. -1.
    9900012    2    1    2    0    0 -0.15212597696E+02 -0.82426173905E+01  0.71634916069E+01  0.72461561948E+02  0.69999989128E+02 0.  0.
         12    1    1    2    0    0  0.15212597696E+02  0.82426173905E+01 -0.71634916069E+01  0.18726438052E+02  0.00000000000E+00 0. -1.
         11    1    3    3    0    0  0.11139704317E+02 -0.48812877655E+00  0.69534000601E+00  0.11172053524E+02  0.51100000000E-03 0. -1.
        -11    1    3    3    0    0 -0.15415900247E+02  0.19376797310E+02  0.17179979546E+02  0.30137384622E+02  0.51100000000E-03 0.  1.
         12    1    3    3    0    0 -0.10936401766E+02 -0.27131285924E+02 -0.10711827945E+02  0.31152123802E+02  0.00000000000E+00 0. -1.
</event>
<event>
 7    1  0.2972263E-013  0.7246160E+02  0.7816164E-02  0.1226708E+00
        -11   -1    0    0    0    0  0.00000000000E+00  0.00000000000E+00  0.45593999997E+02  0.45594000000E+02  0.51100000000E-03 0.  1.
         11   -1    0    0    0    0 -0.00000000000E+00 -0.00000000000E+00 -0.45593999997E+02  0.45594000000E+02  0.51100000000E-03 0. -1.
    9900012    2    1    2    0    0 -0.12265017493E+02 -0.10785695667E+02 -0.91605671657E+01  0.72461604834E+02  0.70000044994E+02 0.  0.
         12    1    1    2    0    0  0.12265017493E+02  0.10785695667E+02  0.91605671657E+01  0.18726395166E+02  0.00000000000E+00 0. -1.
         11    1    3    3    0    0  0.39357860779E+01 -0.19599228259E+02 -0.15993462886E+02  0.25600996382E+02  0.51100000000E-03 0. -1.
        -11    1    3    3    0    0 -0.40109937494E+01 -0.16585948804E+02  0.75932139900E+01  0.18677223229E+02  0.51100000000E-03 0.  1.
        -12    1    3    3    0    0 -0.12189809822E+02  0.25399481397E+02 -0.76031826959E+00  0.28183385222E+02  0.00000000000E+00 0.  1.
</event>
<event>
 7    1  0.2972263E-013  0.7246158E+02  0.7816164E-02  0.1226708E+00
        -11   -1    0    0    0    0  0.00000000000E+00  0.00000000000E+00  0.45593999997E+02  0.45594000000E+02  0.51100000000E-03 0. -1.
         11   -1    0    0    0    0 -0.00000000000E+00 -0.00000000000E+00 -0.45593999997E+02  0.45594000000E+02  0.51100000000E-03 0.  1.
    9900012    2    1    2    0    0 -0.12405771053E+02  0.15553000167E+01 -0.13941182347E+02  0.72461583397E+02  0.70000017068E+02 0.  0.
         12    1    1    2    0    0  0.12405771053E+02 -0.15553000167E+01  0.13941182347E+02  0.18726416603E+02  0.00000000000E+00 0. -1.
         11    1    3    3    0    0 -0.85167850799E+01  0.54005184628E+01 -0.72126231925E+01  0.12398514481E+02  0.51100000000E-03 0. -1.
        -11    1    3    3    0    0  0.95941577586E+01  0.25505093334E+02 -0.50986664012E+01  0.27722807369E+02  0.51100000000E-03 0.  1.
         12    1    3    3    0    0 -0.13483143732E+02 -0.29350311780E+02 -0.16298927535E+01  0.32340261546E+02  0.00000000000E+00 0. -1.
</event>
<event>
 7    1  0.2972263E-013  0.7246159E+02  0.7816164E-02  0.1226708E+00
        -11   -1    0    0    0    0  0.00000000000E+00  0.00000000000E+00  0.45593999997E+02  0.45594000000E+02  0.51100000000E-03 0.  1.
         11   -1    0    0    0    0 -0.00000000000E+00 -0.00000000000E+00 -0.45593999997E+02  0.45594000000E+02  0.51100000000E-03 0. -1.
    9900012    2    1    2    0    0  0.12780602649E+02  0.11081934620E+02  0.80327605314E+01  0.72461592957E+02  0.70000029522E+02 0.  0.
         12    1    1    2    0    0 -0.12780602649E+02 -0.11081934620E+02 -0.80327605314E+01  0.18726407043E+02  0.00000000000E+00 0. -1.
         11    1    3    3    0    0 -0.19956531191E+02  0.27555776537E+00  0.18323636487E+02  0.27094182468E+02  0.51100000000E-03 0. -1.
        -11    1    3    3    0    0 -0.32496079261E+01  0.66332658244E+01 -0.45826252405E+01  0.86925612754E+01  0.51100000000E-03 0.  1.
        -12    1    3    3    0    0  0.35986741766E+02  0.41731110299E+01 -0.57082507156E+01  0.36674849213E+02  0.00000000000E+00 0.  1.
</event>
<event>
 7    1  0.2972263E-013  0.7246154E+02  0.7816164E-02  0.1226708E+00
        -11   -1    0    0    0    0  0.00000000000E+00  0.00000000000E+00  0.45593999997E+02  0.45594000000E+02  0.51100000000E-03 0.  1.
         11   -1    0    0    0    0 -0.00000000000E+00 -0.00000000000E+00 -0.45593999997E+02  0.45594000000E+02  0.51100000000E-03 0. -1.
    9900012    2    1    2    0    0  0.78931405010E+01 -0.12335989047E+02  0.11670561321E+02  0.72461540263E+02  0.69999960879E+02 0.  0.
         12    1    1    2    0    0 -0.78931405010E+01  0.12335989047E+02 -0.11670561321E+02  0.18726459737E+02  0.00000000000E+00 0. -1.
         11    1    3    3    0    0 -0.81980290377E+01  0.75900870125E+01  0.19652480107E+02  0.22606129160E+02  0.51100000000E-03 0. -1.
        -11    1    3    3    0    0 -0.10806783980E+02 -0.87707752351E+01  0.85852778637E+01  0.16352983657E+02  0.51100000000E-03 0.  1.
        -12    1    3    3    0    0  0.26897953519E+02 -0.11155300824E+02 -0.16567196650E+02  0.33502427447E+02  0.00000000000E+00 0.  1.
</event>
<event>
 7    1  0.2972263E-013  0.7246157E+02  0.7816164E-02  0.1226708E+00
        -11   -1    0    0    0    0  0.00000000000E+00  0.00000000000E+00  0.45593999997E+02  0.45594000000E+02  0.51100000000E-03 0.  1.
         11   -1    0    0    0    0 -0.00000000000E+00 -0.00000000000E+00 -0.45593999997E+02  0.45594000000E+02  0.51100000000E-03 0. -1.
    9900012    2    1    2    0    0  0.76837858976E+01  0.16823161182E+02 -0.29359667290E+01  0.72461568986E+02  0.69999998296E+02 0.  0.
         12    1    1    2    0    0 -0.76837858976E+01 -0.16823161182E+02  0.29359667290E+01  0.18726431014E+02  0.00000000000E+00 0. -1.
         11    1    3    3    0    0 -0.54421045491E+01  0.19922737399E+01 -0.16402998905E+02  0.17396667207E+02  0.51100000000E-03 0. -1.
        -11    1    3    3    0    0  0.42023791797E+00  0.30009153251E+02 -0.18014373186E+01  0.30066111412E+02  0.51100000000E-03 0.  1.
        -12    1    3    3    0    0  0.12705652529E+02 -0.15178265809E+02  0.15268469494E+02  0.24998790368E+02  0.00000000000E+00 0.  1.
</event>
<event>
 7    1  0.2972263E-013  0.7246152E+02  0.7816164E-02  0.1226708E+00
        -11   -1    0    0    0    0  0.00000000000E+00  0.00000000000E+00  0.45593999997E+02  0.45594000000E+02  0.51100000000E-03 0.  1.
         11   -1    0    0    0    0 -0.00000000000E+00 -0.00000000000E+00 -0.45593999997E+02  0.45594000000E+02  0.51100000000E-03 0. -1.
    9900012    2    1    2    0    0 -0.13056766549E+02 -0.55019352635E+01  0.12244617553E+02  0.72461518660E+02  0.69999932737E+02 0.  0.
         12    1    1    2    0    0  0.13056766549E+02  0.55019352635E+01 -0.12244617553E+02  0.18726481340E+02  0.00000000000E+00 0. -1.
         11    1    3    3    0    0 -0.38098359419E+01 -0.17386811962E+01 -0.26863442495E+01  0.49753701263E+01  0.51100000000E-03 0. -1.
        -11    1    3    3    0    0 -0.15795883810E+01  0.17781587979E+01 -0.25678970363E+02  0.25788882630E+02  0.51100000000E-03 0.  1.
        -12    1    3    3    0    0 -0.76673422263E+01 -0.55414128652E+01  0.40609932165E+02  0.41697265903E+02  0.00000000000E+00 0.  1.
</event>
<event>
 7    1  0.2972263E-013  0.7246187E+02  0.7816164E-02  0.1226707E+00
        -11   -1    0    0    0    0  0.00000000000E+00  0.00000000000E+00  0.45593999997E+02  0.45594000000E+02  0.51100000000E-03 0. -1.
         11   -1    0    0    0    0 -0.00000000000E+00 -0.00000000000E+00 -0.45593999997E+02  0.45594000000E+02  0.51100000000E-03 0.  1.
    9900012    2    1    2    0    0  0.57436702805E+01 -0.17487941243E+02  0.34424242554E+01  0.72461865269E+02  0.70000384258E+02 0.  0.
         12    1    1    2    0    0 -0.57436702805E+01  0.17487941243E+02 -0.34424242554E+01  0.18726134731E+02  0.00000000000E+00 0. -1.
         11    1    3    3    0    0  0.16810267926E+01 -0.21059207503E+02 -0.30016393846E+01  0.21338367112E+02  0.51100000000E-03 0. -1.
        -11    1    3    3    0    0  0.17024922355E+02 -0.17754815942E+02 -0.22380202127E+01  0.24700004151E+02  0.51100000000E-03 0.  1.
         12    1    3    3    0    0 -0.12962278867E+02  0.21326082201E+02  0.86820838527E+01  0.26423494006E+02  0.00000000000E+00 0. -1.
</event>
<event>
 7    1  0.2972263E-013  0.7246153E+02  0.7816164E-02  0.1226708E+00
        -11   -1    0    0    0    0  0.00000000000E+00  0.00000000000E+00  0.45593999997E+02  0.45594000000E+02  0.51100000000E-03 0.  1.
         11   -1    0    0    0    0 -0.00000000000E+00 -0.00000000000E+00 -0.45593999997E+02  0.45594000000E+02  0.51100000000E-03 0. -1.
    9900012    2    1    2    0    0  0.31977744284E+01 -0.17410745355E+02  0.61090668581E+01  0.72461534423E+02  0.69999953271E+02 0.  0.
         12    1    1    2    0    0 -0.31977744284E+01  0.17410745355E+02 -0.61090668581E+01  0.18726465577E+02  0.00000000000E+00 0. -1.
         11    1    3    3    0    0  0.85390087467E+01 -0.44580971638E+01 -0.25833174469E+01  0.99731053333E+01  0.51100000000E-03 0. -1.
        -11    1    3    3    0    0  0.85640733264E+01 -0.17444961803E+02  0.30543198341E+02  0.36201616116E+02  0.51100000000E-03 0.  1.
         12    1    3    3    0    0 -0.13905307645E+02  0.44923136113E+01 -0.21850814036E+02  0.26286812974E+02  0.00000000000E+00 0. -1.
</event>
<event>
 7    1  0.2972263E-013  0.7246204E+02  0.7816164E-02  0.1226707E+00
        -11   -1    0    0    0    0  0.00000000000E+00  0.00000000000E+00  0.45593999997E+02  0.45594000000E+02  0.51100000000E-03 0.  1.
         11   -1    0    0    0    0 -0.00000000000E+00 -0.00000000000E+00 -0.45593999997E+02  0.45594000000E+02  0.51100000000E-03 0. -1.
    9900012    2    1    2    0    0 -0.40300696853E+01 -0.97807717865E+01  0.15451747235E+02  0.72462043389E+02  0.70000616291E+02 0.  0.
         12    1    1    2    0    0  0.40300696853E+01  0.97807717865E+01 -0.15451747235E+02  0.18725956611E+02  0.00000000000E+00 0. -1.
         11    1    3    3    0    0  0.12067476659E+02 -0.91320077076E+01 -0.36819138683E+01  0.15574788849E+02  0.51100000000E-03 0. -1.
        -11    1    3    3    0    0 -0.78921938163E+01 -0.23704991088E+02 -0.12817309095E+01  0.25017117342E+02  0.51100000000E-03 0.  1.
        -12    1    3    3    0    0 -0.82053525278E+01  0.23056227009E+02  0.20415392012E+02  0.31870137198E+02  0.00000000000E+00 0.  1.
</event>
<event>
 7    1  0.2972263E-013  0.7246152E+02  0.7816164E-02  0.1226708E+00
        -11   -1    0    0    0    0  0.00000000000E+00  0.00000000000E+00  0.45593999997E+02  0.45594000000E+02  0.51100000000E-03 0. -1.
         11   -1    0    0    0    0 -0.00000000000E+00 -0.00000000000E+00 -0.45593999997E+02  0.45594000000E+02  0.51100000000E-03 0.  1.
    9900012    2    1    2    0    0 -0.12137934830E+02 -0.11551999602E+02 -0.83607968286E+01  0.72461519275E+02  0.69999933538E+02 0.  0.
         12    1    1    2    0    0  0.12137934830E+02  0.11551999602E+02  0.83607968286E+01  0.18726480725E+02  0.00000000000E+00 0. -1.
         11    1    3    3    0    0 -0.40192174022E+01 -0.16059224530E+02  0.82202643680E+01  0.18483115202E+02  0.51100000000E-03 0. -1.
        -11    1    3    3    0    0  0.14871069802E+02 -0.91349592031E+01  0.65362683849E+01  0.18636496488E+02  0.51100000000E-03 0.  1.
         12    1    3    3    0    0 -0.22989787230E+02  0.13642184131E+02 -0.23117329581E+02  0.35341907585E+02  0.00000000000E+00 0. -1.
</event>
<event>
 7    1  0.2972263E-013  0.7246109E+02  0.7816164E-02  0.1226709E+00
        -11   -1    0    0    0    0  0.00000000000E+00  0.00000000000E+00  0.45593999997E+02  0.45594000000E+02  0.51100000000E-03 0. -1.
         11   -1    0    0    0    0 -0.00000000000E+00 -0.00000000000E+00 -0.45593999997E+02  0.45594000000E+02  0.51100000000E-03 0.  1.
    9900012    2    1    2    0    0  0.77559461998E+01  0.16932703115E+02 -0.19559764784E+01  0.72461094750E+02  0.69999380513E+02 0.  0.
         12    1    1    2    0    0 -0.77559461998E+01 -0.16932703115E+02  0.19559764784E+01  0.18726905250E+02  0.00000000000E+00 0. -1.
         11    1    3    3    0    0 -0.15625992158E+02 -0.69323828390E+01  0.20002818053E+01  0.17211353529E+02  0.51100000000E-03 0. -1.
        -11    1    3    3    0    0 -0.99925450715E+01  0.14988127914E+02  0.65254856681E+01  0.19159250999E+02  0.51100000000E-03 0.  1.
        -12    1    3    3    0    0  0.33374483429E+02  0.88769580401E+01 -0.10481743952E+02  0.36090490222E+02  0.00000000000E+00 0.  1.
</event>
<event>
 7    1  0.2972263E-013  0.7246163E+02  0.7816164E-02  0.1226708E+00
        -11   -1    0    0    0    0  0.00000000000E+00  0.00000000000E+00  0.45593999997E+02  0.45594000000E+02  0.51100000000E-03 0.  1.
         11   -1    0    0    0    0 -0.00000000000E+00 -0.00000000000E+00 -0.45593999997E+02  0.45594000000E+02  0.51100000000E-03 0. -1.
    9900012    2    1    2    0    0 -0.16459747107E+02  0.89033176165E+01 -0.69603060906E+00  0.72461633614E+02  0.70000082486E+02 0.  0.
         12    1    1    2    0    0  0.16459747107E+02 -0.89033176165E+01  0.69603060906E+00  0.18726366386E+02  0.00000000000E+00 0. -1.
         11    1    3    3    0    0 -0.81593274434E+01  0.84109783986E+01 -0.57175626205E+01  0.13038776957E+02  0.51100000000E-03 0. -1.
        -11    1    3    3    0    0  0.19179759367E+02  0.15874437204E+02 -0.67607040912E+01  0.25798605505E+02  0.51100000000E-03 0.  1.
         12    1    3    3    0    0 -0.27480179031E+02 -0.15382097986E+02  0.11782236103E+02  0.33624251153E+02  0.00000000000E+00 0. -1.
</event>
<event>
 7    1  0.2972263E-013  0.7246164E+02  0.7816164E-02  0.1226708E+00
        -11   -1    0    0    0    0  0.00000000000E+00  0.00000000000E+00  0.45593999997E+02  0.45594000000E+02  0.51100000000E-03 0.  1.
         11   -1    0    0    0    0 -0.00000000000E+00 -0.00000000000E+00 -0.45593999997E+02  0.45594000000E+02  0.51100000000E-03 0. -1.
    9900012    2    1    2    0    0  0.61099177149E+01 -0.33380479266E+01  0.17383987719E+02  0.72461636566E+02  0.70000086331E+02 0.  0.
         12    1    1    2    0    0 -0.61099177149E+01  0.33380479266E+01 -0.17383987719E+02  0.18726363434E+02  0.00000000000E+00 0. -1.
         11    1    3    3    0    0  0.55335693970E+01 -0.79405905534E+01  0.59951872653E+01  0.11384886438E+02  0.51100000000E-03 0. -1.
        -11    1    3    3    0    0 -0.28078330241E+02  0.96056042610E+00  0.15197042399E+02  0.31941593626E+02  0.51100000000E-03 0.  1.
         12    1    3    3    0    0  0.28654678559E+02  0.36419822007E+01 -0.38082419453E+01  0.29135156501E+02  0.00000000000E+00 0. -1.
</event>
<event>
 7    1  0.2972263E-013  0.7246156E+02  0.7816164E-02  0.1226708E+00
        -11   -1    0    0    0    0  0.00000000000E+00  0.00000000000E+00  0.45593999997E+02  0.45594000000E+02  0.51100000000E-03 0. -1.
         11   -1    0    0    0    0 -0.00000000000E+00 -0.00000000000E+00 -0.45593999997E+02  0.45594000000E+02  0.51100000000E-03 0.  1.
    9900012    2    1    2    0    0  0.16737594458E+02  0.69637592544E+00 -0.83694332604E+01  0.72461563586E+02  0.69999991261E+02 0.  0.
         12    1    1    2    0    0 -0.16737594458E+02 -0.69637592544E+00  0.83694332604E+01  0.18726436414E+02  0.00000000000E+00 0. -1.
         11    1    3    3    0    0 -0.40522203644E+01 -0.21111474716E+02  0.25034793694E+01  0.21642140924E+02  0.51100000000E-03 0. -1.
        -11    1    3    3    0    0  0.14725648120E+02 -0.47548254743E+01  0.82462968328E+01  0.17534380216E+02  0.51100000000E-03 0.  1.
        -12    1    3    3    0    0  0.60641667026E+01  0.26562676115E+02 -0.19119209463E+02  0.33285042447E+02  0.00000000000E+00 0.  1.
</event>
<event>
 7    1  0.2972263E-013  0.7246156E+02  0.7816164E-02  0.1226708E+00
        -11   -1    0    0    0    0  0.00000000000E+00  0.00000000000E+00  0.45593999997E+02  0.45594000000E+02  0.51100000000E-03 0. -1.
         11   -1    0    0    0    0 -0.00000000000E+00 -0.00000000000E+00 -0.45593999997E+02  0.45594000000E+02  0.51100000000E-03 0.  1.
    9900012    2    1    2    0    0 -0.92439308713E+01  0.59795887114E+01 -0.15148392882E+02  0.72461560242E+02  0.69999986904E+02 0.  0.
         12    1    1    2    0    0  0.92439308713E+01 -0.59795887114E+01  0.15148392882E+02  0.18726439758E+02  0.00000000000E+00 0. -1.
         11    1    3    3    0    0  0.24808165637E+01 -0.14293133068E+02  0.79389959686E+01  0.16537102556E+02  0.51100000000E-03 0. -1.
        -11    1    3    3    0    0 -0.12305137078E+02 -0.10946876327E+02 -0.17807738709E+02  0.24256258121E+02  0.51100000000E-03 0.  1.
         12    1    3    3    0    0  0.58038964283E+00  0.31219598106E+02 -0.52796501418E+01  0.31668199565E+02  0.00000000000E+00 0. -1.
</event>
<event>
 7    1  0.2972263E-013  0.7246156E+02  0.7816164E-02  0.1226708E+00
        -11   -1    0    0    0    0  0.00000000000E+00  0.00000000000E+00  0.45593999997E+02  0.45594000000E+02  0.51100000000E-03 0. -1.
         11   -1    0    0    0    0 -0.00000000000E+00 -0.00000000000E+00 -0.45593999997E+02  0.45594000000E+02  0.51100000000E-03 0.  1.
    9900012    2    1    2    0    0  0.13014421178E+02 -0.10997766010E+02  0.77687559121E+01  0.72461559221E+02  0.69999985575E+02 0.  0.
         12    1    1    2    0    0 -0.13014421178E+02  0.10997766010E+02 -0.77687559121E+01  0.18726440779E+02  0.00000000000E+00 0. -1.
         11    1    3    3    0    0  0.54310372220E+01  0.24669475278E+02 -0.13269168960E+02  0.28533314230E+02  0.51100000000E-03 0. -1.
        -11    1    3    3    0    0 -0.26308621710E+01 -0.11182777636E+02  0.30852232086E+01  0.11895148336E+02  0.51100000000E-03 0.  1.
        -12    1    3    3    0    0  0.10214246127E+02 -0.24484463652E+02  0.17952701663E+02  0.32033096655E+02  0.00000000000E+00 0.  1.
</event>
<event>
 7    1  0.2972263E-013  0.7246156E+02  0.7816164E-02  0.1226708E+00
        -11   -1    0    0    0    0  0.00000000000E+00  0.00000000000E+00  0.45593999997E+02  0.45594000000E+02  0.51100000000E-03 0.  1.
         11   -1    0    0    0    0 -0.00000000000E+00 -0.00000000000E+00 -0.45593999997E+02  0.45594000000E+02  0.51100000000E-03 0. -1.
    9900012    2    1    2    0    0  0.14299429482E+02  0.49706075879E+01  0.11022653391E+02  0.72461561175E+02  0.69999988120E+02 0.  0.
         12    1    1    2    0    0 -0.14299429482E+02 -0.49706075879E+01 -0.11022653391E+02  0.18726438825E+02  0.00000000000E+00 0. -1.
         11    1    3    3    0    0  0.38197482593E+01 -0.73251367418E+01  0.79578687976E+00  0.82994808313E+01  0.51100000000E-03 0. -1.
        -11    1    3    3    0    0 -0.20086155938E+02 -0.11598534062E+02  0.10266780474E+02  0.25365063263E+02  0.51100000000E-03 0.  1.
         12    1    3    3    0    0  0.30565837161E+02  0.23894278392E+02 -0.39913962968E-01  0.38797017080E+02  0.00000000000E+00 0. -1.
</event>
<event>
 7    1  0.2972263E-013  0.7246155E+02  0.7816164E-02  0.1226708E+00
        -11   -1    0    0    0    0  0.00000000000E+00  0.00000000000E+00  0.45593999997E+02  0.45594000000E+02  0.51100000000E-03 0.  1.
         11   -1    0    0    0    0 -0.00000000000E+00 -0.00000000000E+00 -0.45593999997E+02  0.45594000000E+02  0.51100000000E-03 0. -1.
    9900012    2    1    2    0    0 -0.13332991251E+01 -0.28924150233E+01  0.18453619577E+02  0.72461552747E+02  0.69999977141E+02 0.  0.
         12    1    1    2    0    0  0.13332991251E+01  0.28924150233E+01 -0.18453619577E+02  0.18726447253E+02  0.00000000000E+00 0. -1.
         11    1    3    3    0    0  0.12584336339E+02 -0.19734343071E+02 -0.32537125445E+01  0.23630413943E+02  0.51100000000E-03 0. -1.
        -11    1    3    3    0    0  0.32021227975E+01 -0.92682121471E+01 -0.15117256957E+01  0.99216259582E+01  0.51100000000E-03 0.  1.
        -12    1    3    3    0    0 -0.17119758261E+02  0.26110140195E+02  0.23219057818E+02  0.38909512845E+02  0.00000000000E+00 0.  1.
</event>
<event>
 7    1  0.2972263E-013  0.7246151E+02  0.7816164E-02  0.1226708E+00
        -11   -1    0    0    0    0  0.00000000000E+00  0.00000000000E+00  0.45593999997E+02  0.45594000000E+02  0.51100000000E-03 0. -1.
         11   -1    0    0    0    0 -0.00000000000E+00 -0.00000000000E+00 -0.45593999997E+02  0.45594000000E+02  0.51100000000E-03 0.  1.
    9900012    2    1    2    0    0 -0.83925736392E+01  0.11158428825E+01 -0.16703321601E+02  0.72461512071E+02  0.69999924153E+02 0.  0.
         12    1    1    2    0    0  0.83925736392E+01 -0.11158428825E+01  0.16703321601E+02  0.18726487929E+02  0.00000000000E+00 0. -1.
         11    1    3    3    0    0 -0.27477216244E+02  0.16506557387E+02  0.47835309997E+01  0.32409042232E+02  0.51100000000E-03 0. -1.
        -11    1    3    3    0    0 -0.48535801396E+01 -0.59075559004E+01 -0.24416234817E+01  0.80260813835E+01  0.51100000000E-03 0.  1.
        -12    1    3    3    0    0  0.23938222745E+02 -0.94831586041E+01 -0.19045229119E+02  0.32026388456E+02  0.00000000000E+00 0.  1.
</event>
<event>
 7    1  0.2972263E-013  0.7246155E+02  0.7816164E-02  0.1226708E+00
        -11   -1    0    0    0    0  0.00000000000E+00  0.00000000000E+00  0.45593999997E+02  0.45594000000E+02  0.51100000000E-03 0. -1.
         11   -1    0    0    0    0 -0.00000000000E+00 -0.00000000000E+00 -0.45593999997E+02  0.45594000000E+02  0.51100000000E-03 0.  1.
    9900012    2    1    2    0    0 -0.11542652033E+02  0.13350561325E+02 -0.62617654058E+01  0.72461547863E+02  0.69999970779E+02 0.  0.
         12    1    1    2    0    0  0.11542652033E+02 -0.13350561325E+02  0.62617654058E+01  0.18726452137E+02  0.00000000000E+00 0. -1.
         11    1    3    3    0    0  0.99967402704E+01  0.23130588120E+02  0.13658627910E+02  0.28662118544E+02  0.51100000000E-03 0. -1.
        -11    1    3    3    0    0  0.71975495517E+00 -0.78362055196E+01  0.57654134668E+01  0.97552117786E+01  0.51100000000E-03 0.  1.
        -12    1    3    3    0    0 -0.22259147259E+02 -0.19438212751E+01 -0.25685806783E+02  0.34044217540E+02  0.00000000000E+00 0.  1.
</event>
<event>
 7    1  0.2972263E-013  0.7246158E+02  0.7816164E-02  0.1226708E+00
        -11   -1    0    0    0    0  0.00000000000E+00  0.00000000000E+00  0.45593999997E+02  0.45594000000E+02  0.51100000000E-03 0.  1.
         11   -1    0    0    0    0 -0.00000000000E+00 -0.00000000000E+00 -0.45593999997E+02  0.45594000000E+02  0.51100000000E-03 0. -1.
    9900012    2    1    2    0    0  0.37814145509E+01  0.13100459580E+02  0.12835789138E+02  0.72461584966E+02  0.70000019113E+02 0.  0.
         12    1    1    2    0    0 -0.37814145509E+01 -0.13100459580E+02 -0.12835789138E+02  0.18726415034E+02  0.00000000000E+00 0. -1.
         11    1    3    3    0    0 -0.16038402618E+01  0.58421089233E+01  0.36106196064E+01  0.70525962922E+01  0.51100000000E-03 0. -1.
        -11    1    3    3    0    0  0.23381076016E+02  0.12132777212E+02 -0.18363839338E+02  0.32110895254E+02  0.51100000000E-03 0.  1.
         12    1    3    3    0    0 -0.17995821203E+02 -0.48744265547E+01  0.27589008869E+02  0.33298093420E+02  0.00000000000E+00 0. -1.
</event>
<event>
 7    1  0.2972263E-013  0.7246163E+02  0.7816164E-02  0.1226708E+00
        -11   -1    0    0    0    0  0.00000000000E+00  0.00000000000E+00  0.45593999997E+02  0.45594000000E+02  0.51100000000E-03 0.  1.
         11   -1    0    0    0    0 -0.00000000000E+00 -0.00000000000E+00 -0.45593999997E+02  0.45594000000E+02  0.51100000000E-03 0. -1.
    9900012    2    1    2    0    0 -0.10388136558E+02  0.11476130518E+02  0.10538589121E+02  0.72461633201E+02  0.70000081948E+02 0.  0.
         12    1    1    2    0    0  0.10388136558E+02 -0.11476130518E+02 -0.10538589121E+02  0.18726366799E+02  0.00000000000E+00 0. -1.
         11    1    3    3    0    0  0.15433771404E+02 -0.72327294586E+00  0.11955851159E+02  0.19536294447E+02  0.51100000000E-03 0. -1.
        -11    1    3    3    0    0  0.53764896483E+01 -0.93694421149E+01 -0.92207037051E+01  0.14202621714E+02  0.51100000000E-03 0.  1.
        -12    1    3    3    0    0 -0.31198397611E+02  0.21568845579E+02  0.78034416673E+01  0.38722717040E+02  0.00000000000E+00 0.  1.
</event>
<event>
 7    1  0.2972263E-013  0.7246158E+02  0.7816164E-02  0.1226708E+00
        -11   -1    0    0    0    0  0.00000000000E+00  0.00000000000E+00  0.45593999997E+02  0.45594000000E+02  0.51100000000E-03 0.  1.
         11   -1    0    0    0    0 -0.00000000000E+00 -0.00000000000E+00 -0.45593999997E+02  0.45594000000E+02  0.51100000000E-03 0. -1.
    9900012    2    1    2    0    0 -0.45170703115E+01  0.67737259855E+01  0.16863914153E+02  0.72461577798E+02  0.70000009775E+02 0.  0.
         12    1    1    2    0    0  0.45170703115E+01 -0.67737259855E+01 -0.16863914153E+02  0.18726422202E+02  0.00000000000E+00 0. -1.
         11    1    3    3    0    0  0.17100107844E+02  0.10023679999E+02  0.18778917906E+02  0.27304497926E+02  0.51100000000E-03 0. -1.
        -11    1    3    3    0    0 -0.92914842096E+01  0.12308507527E+02  0.13127091509E+02  0.20252199093E+02  0.51100000000E-03 0.  1.
         12    1    3    3    0    0 -0.12325693946E+02 -0.15558461541E+02 -0.15042095262E+02  0.24904880779E+02  0.00000000000E+00 0. -1.
</event>
<event>
 7    1  0.2972263E-013  0.7246158E+02  0.7816164E-02  0.1226708E+00
        -11   -1    0    0    0    0  0.00000000000E+00  0.00000000000E+00  0.45593999997E+02  0.45594000000E+02  0.51100000000E-03 0.  1.
         11   -1    0    0    0    0 -0.00000000000E+00 -0.00000000000E+00 -0.45593999997E+02  0.45594000000E+02  0.51100000000E-03 0. -1.
    9900012    2    1    2    0    0 -0.97595540940E+01  0.43380255583E+01  0.15382183703E+02  0.72461576494E+02  0.70000008076E+02 0.  0.
         12    1    1    2    0    0  0.97595540940E+01 -0.43380255583E+01 -0.15382183703E+02  0.18726423506E+02  0.00000000000E+00 0. -1.
         11    1    3    3    0    0 -0.12386914140E+02 -0.25336999749E+02  0.19987023354E+02  0.34567040675E+02  0.51100000000E-03 0. -1.
        -11    1    3    3    0    0 -0.89016704370E+01  0.48513707502E+01 -0.25116801811E+01  0.10444332067E+02  0.51100000000E-03 0.  1.
        -12    1    3    3    0    0  0.11529030483E+02  0.24823654557E+02 -0.20931594700E+01  0.27450203752E+02  0.00000000000E+00 0.  1.
</event>
<event>
 7    1  0.2972263E-013  0.7246210E+02  0.7816164E-02  0.1226707E+00
        -11   -1    0    0    0    0  0.00000000000E+00  0.00000000000E+00  0.45593999997E+02  0.45594000000E+02  0.51100000000E-03 0.  1.
         11   -1    0    0    0    0 -0.00000000000E+00 -0.00000000000E+00 -0.45593999997E+02  0.45594000000E+02  0.51100000000E-03 0. -1.
    9900012    2    1    2    0    0 -0.11612581700E+02 -0.14023133485E+02 -0.43770964876E+01  0.72462100819E+02  0.70000691103E+02 0.  0.
         12    1    1    2    0    0  0.11612581700E+02  0.14023133485E+02  0.43770964876E+01  0.18725899181E+02  0.00000000000E+00 0. -1.
         11    1    3    3    0    0 -0.24631523371E+02 -0.17809435751E+02 -0.15578939870E+02  0.34155399471E+02  0.51100000000E-03 0. -1.
        -11    1    3    3    0    0  0.39436803711E+01 -0.79197117241E+01 -0.94157458795E+01  0.12920167158E+02  0.51100000000E-03 0.  1.
        -12    1    3    3    0    0  0.90752613000E+01  0.11706013989E+02  0.20617589262E+02  0.25386534190E+02  0.00000000000E+00 0.  1.
</event>
<event>
 7    1  0.2972263E-013  0.7246151E+02  0.7816164E-02  0.1226708E+00
        -11   -1    0    0    0    0  0.00000000000E+00  0.00000000000E+00  0.45593999997E+02  0.45594000000E+02  0.51100000000E-03 0. -1.
         11   -1    0    0    0    0 -0.00000000000E+00 -0.00000000000E+00 -0.45593999997E+02  0.45594000000E+02  0.51100000000E-03 0.  1.
    9900012    2    1    2    0    0  0.13670315312E+02  0.10477904661E+02 -0.73496544999E+01  0.72461509990E+02  0.69999921443E+02 0.  0.
         12    1    1    2    0    0 -0.13670315312E+02 -0.10477904661E+02  0.73496544999E+01  0.18726490010E+02  0.00000000000E+00 0. -1.
         11    1    3    3    0    0 -0.56514783135E+01 -0.28430595007E+01  0.21701729713E+02  0.22605027477E+02  0.51100000000E-03 0. -1.
        -11    1    3    3    0    0 -0.85839711897E+01  0.35083361551E+01 -0.14263973815E+01  0.93823021542E+01  0.51100000000E-03 0.  1.
        -12    1    3    3    0    0  0.27905764815E+02  0.98126280068E+01 -0.27624986831E+02  0.40474180359E+02  0.00000000000E+00 0.  1.
</event>
<event>
 7    1  0.2972263E-013  0.7246162E+02  0.7816164E-02  0.1226708E+00
        -11   -1    0    0    0    0  0.00000000000E+00  0.00000000000E+00  0.45593999997E+02  0.45594000000E+02  0.51100000000E-03 0.  1.
         11   -1    0    0    0    0 -0.00000000000E+00 -0.00000000000E+00 -0.45593999997E+02  0.45594000000E+02  0.51100000000E-03 0. -1.
    9900012    2    1    2    0    0  0.64098981200E+01 -0.15104927838E+02  0.90239500652E+01  0.72461619846E+02  0.70000064550E+02 0.  0.
         12    1    1    2    0    0 -0.64098981200E+01  0.15104927838E+02 -0.90239500652E+01  0.18726380154E+02  0.00000000000E+00 0. -1.
         11    1    3    3    0    0  0.16446451726E+02 -0.21265596239E+02 -0.77611159469E+01  0.27981177223E+02  0.51100000000E-03 0. -1.
        -11    1    3    3    0    0  0.13107873882E+02 -0.28907109798E+01 -0.16694600460E+01  0.13526258343E+02  0.51100000000E-03 0.  1.
        -12    1    3    3    0    0 -0.23144427488E+02  0.90513793809E+01  0.18454526058E+02  0.30954184280E+02  0.00000000000E+00 0.  1.
</event>
<event>
 7    1  0.2972263E-013  0.7246156E+02  0.7816164E-02  0.1226708E+00
        -11   -1    0    0    0    0  0.00000000000E+00  0.00000000000E+00  0.45593999997E+02  0.45594000000E+02  0.51100000000E-03 0. -1.
         11   -1    0    0    0    0 -0.00000000000E+00 -0.00000000000E+00 -0.45593999997E+02  0.45594000000E+02  0.51100000000E-03 0.  1.
    9900012    2    1    2    0    0  0.14520982384E+02 -0.11638347412E+02 -0.20903760082E+01  0.72461555283E+02  0.69999980445E+02 0.  0.
         12    1    1    2    0    0 -0.14520982384E+02  0.11638347412E+02  0.20903760082E+01  0.18726444717E+02  0.00000000000E+00 0. -1.
         11    1    3    3    0    0 -0.17575595989E+00  0.68340292514E+01 -0.13944160102E+02  0.15529792245E+02  0.51100000000E-03 0. -1.
        -11    1    3    3    0    0 -0.66340909732E+01 -0.10877352839E+02 -0.16372629839E+02  0.20745866478E+02  0.51100000000E-03 0.  1.
         12    1    3    3    0    0  0.21330829317E+02 -0.75950238247E+01  0.28226413934E+02  0.36185896559E+02  0.00000000000E+00 0. -1.
</event>
<event>
 7    1  0.2972263E-013  0.7246155E+02  0.7816164E-02  0.1226708E+00
        -11   -1    0    0    0    0  0.00000000000E+00  0.00000000000E+00  0.45593999997E+02  0.45594000000E+02  0.51100000000E-03 0.  1.
         11   -1    0    0    0    0 -0.00000000000E+00 -0.00000000000E+00 -0.45593999997E+02  0.45594000000E+02  0.51100000000E-03 0. -1.
    9900012    2    1    2    0    0  0.48351281347E+01 -0.13595976837E+02 -0.11935285348E+02  0.72461545809E+02  0.69999968103E+02 0.  0.
         12    1    1    2    0    0 -0.48351281347E+01  0.13595976837E+02  0.11935285348E+02  0.18726454191E+02  0.00000000000E+00 0. -1.
         11    1    3    3    0    0 -0.23128495845E+02  0.64755889801E+00  0.58571662886E+01  0.23867405593E+02  0.51100000000E-03 0. -1.
        -11    1    3    3    0    0  0.28906798987E-01 -0.72822066902E+01  0.73683104444E+01  0.10359699269E+02  0.51100000000E-03 0.  1.
        -12    1    3    3    0    0  0.27934717180E+02 -0.69613290448E+01 -0.25160762081E+02  0.38234440947E+02  0.00000000000E+00 0.  1.
</event>
<event>
 7    1  0.2972263E-013  0.7246156E+02  0.7816164E-02  0.1226708E+00
        -11   -1    0    0    0    0  0.00000000000E+00  0.00000000000E+00  0.45593999997E+02  0.45594000000E+02  0.51100000000E-03 0.  1.
         11   -1    0    0    0    0 -0.00000000000E+00 -0.00000000000E+00 -0.45593999997E+02  0.45594000000E+02  0.51100000000E-03 0. -1.
    9900012    2    1    2    0    0 -0.27159420843E+01 -0.36795412632E+01  0.18159414364E+02  0.72461556255E+02  0.69999981711E+02 0.  0.
         12    1    1    2    0    0  0.27159420843E+01  0.36795412632E+01 -0.18159414364E+02  0.18726443745E+02  0.00000000000E+00 0. -1.
         11    1    3    3    0    0  0.21784852190E+02  0.60226352569E+01  0.62190330295E+01  0.23442019803E+02  0.51100000000E-03 0.  1.
        -11    1    3    3    0    0 -0.34717480089E+02 -0.50585308135E+01  0.13692035559E+02  0.37661173584E+02  0.51100000000E-03 0. -1.
         12    1    3    3    0    0  0.10216685815E+02 -0.46436457065E+01 -0.17516542247E+01  0.11358362867E+02  0.00000000000E+00 0. -1.
</event>
<event>
 7    1  0.2972263E-013  0.7246157E+02  0.7816164E-02  0.1226708E+00
        -11   -1    0    0    0    0  0.00000000000E+00  0.00000000000E+00  0.45593999997E+02  0.45594000000E+02  0.51100000000E-03 0.  1.
         11   -1    0    0    0    0 -0.00000000000E+00 -0.00000000000E+00 -0.45593999997E+02  0.45594000000E+02  0.51100000000E-03 0. -1.
    9900012    2    1    2    0    0 -0.11834883755E+01 -0.18582173743E+02 -0.19953339715E+01  0.72461569924E+02  0.69999999517E+02 0.  0.
         12    1    1    2    0    0  0.11834883755E+01  0.18582173743E+02  0.19953339715E+01  0.18726430076E+02  0.00000000000E+00 0. -1.
         11    1    3    3    0    0 -0.59811115670E+01  0.31413343211E+01 -0.27794593115E+02  0.28603864837E+02  0.51100000000E-03 0. -1.
        -11    1    3    3    0    0 -0.45306737828E+01  0.41252218069E+01 -0.53933389086E-01  0.61275907952E+01  0.51100000000E-03 0.  1.
        -12    1    3    3    0    0  0.93282969743E+01 -0.25848729871E+02  0.25853192533E+02  0.37730114292E+02  0.00000000000E+00 0.  1.
</event>
<event>
 7    1  0.2972263E-013  0.7246157E+02  0.7816164E-02  0.1226708E+00
        -11   -1    0    0    0    0  0.00000000000E+00  0.00000000000E+00  0.45593999997E+02  0.45594000000E+02  0.51100000000E-03 0.  1.
         11   -1    0    0    0    0 -0.00000000000E+00 -0.00000000000E+00 -0.45593999997E+02  0.45594000000E+02  0.51100000000E-03 0. -1.
    9900012    2    1    2    0    0  0.20844547791E+01  0.15491760503E+02  0.10312103466E+02  0.72461572869E+02  0.70000003353E+02 0.  0.
         12    1    1    2    0    0 -0.20844547791E+01 -0.15491760503E+02 -0.10312103466E+02  0.18726427131E+02  0.00000000000E+00 0. -1.
         11    1    3    3    0    0 -0.23557996438E+01  0.49848289734E+01  0.26874539270E+02  0.27434270048E+02  0.51100000000E-03 0. -1.
        -11    1    3    3    0    0  0.52519185322E+00  0.12218944022E+02  0.11412488144E+02  0.16727919936E+02  0.51100000000E-03 0.  1.
         12    1    3    3    0    0  0.39150625697E+01 -0.17120124915E+01 -0.27974923949E+02  0.28299382884E+02  0.00000000000E+00 0. -1.
</event>
<event>
 7    1  0.2972263E-013  0.7246158E+02  0.7816164E-02  0.1226708E+00
        -11   -1    0    0    0    0  0.00000000000E+00  0.00000000000E+00  0.45593999997E+02  0.45594000000E+02  0.51100000000E-03 0. -1.
         11   -1    0    0    0    0 -0.00000000000E+00 -0.00000000000E+00 -0.45593999997E+02  0.45594000000E+02  0.51100000000E-03 0.  1.
    9900012    2    1    2    0    0 -0.17646005389E+02 -0.37417351399E+01 -0.50295823902E+01  0.72461580506E+02  0.70000013303E+02 0.  0.
         12    1    1    2    0    0  0.17646005389E+02  0.37417351399E+01  0.50295823902E+01  0.18726419494E+02  0.00000000000E+00 0. -1.
         11    1    3    3    0    0  0.19175800610E+01  0.10993175348E+00  0.12166478088E+02  0.12317158260E+02  0.51100000000E-03 0. -1.
        -11    1    3    3    0    0 -0.65365573760E+01 -0.24324108469E+02 -0.24157933568E+02  0.34899779221E+02  0.51100000000E-03 0.  1.
         12    1    3    3    0    0 -0.13027028074E+02  0.20472441576E+02  0.69618730894E+01  0.25244643025E+02  0.00000000000E+00 0. -1.
</event>
<event>
 7    1  0.2972263E-013  0.7246182E+02  0.7816164E-02  0.1226707E+00
        -11   -1    0    0    0    0  0.00000000000E+00  0.00000000000E+00  0.45593999997E+02  0.45594000000E+02  0.51100000000E-03 0.  1.
         11   -1    0    0    0    0 -0.00000000000E+00 -0.00000000000E+00 -0.45593999997E+02  0.45594000000E+02  0.51100000000E-03 0. -1.
    9900012    2    1    2    0    0 -0.13978348030E+02 -0.59824722980E+01  0.10930943210E+02  0.72461822924E+02  0.70000329096E+02 0.  0.
         12    1    1    2    0    0  0.13978348030E+02  0.59824722980E+01 -0.10930943210E+02  0.18726177076E+02  0.00000000000E+00 0. -1.
         11    1    3    3    0    0 -0.62477190521E+01  0.23420846390E+02 -0.64661131734E+01  0.25087460191E+02  0.51100000000E-03 0. -1.
        -11    1    3    3    0    0 -0.18197617949E+02 -0.13061982046E+02  0.16727481030E+02  0.27956703952E+02  0.51100000000E-03 0.  1.
         12    1    3    3    0    0  0.10466988971E+02 -0.16341336642E+02  0.66957535297E+00  0.19417658781E+02  0.00000000000E+00 0. -1.
</event>
<event>
 7    1  0.2972263E-013  0.7246164E+02  0.7816164E-02  0.1226708E+00
        -11   -1    0    0    0    0  0.00000000000E+00  0.00000000000E+00  0.45593999997E+02  0.45594000000E+02  0.51100000000E-03 0. -1.
         11   -1    0    0    0    0 -0.00000000000E+00 -0.00000000000E+00 -0.45593999997E+02  0.45594000000E+02  0.51100000000E-03 0.  1.
    9900012    2    1    2    0    0  0.64688200168E+01  0.10668682784E+02 -0.13964603409E+02  0.72461639619E+02  0.70000090309E+02 0.  0.
         12    1    1    2    0    0 -0.64688200168E+01 -0.10668682784E+02  0.13964603409E+02  0.18726360381E+02  0.00000000000E+00 0. -1.
         11    1    3    3    0    0  0.20695324321E+02  0.25358204129E+02 -0.19433143219E+02  0.38065496464E+02  0.51100000000E-03 0.  1.
        -11    1    3    3    0    0  0.75339059278E+01 -0.83028229177E+01  0.28435000214E+01  0.11566421208E+02  0.51100000000E-03 0. -1.
         12    1    3    3    0    0 -0.21760410232E+02 -0.63866984279E+01  0.26250397887E+01  0.22829721947E+02  0.00000000000E+00 0. -1.
</event>
<event>
 7    1  0.2972263E-013  0.7246169E+02  0.7816164E-02  0.1226708E+00
        -11   -1    0    0    0    0  0.00000000000E+00  0.00000000000E+00  0.45593999997E+02  0.45594000000E+02  0.51100000000E-03 0.  1.
         11   -1    0    0    0    0 -0.00000000000E+00 -0.00000000000E+00 -0.45593999997E+02  0.45594000000E+02  0.51100000000E-03 0. -1.
    9900012    2    1    2    0    0  0.97403008407E+01 -0.13909416669E+02 -0.78948883804E+01  0.72461692433E+02  0.70000159108E+02 0.  0.
         12    1    1    2    0    0 -0.97403008407E+01  0.13909416669E+02  0.78948883804E+01  0.18726307567E+02  0.00000000000E+00 0. -1.
         11    1    3    3    0    0 -0.64976683365E+00 -0.87605340127E+01 -0.16352482763E+01  0.89355016822E+01  0.51100000000E-03 0. -1.
        -11    1    3    3    0    0  0.26025019667E+01 -0.17302227385E+00  0.27959601882E+02  0.28080995190E+02  0.51100000000E-03 0.  1.
         12    1    3    3    0    0  0.77875657077E+01 -0.49758603829E+01 -0.34219241986E+02  0.35445195561E+02  0.00000000000E+00 0. -1.
</event>
<event>
 7    1  0.2972263E-013  0.7246161E+02  0.7816164E-02  0.1226708E+00
        -11   -1    0    0    0    0  0.00000000000E+00  0.00000000000E+00  0.45593999997E+02  0.45594000000E+02  0.51100000000E-03 0. -1.
         11   -1    0    0    0    0 -0.00000000000E+00 -0.00000000000E+00 -0.45593999997E+02  0.45594000000E+02  0.51100000000E-03 0.  1.
    9900012    2    1    2    0    0 -0.14023199922E+01  0.87211308825E+01 -0.16512207966E+02  0.72461611209E+02  0.70000053299E+02 0.  0.
         12    1    1    2    0    0  0.14023199922E+01 -0.87211308825E+01  0.16512207966E+02  0.18726388791E+02  0.00000000000E+00 0. -1.
         11    1    3    3    0    0 -0.32414548407E+02  0.66834416543E+01 -0.75203651845E+01  0.33940053529E+02  0.51100000000E-03 0. -1.
        -11    1    3    3    0    0  0.90323747402E+01  0.10474983325E+02 -0.21000415559E+01  0.13989969403E+02  0.51100000000E-03 0.  1.
        -12    1    3    3    0    0  0.21979853675E+02 -0.84372940970E+01 -0.68918012255E+01  0.24531588277E+02  0.00000000000E+00 0.  1.
</event>
<event>
 7    1  0.2972263E-013  0.7246153E+02  0.7816164E-02  0.1226708E+00
        -11   -1    0    0    0    0  0.00000000000E+00  0.00000000000E+00  0.45593999997E+02  0.45594000000E+02  0.51100000000E-03 0.  1.
         11   -1    0    0    0    0 -0.00000000000E+00 -0.00000000000E+00 -0.45593999997E+02  0.45594000000E+02  0.51100000000E-03 0. -1.
    9900012    2    1    2    0    0 -0.16993765496E+02  0.78072005884E+01 -0.96972813170E+00  0.72461526242E+02  0.69999942613E+02 0.  0.
         12    1    1    2    0    0  0.16993765496E+02 -0.78072005884E+01  0.96972813170E+00  0.18726473758E+02  0.00000000000E+00 0. -1.
         11    1    3    3    0    0 -0.77757397385E+01 -0.12661714043E+02 -0.82217482804E+01  0.16981704156E+02  0.51100000000E-03 0. -1.
        -11    1    3    3    0    0 -0.24668494896E+02 -0.40015112633E+01 -0.20675588659E+01  0.25076314178E+02  0.51100000000E-03 0.  1.
        -12    1    3    3    0    0  0.15450469138E+02  0.24470425895E+02  0.93195790147E+01  0.30403507907E+02  0.00000000000E+00 0.  1.
</event>
<event>
 7    1  0.2972263E-013  0.7246159E+02  0.7816164E-02  0.1226708E+00
        -11   -1    0    0    0    0  0.00000000000E+00  0.00000000000E+00  0.45593999997E+02  0.45594000000E+02  0.51100000000E-03 0.  1.
         11   -1    0    0    0    0 -0.00000000000E+00 -0.00000000000E+00 -0.45593999997E+02  0.45594000000E+02  0.51100000000E-03 0. -1.
    9900012    2    1    2    0    0 -0.25882852872E+01  0.86222329550E+01  0.16420603927E+02  0.72461592038E+02  0.70000028325E+02 0.  0.
         12    1    1    2    0    0  0.25882852872E+01 -0.86222329550E+01 -0.16420603927E+02  0.18726407962E+02  0.00000000000E+00 0. -1.
         11    1    3    3    0    0  0.14133687811E+02  0.15710486924E+01 -0.11380059367E+02  0.18213595927E+02  0.51100000000E-03 0. -1.
        -11    1    3    3    0    0  0.14141255009E+02  0.49047850558E+01  0.13533856100E+02  0.20179129587E+02  0.51100000000E-03 0.  1.
        -12    1    3    3    0    0 -0.30863228107E+02  0.21463992068E+01  0.14266807194E+02  0.34068866524E+02  0.00000000000E+00 0.  1.
</event>
<event>
 7    1  0.2972263E-013  0.7246160E+02  0.7816164E-02  0.1226708E+00
        -11   -1    0    0    0    0  0.00000000000E+00  0.00000000000E+00  0.45593999997E+02  0.45594000000E+02  0.51100000000E-03 0. -1.
         11   -1    0    0    0    0 -0.00000000000E+00 -0.00000000000E+00 -0.45593999997E+02  0.45594000000E+02  0.51100000000E-03 0.  1.
    9900012    2    1    2    0    0 -0.61310971511E+01 -0.83428558577E+01 -0.15603990683E+02  0.72461598280E+02  0.70000036457E+02 0.  0.
         12    1    1    2    0    0  0.61310971511E+01  0.83428558577E+01  0.15603990683E+02  0.18726401720E+02  0.00000000000E+00 0. -1.
         11    1    3    3    0    0  0.16931718225E+02  0.59127835168E+01 -0.20295517502E+02  0.27084167366E+02  0.51100000000E-03 0. -1.
        -11    1    3    3    0    0  0.24559097835E+01  0.22753760235E+00  0.14292969871E+02  0.14504215050E+02  0.51100000000E-03 0.  1.
        -12    1    3    3    0    0 -0.25518725160E+02 -0.14483176977E+02 -0.96014430517E+01  0.30873215864E+02  0.00000000000E+00 0.  1.
</event>
<event>
 7    1  0.2972263E-013  0.7246156E+02  0.7816164E-02  0.1226708E+00
        -11   -1    0    0    0    0  0.00000000000E+00  0.00000000000E+00  0.45593999997E+02  0.45594000000E+02  0.51100000000E-03 0.  1.
         11   -1    0    0    0    0 -0.00000000000E+00 -0.00000000000E+00 -0.45593999997E+02  0.45594000000E+02  0.51100000000E-03 0. -1.
    9900012    2    1    2    0    0  0.25948007263E+01 -0.11805938326E+02  0.14302673620E+02  0.72461557646E+02  0.69999983523E+02 0.  0.
         12    1    1    2    0    0 -0.25948007263E+01  0.11805938326E+02 -0.14302673620E+02  0.18726442354E+02  0.00000000000E+00 0. -1.
         11    1    3    3    0    0 -0.23643429564E+02 -0.89459995927E+01  0.14292966790E+02  0.29040171662E+02  0.51100000000E-03 0. -1.
        -11    1    3    3    0    0 -0.92266893056E+00 -0.98093429717E+01  0.96336028962E+01  0.13779725415E+02  0.51100000000E-03 0.  1.
        -12    1    3    3    0    0  0.27160899221E+02  0.69494042387E+01 -0.96238960664E+01  0.29641660569E+02  0.00000000000E+00 0.  1.
</event>
<event>
 7    1  0.2972263E-013  0.7246125E+02  0.7816164E-02  0.1226709E+00
        -11   -1    0    0    0    0  0.00000000000E+00  0.00000000000E+00  0.45593999997E+02  0.45594000000E+02  0.51100000000E-03 0.  1.
         11   -1    0    0    0    0 -0.00000000000E+00 -0.00000000000E+00 -0.45593999997E+02  0.45594000000E+02  0.51100000000E-03 0. -1.
    9900012    2    1    2    0    0 -0.16896942998E+02 -0.80669478184E+01 -0.32990447399E+00  0.72461249968E+02  0.69999582715E+02 0.  0.
         12    1    1    2    0    0  0.16896942998E+02  0.80669478184E+01  0.32990447399E+00  0.18726750032E+02  0.00000000000E+00 0. -1.
         11    1    3    3    0    0 -0.15457554415E+01 -0.10585009818E+02 -0.14119505530E+02  0.17714181591E+02  0.51100000000E-03 0. -1.
        -11    1    3    3    0    0  0.54304698936E+01  0.22393245606E+02  0.44729724937E+00  0.23046638087E+02  0.51100000000E-03 0.  1.
         12    1    3    3    0    0 -0.20781657450E+02 -0.19875183606E+02  0.13342303807E+02  0.31700430291E+02  0.00000000000E+00 0. -1.
</event>
<event>
 7    1  0.2972263E-013  0.7246166E+02  0.7816164E-02  0.1226708E+00
        -11   -1    0    0    0    0  0.00000000000E+00  0.00000000000E+00  0.45593999997E+02  0.45594000000E+02  0.51100000000E-03 0. -1.
         11   -1    0    0    0    0 -0.00000000000E+00 -0.00000000000E+00 -0.45593999997E+02  0.45594000000E+02  0.51100000000E-03 0.  1.
    9900012    2    1    2    0    0  0.11933921413E+02 -0.13981599437E+02  0.35738204136E+01  0.72461660383E+02  0.70000117357E+02 0.  0.
         12    1    1    2    0    0 -0.11933921413E+02  0.13981599437E+02 -0.35738204136E+01  0.18726339617E+02  0.00000000000E+00 0. -1.
         11    1    3    3    0    0 -0.24805126764E+02 -0.84724642486E+00 -0.46134384139E+01  0.25244721320E+02  0.51100000000E-03 0. -1.
        -11    1    3    3    0    0  0.55653177752E+01 -0.71019856730E+01  0.12241202019E+02  0.15207169019E+02  0.51100000000E-03 0.  1.
        -12    1    3    3    0    0  0.31173730402E+02 -0.60323673391E+01 -0.40539431911E+01  0.32009770044E+02  0.00000000000E+00 0.  1.
</event>
<event>
 7    1  0.2972263E-013  0.7246206E+02  0.7816164E-02  0.1226707E+00
        -11   -1    0    0    0    0  0.00000000000E+00  0.00000000000E+00  0.45593999997E+02  0.45594000000E+02  0.51100000000E-03 0.  1.
         11   -1    0    0    0    0 -0.00000000000E+00 -0.00000000000E+00 -0.45593999997E+02  0.45594000000E+02  0.51100000000E-03 0. -1.
    9900012    2    1    2    0    0  0.16045796479E+02 -0.69550235121E+01  0.66948523156E+01  0.72462055852E+02  0.70000632526E+02 0.  0.
         12    1    1    2    0    0 -0.16045796479E+02  0.69550235121E+01 -0.66948523156E+01  0.18725944148E+02  0.00000000000E+00 0. -1.
         11    1    3    3    0    0  0.18044766805E+02  0.16443372079E+02  0.11579763395E+02  0.27020159417E+02  0.51100000000E-03 0. -1.
        -11    1    3    3    0    0  0.15745064544E+02 -0.63150445826E+01  0.66784798348E+01  0.18231536927E+02  0.51100000000E-03 0.  1.
         12    1    3    3    0    0 -0.17744034869E+02 -0.17083351008E+02 -0.11563390915E+02  0.27210359508E+02  0.00000000000E+00 0. -1.
</event>
<event>
 7    1  0.2972263E-013  0.7246161E+02  0.7816164E-02  0.1226708E+00
        -11   -1    0    0    0    0  0.00000000000E+00  0.00000000000E+00  0.45593999997E+02  0.45594000000E+02  0.51100000000E-03 0.  1.
         11   -1    0    0    0    0 -0.00000000000E+00 -0.00000000000E+00 -0.45593999997E+02  0.45594000000E+02  0.51100000000E-03 0. -1.
    9900012    2    1    2    0    0 -0.11226248892E+02  0.14434204953E+02 -0.40376661746E+01  0.72461609933E+02  0.70000051636E+02 0.  0.
         12    1    1    2    0    0  0.11226248892E+02 -0.14434204953E+02  0.40376661746E+01  0.18726390067E+02  0.00000000000E+00 0. -1.
         11    1    3    3    0    0 -0.87072566681E+00  0.18844141915E+01 -0.58019804091E+01  0.61621552204E+01  0.51100000000E-03 0. -1.
        -11    1    3    3    0    0 -0.26810291716E+02  0.20277855732E+01 -0.22564478020E+02  0.35100702625E+02  0.51100000000E-03 0.  1.
        -12    1    3    3    0    0  0.16454768490E+02  0.10522005188E+02  0.24328792254E+02  0.31198752087E+02  0.00000000000E+00 0.  1.
</event>
<event>
 7    1  0.2972263E-013  0.7246158E+02  0.7816164E-02  0.1226708E+00
        -11   -1    0    0    0    0  0.00000000000E+00  0.00000000000E+00  0.45593999997E+02  0.45594000000E+02  0.51100000000E-03 0.  1.
         11   -1    0    0    0    0 -0.00000000000E+00 -0.00000000000E+00 -0.45593999997E+02  0.45594000000E+02  0.51100000000E-03 0. -1.
    9900012    2    1    2    0    0 -0.30402109152E+01 -0.18463548887E+02  0.73038231849E+00  0.72461575402E+02  0.70000006653E+02 0.  0.
         12    1    1    2    0    0  0.30402109152E+01  0.18463548887E+02 -0.73038231849E+00  0.18726424598E+02  0.00000000000E+00 0. -1.
         11    1    3    3    0    0  0.13521291111E+02 -0.26586182559E+02 -0.62831774481E+01  0.30481613072E+02  0.51100000000E-03 0. -1.
        -11    1    3    3    0    0  0.52723709063E+00 -0.87218895814E+00  0.19146354268E+02  0.19173460161E+02  0.51100000000E-03 0.  1.
        -12    1    3    3    0    0 -0.17088739117E+02  0.89948226302E+01 -0.12132794502E+02  0.22806502169E+02  0.00000000000E+00 0.  1.
</event>
<event>
 7    1  0.2972263E-013  0.7246156E+02  0.7816164E-02  0.1226708E+00
        -11   -1    0    0    0    0  0.00000000000E+00  0.00000000000E+00  0.45593999997E+02  0.45594000000E+02  0.51100000000E-03 0. -1.
         11   -1    0    0    0    0 -0.00000000000E+00 -0.00000000000E+00 -0.45593999997E+02  0.45594000000E+02  0.51100000000E-03 0.  1.
    9900012    2    1    2    0    0  0.18352809635E+02  0.36900247986E+01  0.48760055215E+00  0.72461557230E+02  0.69999982981E+02 0.  0.
         12    1    1    2    0    0 -0.18352809635E+02 -0.36900247986E+01 -0.48760055215E+00  0.18726442770E+02  0.00000000000E+00 0. -1.
         11    1    3    3    0    0 -0.13134436476E+02  0.14324327093E+02 -0.18806164619E+01  0.19525278148E+02  0.51100000000E-03 0. -1.
        -11    1    3    3    0    0  0.44129840990E+01 -0.22340796258E+02 -0.29538733920E+01  0.22963252696E+02  0.51100000000E-03 0.  1.
         12    1    3    3    0    0  0.27074262012E+02  0.11706493964E+02  0.53220904061E+01  0.29973026386E+02  0.00000000000E+00 0. -1.
</event>
<event>
 7    1  0.2972263E-013  0.7246164E+02  0.7816164E-02  0.1226708E+00
        -11   -1    0    0    0    0  0.00000000000E+00  0.00000000000E+00  0.45593999997E+02  0.45594000000E+02  0.51100000000E-03 0.  1.
         11   -1    0    0    0    0 -0.00000000000E+00 -0.00000000000E+00 -0.45593999997E+02  0.45594000000E+02  0.51100000000E-03 0. -1.
    9900012    2    1    2    0    0 -0.83215052847E+01  0.13276590775E+02  0.10254823831E+02  0.72461635574E+02  0.70000085038E+02 0.  0.
         12    1    1    2    0    0  0.83215052847E+01 -0.13276590775E+02 -0.10254823831E+02  0.18726364426E+02  0.00000000000E+00 0. -1.
         11    1    3    3    0    0 -0.99826744978E+01  0.26117644862E+02  0.39707079355E+01  0.28240957580E+02  0.51100000000E-03 0. -1.
        -11    1    3    3    0    0  0.51828976439E+01 -0.30736230897E+01  0.23421016182E+02  0.24183746321E+02  0.51100000000E-03 0.  1.
         12    1    3    3    0    0 -0.35217284308E+01 -0.97674309974E+01 -0.17136900286E+02  0.20036931672E+02  0.00000000000E+00 0. -1.
</event>
<event>
 7    1  0.2972263E-013  0.7246153E+02  0.7816164E-02  0.1226708E+00
        -11   -1    0    0    0    0  0.00000000000E+00  0.00000000000E+00  0.45593999997E+02  0.45594000000E+02  0.51100000000E-03 0. -1.
         11   -1    0    0    0    0 -0.00000000000E+00 -0.00000000000E+00 -0.45593999997E+02  0.45594000000E+02  0.51100000000E-03 0.  1.
    9900012    2    1    2    0    0  0.12400655931E+01  0.48040541555E-02 -0.18685363534E+02  0.72461532203E+02  0.69999950379E+02 0.  0.
         12    1    1    2    0    0 -0.12400655931E+01 -0.48040541555E-02  0.18685363534E+02  0.18726467797E+02  0.00000000000E+00 0. -1.
         11    1    3    3    0    0  0.46214836857E+00 -0.10470577973E+02  0.56320194994E+01  0.11898160703E+02  0.51100000000E-03 0. -1.
        -11    1    3    3    0    0  0.14897768801E+02  0.18733508802E+02  0.72505538792E+01  0.25009166301E+02  0.51100000000E-03 0.  1.
        -12    1    3    3    0    0 -0.14119851577E+02 -0.82581267742E+01 -0.31567936913E+02  0.35554205198E+02  0.00000000000E+00 0.  1.
</event>
<event>
 7    1  0.2972263E-013  0.7246157E+02  0.7816164E-02  0.1226708E+00
        -11   -1    0    0    0    0  0.00000000000E+00  0.00000000000E+00  0.45593999997E+02  0.45594000000E+02  0.51100000000E-03 0.  1.
         11   -1    0    0    0    0 -0.00000000000E+00 -0.00000000000E+00 -0.45593999997E+02  0.45594000000E+02  0.51100000000E-03 0. -1.
    9900012    2    1    2    0    0 -0.12550288175E+02  0.13064784729E+00  0.13897925581E+02  0.72461571147E+02  0.70000001110E+02 0.  0.
         12    1    1    2    0    0  0.12550288175E+02 -0.13064784729E+00 -0.13897925581E+02  0.18726428853E+02  0.00000000000E+00 0. -1.
         11    1    3    3    0    0  0.10837176521E+02 -0.19621366905E+02  0.18543399684E+02  0.29091237620E+02  0.51100000000E-03 0. -1.
        -11    1    3    3    0    0 -0.16339506679E+02  0.38648145675E+01  0.10928037700E+02  0.20033429023E+02  0.51100000000E-03 0.  1.
         12    1    3    3    0    0 -0.70479580169E+01  0.15887200185E+02 -0.15573511803E+02  0.23336904504E+02  0.00000000000E+00 0. -1.
</event>
<event>
 7    1  0.2972263E-013  0.7246156E+02  0.7816164E-02  0.1226708E+00
        -11   -1    0    0    0    0  0.00000000000E+00  0.00000000000E+00  0.45593999997E+02  0.45594000000E+02  0.51100000000E-03 0. -1.
         11   -1    0    0    0    0 -0.00000000000E+00 -0.00000000000E+00 -0.45593999997E+02  0.45594000000E+02  0.51100000000E-03 0.  1.
    9900012    2    1    2    0    0  0.14324264515E+02 -0.11808837601E+02 -0.24589383467E+01  0.72461559410E+02  0.69999985821E+02 0.  0.
         12    1    1    2    0    0 -0.14324264515E+02  0.11808837601E+02  0.24589383467E+01  0.18726440590E+02  0.00000000000E+00 0. -1.
         11    1    3    3    0    0 -0.27516641789E+00 -0.11216906378E+02  0.10647619176E+02  0.15468241646E+02  0.51100000000E-03 0. -1.
        -11    1    3    3    0    0  0.11493703481E+02 -0.23746842246E+02  0.57131991147E+01  0.26993672976E+02  0.51100000000E-03 0.  1.
        -12    1    3    3    0    0  0.31057274514E+01  0.23154911023E+02 -0.18819756637E+02  0.29999644787E+02  0.00000000000E+00 0.  1.
</event>
<event>
 7    1  0.2972263E-013  0.7246152E+02  0.7816164E-02  0.1226708E+00
        -11   -1    0    0    0    0  0.00000000000E+00  0.00000000000E+00  0.45593999997E+02  0.45594000000E+02  0.51100000000E-03 0.  1.
         11   -1    0    0    0    0 -0.00000000000E+00 -0.00000000000E+00 -0.45593999997E+02  0.45594000000E+02  0.51100000000E-03 0. -1.
    9900012    2    1    2    0    0 -0.75126922170E+01  0.16494198984E+02 -0.47097482074E+01  0.72461524820E+02  0.69999940761E+02 0.  0.
         12    1    1    2    0    0  0.75126922170E+01 -0.16494198984E+02  0.47097482074E+01  0.18726475180E+02  0.00000000000E+00 0. -1.
         11    1    3    3    0    0 -0.54328177503E+00 -0.65802586730E+01 -0.34626817740E+01  0.74555432143E+01  0.51100000000E-03 0. -1.
        -11    1    3    3    0    0 -0.33570185473E+02  0.15018104475E+02 -0.43787185929E+01  0.37036117393E+02  0.51100000000E-03 0.  1.
        -12    1    3    3    0    0  0.26600775031E+02  0.80563531822E+01  0.31316521595E+01  0.27969864213E+02  0.00000000000E+00 0.  1.
</event>
<event>
 7    1  0.2972263E-013  0.7246160E+02  0.7816164E-02  0.1226708E+00
        -11   -1    0    0    0    0  0.00000000000E+00  0.00000000000E+00  0.45593999997E+02  0.45594000000E+02  0.51100000000E-03 0.  1.
         11   -1    0    0    0    0 -0.00000000000E+00 -0.00000000000E+00 -0.45593999997E+02  0.45594000000E+02  0.51100000000E-03 0. -1.
    9900012    2    1    2    0    0  0.17732342990E+02  0.45988276386E+01 -0.38849316437E+01  0.72461604259E+02  0.70000044245E+02 0.  0.
         12    1    1    2    0    0 -0.17732342990E+02 -0.45988276386E+01  0.38849316437E+01  0.18726395741E+02  0.00000000000E+00 0. -1.
         11    1    3    3    0    0  0.92347940950E+01 -0.80213391575E+01 -0.12678944711E+02  0.17617574836E+02  0.51100000000E-03 0. -1.
        -11    1    3    3    0    0 -0.15821131562E+02 -0.92136983723E+01  0.12175766882E+02  0.21987490557E+02  0.51100000000E-03 0.  1.
         12    1    3    3    0    0  0.24318680457E+02  0.21833865168E+02 -0.33817538140E+01  0.32856538865E+02  0.00000000000E+00 0. -1.
</event>
<event>
 7    1  0.2972263E-013  0.7246157E+02  0.7816164E-02  0.1226708E+00
        -11   -1    0    0    0    0  0.00000000000E+00  0.00000000000E+00  0.45593999997E+02  0.45594000000E+02  0.51100000000E-03 0. -1.
         11   -1    0    0    0    0 -0.00000000000E+00 -0.00000000000E+00 -0.45593999997E+02  0.45594000000E+02  0.51100000000E-03 0.  1.
    9900012    2    1    2    0    0  0.92846687134E+00  0.22301816422E+01 -0.18569964980E+02  0.72461565202E+02  0.69999993367E+02 0.  0.
         12    1    1    2    0    0 -0.92846687134E+00 -0.22301816422E+01  0.18569964980E+02  0.18726434798E+02  0.00000000000E+00 0. -1.
         11    1    3    3    0    0 -0.36362176513E+01 -0.12314649697E+02 -0.35617150812E+00  0.12845214454E+02  0.51100000000E-03 0. -1.
        -11    1    3    3    0    0 -0.12961950127E+02  0.12336083140E+01 -0.31377358244E+02  0.33971643340E+02  0.51100000000E-03 0.  1.
        -12    1    3    3    0    0  0.17526634649E+02  0.13311223025E+02  0.13163564773E+02  0.25644707409E+02  0.00000000000E+00 0.  1.
</event>
<event>
 7    1  0.2972263E-013  0.7246159E+02  0.7816164E-02  0.1226708E+00
        -11   -1    0    0    0    0  0.00000000000E+00  0.00000000000E+00  0.45593999997E+02  0.45594000000E+02  0.51100000000E-03 0.  1.
         11   -1    0    0    0    0 -0.00000000000E+00 -0.00000000000E+00 -0.45593999997E+02  0.45594000000E+02  0.51100000000E-03 0. -1.
    9900012    2    1    2    0    0 -0.14951248370E+02 -0.11187259790E+02  0.14084249098E+01  0.72461594308E+02  0.70000031282E+02 0.  0.
         12    1    1    2    0    0  0.14951248370E+02  0.11187259790E+02 -0.14084249098E+01  0.18726405692E+02  0.00000000000E+00 0. -1.
         11    1    3    3    0    0  0.10015013831E+02  0.12865618690E+02 -0.58971098091E+01  0.17337835813E+02  0.51100000000E-03 0. -1.
        -11    1    3    3    0    0  0.97277362885E+01 -0.15747294145E+02 -0.84989268088E+00  0.18529124211E+02  0.51100000000E-03 0.  1.
        -12    1    3    3    0    0 -0.34693998489E+02 -0.83055843348E+01  0.81554273998E+01  0.36594634284E+02  0.00000000000E+00 0.  1.
</event>
<event>
 7    1  0.2972263E-013  0.7246157E+02  0.7816164E-02  0.1226708E+00
        -11   -1    0    0    0    0  0.00000000000E+00  0.00000000000E+00  0.45593999997E+02  0.45594000000E+02  0.51100000000E-03 0.  1.
         11   -1    0    0    0    0 -0.00000000000E+00 -0.00000000000E+00 -0.45593999997E+02  0.45594000000E+02  0.51100000000E-03 0. -1.
    9900012    2    1    2    0    0  0.77487057301E+01  0.28907385119E+01  0.16801195986E+02  0.72461574922E+02  0.70000006028E+02 0.  0.
         12    1    1    2    0    0 -0.77487057301E+01 -0.28907385119E+01 -0.16801195986E+02  0.18726425078E+02  0.00000000000E+00 0. -1.
         11    1    3    3    0    0  0.27599945011E+02  0.18655509955E+02 -0.19283064386E+01  0.33369198106E+02  0.51100000000E-03 0. -1.
        -11    1    3    3    0    0  0.30789572310E+01  0.31897183447E+01  0.36297205875E+01  0.57296729884E+01  0.51100000000E-03 0.  1.
        -12    1    3    3    0    0 -0.22930196512E+02 -0.18954489788E+02  0.15099781837E+02  0.33362703828E+02  0.00000000000E+00 0.  1.
</event>
<event>
 7    1  0.2972263E-013  0.7246167E+02  0.7816164E-02  0.1226708E+00
        -11   -1    0    0    0    0  0.00000000000E+00  0.00000000000E+00  0.45593999997E+02  0.45594000000E+02  0.51100000000E-03 0.  1.
         11   -1    0    0    0    0 -0.00000000000E+00 -0.00000000000E+00 -0.45593999997E+02  0.45594000000E+02  0.51100000000E-03 0. -1.
    9900012    2    1    2    0    0 -0.11543622754E+02 -0.70215727182E+01  0.12966020355E+02  0.72461671114E+02  0.70000131336E+02 0.  0.
         12    1    1    2    0    0  0.11543622754E+02  0.70215727182E+01 -0.12966020355E+02  0.18726328886E+02  0.00000000000E+00 0. -1.
         11    1    3    3    0    0  0.11402569262E+02 -0.13479120780E+01  0.14071577668E+02  0.18161628536E+02  0.51100000000E-03 0. -1.
        -11    1    3    3    0    0  0.89663440225E+01 -0.17894285693E+02  0.11920348603E+01  0.20050479619E+02  0.51100000000E-03 0.  1.
         12    1    3    3    0    0 -0.31912536038E+02  0.12220625053E+02 -0.22975921737E+01  0.34249562959E+02  0.00000000000E+00 0. -1.
</event>
<event>
 7    1  0.2972263E-013  0.7246144E+02  0.7816164E-02  0.1226708E+00
        -11   -1    0    0    0    0  0.00000000000E+00  0.00000000000E+00  0.45593999997E+02  0.45594000000E+02  0.51100000000E-03 0.  1.
         11   -1    0    0    0    0 -0.00000000000E+00 -0.00000000000E+00 -0.45593999997E+02  0.45594000000E+02  0.51100000000E-03 0. -1.
    9900012    2    1    2    0    0 -0.17154731035E+01 -0.34393101406E+01  0.18327910070E+02  0.72461441594E+02  0.69999832344E+02 0.  0.
         12    1    1    2    0    0  0.17154731035E+01  0.34393101406E+01 -0.18327910070E+02  0.18726558406E+02  0.00000000000E+00 0. -1.
         11    1    3    3    0    0 -0.44327034243E+01  0.68711520824E+01 -0.72421210226E+01  0.10922907477E+02  0.51100000000E-03 0. -1.
        -11    1    3    3    0    0  0.10239784192E+02  0.20235917776E+02  0.18565605287E+02  0.29309166629E+02  0.51100000000E-03 0.  1.
        -12    1    3    3    0    0 -0.75225538717E+01 -0.30546379999E+02  0.70044258052E+01  0.32229367488E+02  0.00000000000E+00 0.  1.
</event>
<event>
 7    1  0.2972263E-013  0.7246138E+02  0.7816164E-02  0.1226709E+00
        -11   -1    0    0    0    0  0.00000000000E+00  0.00000000000E+00  0.45593999997E+02  0.45594000000E+02  0.51100000000E-03 0. -1.
         11   -1    0    0    0    0 -0.00000000000E+00 -0.00000000000E+00 -0.45593999997E+02  0.45594000000E+02  0.51100000000E-03 0.  1.
    9900012    2    1    2    0    0  0.18139354393E+02  0.19562375907E+01 -0.42217462827E+01  0.72461382981E+02  0.69999755989E+02 0.  0.
         12    1    1    2    0    0 -0.18139354393E+02 -0.19562375907E+01  0.42217462827E+01  0.18726617019E+02  0.00000000000E+00 0. -1.
         11    1    3    3    0    0 -0.20663089229E+01 -0.34936249068E+01 -0.22354988317E+02  0.22720487461E+02  0.51100000000E-03 0. -1.
        -11    1    3    3    0    0  0.64578971494E-01  0.61343704757E+01 -0.12007306166E+02  0.13483696571E+02  0.51100000000E-03 0.  1.
        -12    1    3    3    0    0  0.20141084345E+02 -0.68450797820E+00  0.30140548201E+02  0.36257198949E+02  0.00000000000E+00 0.  1.
</event>
<event>
 7    1  0.2972263E-013  0.7246149E+02  0.7816164E-02  0.1226708E+00
        -11   -1    0    0    0    0  0.00000000000E+00  0.00000000000E+00  0.45593999997E+02  0.45594000000E+02  0.51100000000E-03 0. -1.
         11   -1    0    0    0    0 -0.00000000000E+00 -0.00000000000E+00 -0.45593999997E+02  0.45594000000E+02  0.51100000000E-03 0.  1.
    9900012    2    1    2    0    0 -0.12567151470E+02 -0.18414193564E+01 -0.13760745524E+02  0.72461488347E+02  0.69999893248E+02 0.  0.
         12    1    1    2    0    0  0.12567151470E+02  0.18414193564E+01  0.13760745524E+02  0.18726511653E+02  0.00000000000E+00 0. -1.
         11    1    3    3    0    0 -0.16233514506E+02 -0.95750308242E+01  0.16355452763E+02  0.24954138812E+02  0.51100000000E-03 0. -1.
        -11    1    3    3    0    0  0.16999918954E+02  0.88125733228E+01 -0.62405593991E+01  0.20139594705E+02  0.51100000000E-03 0.  1.
        -12    1    3    3    0    0 -0.13333555918E+02 -0.10789618550E+01 -0.23875638888E+02  0.27367754830E+02  0.00000000000E+00 0.  1.
</event>
<event>
 7    1  0.2972263E-013  0.7246155E+02  0.7816164E-02  0.1226708E+00
        -11   -1    0    0    0    0  0.00000000000E+00  0.00000000000E+00  0.45593999997E+02  0.45594000000E+02  0.51100000000E-03 0.  1.
         11   -1    0    0    0    0 -0.00000000000E+00 -0.00000000000E+00 -0.45593999997E+02  0.45594000000E+02  0.51100000000E-03 0. -1.
    9900012    2    1    2    0    0  0.82567601251E+00  0.54550511157E+00  0.18700286505E+02  0.72461547264E+02  0.69999969998E+02 0.  0.
         12    1    1    2    0    0 -0.82567601251E+00 -0.54550511157E+00 -0.18700286505E+02  0.18726452736E+02  0.00000000000E+00 0. -1.
         11    1    3    3    0    0  0.96938715000E+01  0.55302986695E+01  0.80398540736E+01  0.13754802864E+02  0.51100000000E-03 0. -1.
        -11    1    3    3    0    0 -0.23914551140E+02  0.12953176761E+02  0.19728433246E+02  0.33599131284E+02  0.51100000000E-03 0.  1.
         12    1    3    3    0    0  0.15046355653E+02 -0.17937970319E+02 -0.90680008142E+01  0.25107613116E+02  0.00000000000E+00 0. -1.
</event>
<event>
 7    1  0.2972263E-013  0.7246149E+02  0.7816164E-02  0.1226708E+00
        -11   -1    0    0    0    0  0.00000000000E+00  0.00000000000E+00  0.45593999997E+02  0.45594000000E+02  0.51100000000E-03 0.  1.
         11   -1    0    0    0    0 -0.00000000000E+00 -0.00000000000E+00 -0.45593999997E+02  0.45594000000E+02  0.51100000000E-03 0. -1.
    9900012    2    1    2    0    0  0.17438102660E+02 -0.18562961111E+01  0.65687936654E+01  0.72461486447E+02  0.69999890773E+02 0.  0.
         12    1    1    2    0    0 -0.17438102660E+02  0.18562961111E+01 -0.65687936654E+01  0.18726513553E+02  0.00000000000E+00 0. -1.
         11    1    3    3    0    0  0.17480460585E+02  0.18524048124E+02 -0.13827790971E+01  0.25507233081E+02  0.51100000000E-03 0.  1.
        -11    1    3    3    0    0 -0.41486481094E+01 -0.11472925330E+02 -0.16550979461E+02  0.20561474124E+02  0.51100000000E-03 0. -1.
        -12    1    3    3    0    0  0.41062901842E+01 -0.89074189049E+01  0.24502552224E+02  0.26392779241E+02  0.00000000000E+00 0.  1.
</event>
<event>
 7    1  0.2972263E-013  0.7246162E+02  0.7816164E-02  0.1226708E+00
        -11   -1    0    0    0    0  0.00000000000E+00  0.00000000000E+00  0.45593999997E+02  0.45594000000E+02  0.51100000000E-03 0.  1.
         11   -1    0    0    0    0 -0.00000000000E+00 -0.00000000000E+00 -0.45593999997E+02  0.45594000000E+02  0.51100000000E-03 0. -1.
    9900012    2    1    2    0    0 -0.20065514346E+01 -0.16667952109E+02 -0.82964119277E+01  0.72461619489E+02  0.70000064085E+02 0.  0.
         12    1    1    2    0    0  0.20065514346E+01  0.16667952109E+02  0.82964119277E+01  0.18726380511E+02  0.00000000000E+00 0. -1.
         11    1    3    3    0    0  0.25075355643E+00  0.88811705390E+01 -0.15522706679E+02  0.17885538582E+02  0.51100000000E-03 0. -1.
        -11    1    3    3    0    0  0.18496664628E+00  0.14193138249E+02  0.56577199470E+00  0.14205614532E+02  0.51100000000E-03 0.  1.
         12    1    3    3    0    0 -0.24422716373E+01 -0.39742260897E+02  0.66605227563E+01  0.40370466375E+02  0.00000000000E+00 0. -1.
</event>
<event>
 7    1  0.2972263E-013  0.7246157E+02  0.7816164E-02  0.1226708E+00
        -11   -1    0    0    0    0  0.00000000000E+00  0.00000000000E+00  0.45593999997E+02  0.45594000000E+02  0.51100000000E-03 0.  1.
         11   -1    0    0    0    0 -0.00000000000E+00 -0.00000000000E+00 -0.45593999997E+02  0.45594000000E+02  0.51100000000E-03 0. -1.
    9900012    2    1    2    0    0 -0.39529360975E+00  0.16664865446E+02  0.85325965731E+01  0.72461569436E+02  0.69999998882E+02 0.  0.
         12    1    1    2    0    0  0.39529360975E+00 -0.16664865446E+02 -0.85325965731E+01  0.18726430564E+02  0.00000000000E+00 0. -1.
         11    1    3    3    0    0 -0.16645089860E+02 -0.94113222109E+01 -0.11300181271E+02  0.22210945482E+02  0.51100000000E-03 0. -1.
        -11    1    3    3    0    0  0.25313322661E+01 -0.68635011572E+01  0.11465556834E+02  0.13600525172E+02  0.51100000000E-03 0.  1.
         12    1    3    3    0    0  0.13718463984E+02  0.32939688815E+02  0.83672210097E+01  0.36650098782E+02  0.00000000000E+00 0. -1.
</event>
<event>
 7    1  0.2972263E-013  0.7246160E+02  0.7816164E-02  0.1226708E+00
        -11   -1    0    0    0    0  0.00000000000E+00  0.00000000000E+00  0.45593999997E+02  0.45594000000E+02  0.51100000000E-03 0.  1.
         11   -1    0    0    0    0 -0.00000000000E+00 -0.00000000000E+00 -0.45593999997E+02  0.45594000000E+02  0.51100000000E-03 0. -1.
    9900012    2    1    2    0    0 -0.50634803834E+01  0.18003464796E+02  0.95622256084E+00  0.72461603127E+02  0.70000042770E+02 0.  0.
         12    1    1    2    0    0  0.50634803834E+01 -0.18003464796E+02 -0.95622256084E+00  0.18726396873E+02  0.00000000000E+00 0. -1.
         11    1    3    3    0    0 -0.38304884706E+01  0.61015360573E+01 -0.91307919580E+01  0.11630681245E+02  0.51100000000E-03 0. -1.
        -11    1    3    3    0    0  0.12374962816E+02  0.25394144972E+02 -0.12772163704E+02  0.31002104275E+02  0.51100000000E-03 0.  1.
        -12    1    3    3    0    0 -0.13607954729E+02 -0.13492216232E+02  0.22859178223E+02  0.29828817607E+02  0.00000000000E+00 0.  1.
</event>
<event>
 7    1  0.2972263E-013  0.7246152E+02  0.7816164E-02  0.1226708E+00
        -11   -1    0    0    0    0  0.00000000000E+00  0.00000000000E+00  0.45593999997E+02  0.45594000000E+02  0.51100000000E-03 0.  1.
         11   -1    0    0    0    0 -0.00000000000E+00 -0.00000000000E+00 -0.45593999997E+02  0.45594000000E+02  0.51100000000E-03 0. -1.
    9900012    2    1    2    0    0  0.31908618021E+00  0.17787910974E+02  0.58454582280E+01  0.72461522095E+02  0.69999937212E+02 0.  0.
         12    1    1    2    0    0 -0.31908618021E+00 -0.17787910974E+02 -0.58454582280E+01  0.18726477905E+02  0.00000000000E+00 0. -1.
         11    1    3    3    0    0 -0.64140568941E+01  0.26183375318E+01  0.32257886339E+02  0.32993439478E+02  0.51100000000E-03 0. -1.
        -11    1    3    3    0    0  0.28039588609E+01  0.16227372166E+02 -0.43488064285E+01  0.17032378294E+02  0.51100000000E-03 0.  1.
        -12    1    3    3    0    0  0.39291842134E+01 -0.10577987240E+01 -0.22063621683E+02  0.22435704323E+02  0.00000000000E+00 0.  1.
</event>
<event>
 7    1  0.2972263E-013  0.7246159E+02  0.7816164E-02  0.1226708E+00
        -11   -1    0    0    0    0  0.00000000000E+00  0.00000000000E+00  0.45593999997E+02  0.45594000000E+02  0.51100000000E-03 0.  1.
         11   -1    0    0    0    0 -0.00000000000E+00 -0.00000000000E+00 -0.45593999997E+02  0.45594000000E+02  0.51100000000E-03 0. -1.
    9900012    2    1    2    0    0 -0.12700649492E+02 -0.48575685535E+01  0.12875399161E+02  0.72461591553E+02  0.70000027693E+02 0.  0.
         12    1    1    2    0    0  0.12700649492E+02  0.48575685535E+01 -0.12875399161E+02  0.18726408447E+02  0.00000000000E+00 0. -1.
         11    1    3    3    0    0 -0.58580910192E+01 -0.97827249662E+01  0.42159754205E+01  0.12157030359E+02  0.51100000000E-03 0. -1.
        -11    1    3    3    0    0 -0.11046392548E+02 -0.13000716706E+02  0.28513248843E+02  0.33227199446E+02  0.51100000000E-03 0.  1.
         12    1    3    3    0    0  0.42038340749E+01  0.17925873118E+02 -0.19853825103E+02  0.27077361747E+02  0.00000000000E+00 0. -1.
</event>
<event>
 7    1  0.2972263E-013  0.7246161E+02  0.7816164E-02  0.1226708E+00
        -11   -1    0    0    0    0  0.00000000000E+00  0.00000000000E+00  0.45593999997E+02  0.45594000000E+02  0.51100000000E-03 0.  1.
         11   -1    0    0    0    0 -0.00000000000E+00 -0.00000000000E+00 -0.45593999997E+02  0.45594000000E+02  0.51100000000E-03 0. -1.
    9900012    2    1    2    0    0 -0.15939370876E+01 -0.16403902961E+02  0.88909424912E+01  0.72461614172E+02  0.70000057159E+02 0.  0.
         12    1    1    2    0    0  0.15939370876E+01  0.16403902961E+02 -0.88909424912E+01  0.18726385828E+02  0.00000000000E+00 0. -1.
         11    1    3    3    0    0  0.88298937831E+01 -0.54553243440E+01  0.31315478329E+01  0.10841318186E+02  0.51100000000E-03 0. -1.
        -11    1    3    3    0    0 -0.35615736937E+01 -0.28320425775E+02  0.22649475790E+02  0.36438030642E+02  0.51100000000E-03 0.  1.
         12    1    3    3    0    0 -0.68622571770E+01  0.17371847158E+02 -0.16890081131E+02  0.25182265345E+02  0.00000000000E+00 0. -1.
</event>
<event>
 7    1  0.2972263E-013  0.7246177E+02  0.7816164E-02  0.1226707E+00
        -11   -1    0    0    0    0  0.00000000000E+00  0.00000000000E+00  0.45593999997E+02  0.45594000000E+02  0.51100000000E-03 0.  1.
         11   -1    0    0    0    0 -0.00000000000E+00 -0.00000000000E+00 -0.45593999997E+02  0.45594000000E+02  0.51100000000E-03 0. -1.
    9900012    2    1    2    0    0  0.55441536921E+00 -0.49944384868E+01  0.18039393867E+02  0.72461774452E+02  0.70000265952E+02 0.  0.
         12    1    1    2    0    0 -0.55441536921E+00  0.49944384868E+01 -0.18039393867E+02  0.18726225548E+02  0.00000000000E+00 0. -1.
         11    1    3    3    0    0 -0.16034170242E+02  0.57818891919E+01  0.16345044543E+01  0.17122980554E+02  0.51100000000E-03 0. -1.
        -11    1    3    3    0    0  0.14208264015E+02  0.10690110902E+02 -0.10645428642E+02  0.20723860370E+02  0.51100000000E-03 0.  1.
        -12    1    3    3    0    0  0.23803215962E+01 -0.21466438581E+02  0.27050318055E+02  0.34614933527E+02  0.00000000000E+00 0.  1.
</event>
<event>
 7    1  0.2972263E-013  0.7246157E+02  0.7816164E-02  0.1226708E+00
        -11   -1    0    0    0    0  0.00000000000E+00  0.00000000000E+00  0.45593999997E+02  0.45594000000E+02  0.51100000000E-03 0.  1.
         11   -1    0    0    0    0 -0.00000000000E+00 -0.00000000000E+00 -0.45593999997E+02  0.45594000000E+02  0.51100000000E-03 0. -1.
    9900012    2    1    2    0    0 -0.87380655609E+01 -0.16279105592E+02  0.30522419007E+01  0.72461568165E+02  0.69999997227E+02 0.  0.
         12    1    1    2    0    0  0.87380655609E+01  0.16279105592E+02 -0.30522419007E+01  0.18726431835E+02  0.00000000000E+00 0. -1.
         11    1    3    3    0    0  0.73446178013E+01  0.12393155315E+01  0.17077044047E+01  0.76416993024E+01  0.51100000000E-03 0. -1.
        -11    1    3    3    0    0 -0.21262167147E+02  0.13311645715E+02 -0.15319937934E+02  0.29393539460E+02  0.51100000000E-03 0.  1.
         12    1    3    3    0    0  0.51794837847E+01 -0.30830066839E+02  0.16664475430E+02  0.35426329403E+02  0.00000000000E+00 0. -1.
</event>
<event>
 7    1  0.2972263E-013  0.7246160E+02  0.7816164E-02  0.1226708E+00
        -11   -1    0    0    0    0  0.00000000000E+00  0.00000000000E+00  0.45593999997E+02  0.45594000000E+02  0.51100000000E-03 0. -1.
         11   -1    0    0    0    0 -0.00000000000E+00 -0.00000000000E+00 -0.45593999997E+02  0.45594000000E+02  0.51100000000E-03 0.  1.
    9900012    2    1    2    0    0 -0.18377159747E+02  0.27795875688E+01 -0.22873049654E+01  0.72461604954E+02  0.70000045150E+02 0.  0.
         12    1    1    2    0    0  0.18377159747E+02 -0.27795875688E+01  0.22873049654E+01  0.18726395046E+02  0.00000000000E+00 0. -1.
         11    1    3    3    0    0 -0.22580612718E+02 -0.18264382566E+02  0.92106417341E+01  0.30468141766E+02  0.51100000000E-03 0. -1.
        -11    1    3    3    0    0 -0.49883993899E+01  0.14272470242E+02 -0.21857567334E+02  0.26577072550E+02  0.51100000000E-03 0.  1.
        -12    1    3    3    0    0  0.91918523605E+01  0.67714998934E+01  0.10359620635E+02  0.15416390639E+02  0.00000000000E+00 0.  1.
</event>
<event>
 7    1  0.2972263E-013  0.7246138E+02  0.7816164E-02  0.1226709E+00
        -11   -1    0    0    0    0  0.00000000000E+00  0.00000000000E+00  0.45593999997E+02  0.45594000000E+02  0.51100000000E-03 0. -1.
         11   -1    0    0    0    0 -0.00000000000E+00 -0.00000000000E+00 -0.45593999997E+02  0.45594000000E+02  0.51100000000E-03 0.  1.
    9900012    2    1    2    0    0  0.73818450730E+01 -0.15863193342E+02  0.66748611348E+01  0.72461379620E+02  0.69999751610E+02 0.  0.
         12    1    1    2    0    0 -0.73818450730E+01  0.15863193342E+02 -0.66748611348E+01  0.18726620380E+02  0.00000000000E+00 0. -1.
         11    1    3    3    0    0 -0.98417283835E+00 -0.26857230671E+01  0.20125961986E+02  0.20328208251E+02  0.51100000000E-03 0. -1.
        -11    1    3    3    0    0  0.99460661696E+01  0.51217528130E+01  0.14728879161E+02  0.18495849960E+02  0.51100000000E-03 0.  1.
        -12    1    3    3    0    0 -0.15800482582E+01 -0.18299223088E+02 -0.28179980012E+02  0.33637321409E+02  0.00000000000E+00 0.  1.
</event>
<event>
 7    1  0.2972263E-013  0.7246198E+02  0.7816164E-02  0.1226707E+00
        -11   -1    0    0    0    0  0.00000000000E+00  0.00000000000E+00  0.45593999997E+02  0.45594000000E+02  0.51100000000E-03 0.  1.
         11   -1    0    0    0    0 -0.00000000000E+00 -0.00000000000E+00 -0.45593999997E+02  0.45594000000E+02  0.51100000000E-03 0. -1.
    9900012    2    1    2    0    0 -0.13912190572E+02 -0.18190265565E+00  0.12533221428E+02  0.72461981351E+02  0.70000535476E+02 0.  0.
         12    1    1    2    0    0  0.13912190572E+02  0.18190265565E+00 -0.12533221428E+02  0.18726018649E+02  0.00000000000E+00 0. -1.
         11    1    3    3    0    0 -0.12456330725E+02  0.12922056066E+02 -0.64768112475E-01  0.17948367705E+02  0.51100000000E-03 0. -1.
        -11    1    3    3    0    0 -0.25938166212E+02 -0.76325652360E+01  0.14921443259E+01  0.27078977334E+02  0.51100000000E-03 0.  1.
         12    1    3    3    0    0  0.24482306366E+02 -0.54713934852E+01  0.11105845214E+02  0.27434636312E+02  0.00000000000E+00 0. -1.
</event>
<event>
 7    1  0.2972263E-013  0.7246160E+02  0.7816164E-02  0.1226708E+00
        -11   -1    0    0    0    0  0.00000000000E+00  0.00000000000E+00  0.45593999997E+02  0.45594000000E+02  0.51100000000E-03 0.  1.
         11   -1    0    0    0    0 -0.00000000000E+00 -0.00000000000E+00 -0.45593999997E+02  0.45594000000E+02  0.51100000000E-03 0. -1.
    9900012    2    1    2    0    0 -0.14081173899E+02  0.81850393857E+01  0.92414184389E+01  0.72461597706E+02  0.70000035709E+02 0.  0.
         12    1    1    2    0    0  0.14081173899E+02 -0.81850393857E+01 -0.92414184389E+01  0.18726402294E+02  0.00000000000E+00 0. -1.
         11    1    3    3    0    0 -0.29844251370E+02  0.11254616350E+02 -0.90146664658E+01  0.33145285348E+02  0.51100000000E-03 0. -1.
        -11    1    3    3    0    0 -0.55684856304E-01  0.47317625232E+00 -0.82404794311E+01  0.82542412180E+01  0.51100000000E-03 0.  1.
        -12    1    3    3    0    0  0.15818762327E+02 -0.35427532170E+01  0.26496564336E+02  0.31062071140E+02  0.00000000000E+00 0.  1.
</event>
<event>
 7    1  0.2972263E-013  0.7246151E+02  0.7816164E-02  0.1226708E+00
        -11   -1    0    0    0    0  0.00000000000E+00  0.00000000000E+00  0.45593999997E+02  0.45594000000E+02  0.51100000000E-03 0. -1.
         11   -1    0    0    0    0 -0.00000000000E+00 -0.00000000000E+00 -0.45593999997E+02  0.45594000000E+02  0.51100000000E-03 0.  1.
    9900012    2    1    2    0    0 -0.10666305462E+02  0.53684793324E+01 -0.14425354903E+02  0.72461507893E+02  0.69999918711E+02 0.  0.
         12    1    1    2    0    0  0.10666305462E+02 -0.53684793324E+01  0.14425354903E+02  0.18726492107E+02  0.00000000000E+00 0. -1.
         11    1    3    3    0    0 -0.16893172536E+02 -0.44316229203E+01  0.30607804024E+01  0.17730959843E+02  0.51100000000E-03 0. -1.
        -11    1    3    3    0    0  0.10380903424E+01  0.26298069696E+02  0.45595406111E+01  0.26710588016E+02  0.51100000000E-03 0.  1.
         12    1    3    3    0    0  0.51887767313E+01 -0.16497967444E+02 -0.22045675916E+02  0.28019960034E+02  0.00000000000E+00 0. -1.
</event>
<event>
 7    1  0.2972263E-013  0.7246148E+02  0.7816164E-02  0.1226708E+00
        -11   -1    0    0    0    0  0.00000000000E+00  0.00000000000E+00  0.45593999997E+02  0.45594000000E+02  0.51100000000E-03 0. -1.
         11   -1    0    0    0    0 -0.00000000000E+00 -0.00000000000E+00 -0.45593999997E+02  0.45594000000E+02  0.51100000000E-03 0.  1.
    9900012    2    1    2    0    0 -0.74115760430E+00  0.16169260714E+02 -0.94174447819E+01  0.72461479425E+02  0.69999881625E+02 0.  0.
         12    1    1    2    0    0  0.74115760430E+00 -0.16169260714E+02  0.94174447819E+01  0.18726520575E+02  0.00000000000E+00 0. -1.
         11    1    3    3    0    0  0.11733100185E+01 -0.18243226226E+01 -0.12791017717E+01  0.25181165649E+01  0.51100000000E-03 0. -1.
        -11    1    3    3    0    0  0.32194684800E+02  0.10915401076E+02  0.70692399713E+00  0.34002109521E+02  0.51100000000E-03 0.  1.
         12    1    3    3    0    0 -0.34109152423E+02  0.70781822605E+01 -0.88452670074E+01  0.35941253339E+02  0.00000000000E+00 0. -1.
</event>
<event>
 7    1  0.2972263E-013  0.7246158E+02  0.7816164E-02  0.1226708E+00
        -11   -1    0    0    0    0  0.00000000000E+00  0.00000000000E+00  0.45593999997E+02  0.45594000000E+02  0.51100000000E-03 0. -1.
         11   -1    0    0    0    0 -0.00000000000E+00 -0.00000000000E+00 -0.45593999997E+02  0.45594000000E+02  0.51100000000E-03 0.  1.
    9900012    2    1    2    0    0 -0.10244481969E+02  0.12375378213E+02 -0.96218117274E+01  0.72461583961E+02  0.70000017804E+02 0.  0.
         12    1    1    2    0    0  0.10244481969E+02 -0.12375378213E+02  0.96218117274E+01  0.18726416039E+02  0.00000000000E+00 0. -1.
         11    1    3    3    0    0 -0.25929533811E+01  0.65117366043E+01 -0.90528606472E+01  0.11449035199E+02  0.51100000000E-03 0. -1.
        -11    1    3    3    0    0 -0.20222101940E+02  0.38238601688E+01 -0.25648652358E+02  0.32884778873E+02  0.51100000000E-03 0.  1.
         12    1    3    3    0    0  0.12570573352E+02  0.20397814401E+01  0.25079701278E+02  0.28127769889E+02  0.00000000000E+00 0. -1.
</event>
<event>
 7    1  0.2972263E-013  0.7246167E+02  0.7816164E-02  0.1226708E+00
        -11   -1    0    0    0    0  0.00000000000E+00  0.00000000000E+00  0.45593999997E+02  0.45594000000E+02  0.51100000000E-03 0.  1.
         11   -1    0    0    0    0 -0.00000000000E+00 -0.00000000000E+00 -0.45593999997E+02  0.45594000000E+02  0.51100000000E-03 0. -1.
    9900012    2    1    2    0    0 -0.12648151296E+02  0.59670200281E+01  0.12453685290E+02  0.72461672636E+02  0.70000133319E+02 0.  0.
         12    1    1    2    0    0  0.12648151296E+02 -0.59670200281E+01 -0.12453685290E+02  0.18726327364E+02  0.00000000000E+00 0. -1.
         11    1    3    3    0    0  0.35323112701E+01  0.15091073384E+02  0.16778983655E+02  0.22841891593E+02  0.51100000000E-03 0. -1.
        -11    1    3    3    0    0  0.89482234077E+01 -0.19679991435E+02  0.17686562492E+01  0.21691032945E+02  0.51100000000E-03 0.  1.
         12    1    3    3    0    0 -0.25128685974E+02  0.10555938079E+02 -0.60939546142E+01  0.27928748098E+02  0.00000000000E+00 0. -1.
</event>
<event>
 7    1  0.2972263E-013  0.7246158E+02  0.7816164E-02  0.1226708E+00
        -11   -1    0    0    0    0  0.00000000000E+00  0.00000000000E+00  0.45593999997E+02  0.45594000000E+02  0.51100000000E-03 0.  1.
         11   -1    0    0    0    0 -0.00000000000E+00 -0.00000000000E+00 -0.45593999997E+02  0.45594000000E+02  0.51100000000E-03 0. -1.
    9900012    2    1    2    0    0  0.12238080872E+02 -0.10907323578E+02 -0.90519934220E+01  0.72461577064E+02  0.70000008819E+02 0.  0.
         12    1    1    2    0    0 -0.12238080872E+02  0.10907323578E+02  0.90519934220E+01  0.18726422936E+02  0.00000000000E+00 0. -1.
         11    1    3    3    0    0  0.46574330093E+00  0.14620886542E+02  0.41533762559E+01  0.15206504355E+02  0.51100000000E-03 0. -1.
        -11    1    3    3    0    0 -0.93406134873E+01 -0.25419638177E+02  0.70634529299E+01  0.27987451348E+02  0.51100000000E-03 0.  1.
         12    1    3    3    0    0  0.21112951058E+02 -0.10857194265E+00 -0.20268822608E+02  0.29267621362E+02  0.00000000000E+00 0. -1.
</event>
<event>
 7    1  0.2972263E-013  0.7246149E+02  0.7816164E-02  0.1226708E+00
        -11   -1    0    0    0    0  0.00000000000E+00  0.00000000000E+00  0.45593999997E+02  0.45594000000E+02  0.51100000000E-03 0. -1.
         11   -1    0    0    0    0 -0.00000000000E+00 -0.00000000000E+00 -0.45593999997E+02  0.45594000000E+02  0.51100000000E-03 0.  1.
    9900012    2    1    2    0    0  0.48847593020E+01 -0.15336480789E+02 -0.95714944814E+01  0.72461494105E+02  0.69999900749E+02 0.  0.
         12    1    1    2    0    0 -0.48847593020E+01  0.15336480789E+02  0.95714944814E+01  0.18726505895E+02  0.00000000000E+00 0. -1.
         11    1    3    3    0    0 -0.42966972994E+01  0.44042169101E+01  0.10890749241E+02  0.12508683127E+02  0.51100000000E-03 0. -1.
        -11    1    3    3    0    0  0.76694983721E+01  0.13627655541E+02  0.65901399376E+01  0.16969506342E+02  0.51100000000E-03 0.  1.
         12    1    3    3    0    0  0.15119582293E+01 -0.33368353241E+02 -0.27052383660E+02  0.42983304636E+02  0.00000000000E+00 0. -1.
</event>
<event>
 7    1  0.2972263E-013  0.7246157E+02  0.7816164E-02  0.1226708E+00
        -11   -1    0    0    0    0  0.00000000000E+00  0.00000000000E+00  0.45593999997E+02  0.45594000000E+02  0.51100000000E-03 0.  1.
         11   -1    0    0    0    0 -0.00000000000E+00 -0.00000000000E+00 -0.45593999997E+02  0.45594000000E+02  0.51100000000E-03 0. -1.
    9900012    2    1    2    0    0  0.47937899535E+01  0.17267606380E+02 -0.54340079311E+01  0.72461572300E+02  0.70000002612E+02 0.  0.
         12    1    1    2    0    0 -0.47937899535E+01 -0.17267606380E+02  0.54340079311E+01  0.18726427700E+02  0.00000000000E+00 0. -1.
         11    1    3    3    0    0  0.26391211055E+01  0.13415487142E+00  0.12505223899E+01  0.29234849491E+01  0.51100000000E-03 0. -1.
        -11    1    3    3    0    0 -0.17997601999E+02 -0.77585772227E+01  0.19888594073E+02  0.27922488655E+02  0.51100000000E-03 0.  1.
         12    1    3    3    0    0  0.20152270847E+02  0.24892028732E+02 -0.26573124394E+02  0.41615598695E+02  0.00000000000E+00 0. -1.
</event>
<event>
 7    1  0.2972263E-013  0.7246134E+02  0.7816164E-02  0.1226709E+00
        -11   -1    0    0    0    0  0.00000000000E+00  0.00000000000E+00  0.45593999997E+02  0.45594000000E+02  0.51100000000E-03 0.  1.
         11   -1    0    0    0    0 -0.00000000000E+00 -0.00000000000E+00 -0.45593999997E+02  0.45594000000E+02  0.51100000000E-03 0. -1.
    9900012    2    1    2    0    0  0.33323758769E+01 -0.16505211034E+02  0.81951864713E+01  0.72461339818E+02  0.69999699762E+02 0.  0.
         12    1    1    2    0    0 -0.33323758769E+01  0.16505211034E+02 -0.81951864713E+01  0.18726660182E+02  0.00000000000E+00 0. -1.
         11    1    3    3    0    0  0.12780000236E+01 -0.76979593795E+00 -0.97483737150E+01  0.98618791412E+01  0.51100000000E-03 0. -1.
        -11    1    3    3    0    0  0.84711873965E+01  0.20517943967E+02  0.12223502634E+02  0.25340896935E+02  0.51100000000E-03 0.  1.
         12    1    3    3    0    0 -0.64168115433E+01 -0.36253359063E+02  0.57200575520E+01  0.37258563742E+02  0.00000000000E+00 0. -1.
</event>
<event>
 7    1  0.2972263E-013  0.7246173E+02  0.7816164E-02  0.1226708E+00
        -11   -1    0    0    0    0  0.00000000000E+00  0.00000000000E+00  0.45593999997E+02  0.45594000000E+02  0.51100000000E-03 0. -1.
         11   -1    0    0    0    0 -0.00000000000E+00 -0.00000000000E+00 -0.45593999997E+02  0.45594000000E+02  0.51100000000E-03 0.  1.
    9900012    2    1    2    0    0  0.14425975926E+02 -0.77030954563E+01 -0.91228588185E+01  0.72461734648E+02  0.70000214101E+02 0.  0.
         12    1    1    2    0    0 -0.14425975926E+02  0.77030954563E+01  0.91228588185E+01  0.18726265352E+02  0.00000000000E+00 0. -1.
         11    1    3    3    0    0  0.18733669178E+02  0.98106731017E+00  0.71539189250E+01  0.20077136504E+02  0.51100000000E-03 0. -1.
        -11    1    3    3    0    0 -0.24886785815E+02 -0.41318472253E+01  0.82735992945E+00  0.25241014132E+02  0.51100000000E-03 0.  1.
         12    1    3    3    0    0  0.20579092563E+02 -0.45523155412E+01 -0.17104137673E+02  0.27143584012E+02  0.00000000000E+00 0. -1.
</event>
<event>
 7    1  0.2972263E-013  0.7246147E+02  0.7816164E-02  0.1226708E+00
        -11   -1    0    0    0    0  0.00000000000E+00  0.00000000000E+00  0.45593999997E+02  0.45594000000E+02  0.51100000000E-03 0.  1.
         11   -1    0    0    0    0 -0.00000000000E+00 -0.00000000000E+00 -0.45593999997E+02  0.45594000000E+02  0.51100000000E-03 0. -1.
    9900012    2    1    2    0    0  0.42760836125E+01  0.22602877044E+01  0.18091135435E+02  0.72461468744E+02  0.69999867712E+02 0.  0.
         12    1    1    2    0    0 -0.42760836125E+01 -0.22602877044E+01 -0.18091135435E+02  0.18726531256E+02  0.00000000000E+00 0. -1.
         11    1    3    3    0    0 -0.77431597598E+01 -0.10590239019E+02 -0.63882404496E+01  0.14591754584E+02  0.51100000000E-03 0. -1.
        -11    1    3    3    0    0 -0.16720993356E+01  0.28352096679E+02  0.38554104978E+01  0.28661847335E+02  0.51100000000E-03 0.  1.
         12    1    3    3    0    0  0.13691342708E+02 -0.15501569955E+02  0.20623965386E+02  0.29207866825E+02  0.00000000000E+00 0. -1.
</event>
<event>
 7    1  0.2972263E-013  0.7246158E+02  0.7816164E-02  0.1226708E+00
        -11   -1    0    0    0    0  0.00000000000E+00  0.00000000000E+00  0.45593999997E+02  0.45594000000E+02  0.51100000000E-03 0.  1.
         11   -1    0    0    0    0 -0.00000000000E+00 -0.00000000000E+00 -0.45593999997E+02  0.45594000000E+02  0.51100000000E-03 0. -1.
    9900012    2    1    2    0    0 -0.87340358218E+01  0.16311310727E+02  0.28872807531E+01  0.72461584713E+02  0.70000018783E+02 0.  0.
         12    1    1    2    0    0  0.87340358218E+01 -0.16311310727E+02 -0.28872807531E+01  0.18726415287E+02  0.00000000000E+00 0. -1.
         11    1    3    3    0    0 -0.97426745734E+01  0.87129449816E+01 -0.22591267926E+02  0.26099818100E+02  0.51100000000E-03 0.  1.
        -11    1    3    3    0    0 -0.10778668406E+02  0.84032642449E+01 -0.42978104802E+01  0.14327097325E+02  0.51100000000E-03 0. -1.
        -12    1    3    3    0    0  0.11787307158E+02 -0.80489849978E+00  0.29776359159E+02  0.32034669288E+02  0.00000000000E+00 0.  1.
</event>
<event>
 7    1  0.2972263E-013  0.7246158E+02  0.7816164E-02  0.1226708E+00
        -11   -1    0    0    0    0  0.00000000000E+00  0.00000000000E+00  0.45593999997E+02  0.45594000000E+02  0.51100000000E-03 0. -1.
         11   -1    0    0    0    0 -0.00000000000E+00 -0.00000000000E+00 -0.45593999997E+02  0.45594000000E+02  0.51100000000E-03 0.  1.
    9900012    2    1    2    0    0 -0.16068128880E+02  0.39846781528E+01 -0.87530840490E+01  0.72461577329E+02  0.70000009164E+02 0.  0.
         12    1    1    2    0    0  0.16068128880E+02 -0.39846781528E+01  0.87530840490E+01  0.18726422671E+02  0.00000000000E+00 0. -1.
         11    1    3    3    0    0 -0.31293269339E+02  0.10878977639E+02  0.39999603208E+01  0.33370953586E+02  0.51100000000E-03 0. -1.
        -11    1    3    3    0    0  0.55699028472E+01 -0.72504625522E+01  0.10492507858E+02  0.13917102657E+02  0.51100000000E-03 0.  1.
        -12    1    3    3    0    0  0.96552376120E+01  0.35616306603E+00 -0.23245552228E+02  0.25173521086E+02  0.00000000000E+00 0.  1.
</event>
<event>
 7    1  0.2972263E-013  0.7246137E+02  0.7816164E-02  0.1226709E+00
        -11   -1    0    0    0    0  0.00000000000E+00  0.00000000000E+00  0.45593999997E+02  0.45594000000E+02  0.51100000000E-03 0. -1.
         11   -1    0    0    0    0 -0.00000000000E+00 -0.00000000000E+00 -0.45593999997E+02  0.45594000000E+02  0.51100000000E-03 0.  1.
    9900012    2    1    2    0    0 -0.13304887092E+02 -0.30917123432E-02  0.13178268582E+02  0.72461366749E+02  0.69999734844E+02 0.  0.
         12    1    1    2    0    0  0.13304887092E+02  0.30917123432E-02 -0.13178268582E+02  0.18726633251E+02  0.00000000000E+00 0. -1.
         11    1    3    3    0    0 -0.30196657684E+02 -0.32096225210E+01  0.21914663907E+02  0.37448528762E+02  0.51100000000E-03 0. -1.
        -11    1    3    3    0    0  0.13729560722E+02  0.26979919666E+01  0.92306167042E+01  0.16762585817E+02  0.51100000000E-03 0.  1.
        -12    1    3    3    0    0  0.31622098708E+01  0.50853884200E+00 -0.17967012029E+02  0.18250252170E+02  0.00000000000E+00 0.  1.
</event>
<event>
 7    1  0.2972263E-013  0.7246156E+02  0.7816164E-02  0.1226708E+00
        -11   -1    0    0    0    0  0.00000000000E+00  0.00000000000E+00  0.45593999997E+02  0.45594000000E+02  0.51100000000E-03 0.  1.
         11   -1    0    0    0    0 -0.00000000000E+00 -0.00000000000E+00 -0.45593999997E+02  0.45594000000E+02  0.51100000000E-03 0. -1.
    9900012    2    1    2    0    0  0.38671797460E+01  0.11415529095E+02  0.14332140454E+02  0.72461557901E+02  0.69999983855E+02 0.  0.
         12    1    1    2    0    0 -0.38671797460E+01 -0.11415529095E+02 -0.14332140454E+02  0.18726442099E+02  0.00000000000E+00 0. -1.
         11    1    3    3    0    0 -0.28258577050E+02  0.12265795458E+02 -0.44662298786E+01  0.31127867333E+02  0.51100000000E-03 0. -1.
        -11    1    3    3    0    0  0.13050098546E+01  0.50360046903E+01  0.43847943975E+01  0.68037354542E+01  0.51100000000E-03 0.  1.
        -12    1    3    3    0    0  0.30820746941E+02 -0.58862710532E+01  0.14413575935E+02  0.34529955114E+02  0.00000000000E+00 0.  1.
</event>
<event>
 7    1  0.2972263E-013  0.7246160E+02  0.7816164E-02  0.1226708E+00
        -11   -1    0    0    0    0  0.00000000000E+00  0.00000000000E+00  0.45593999997E+02  0.45594000000E+02  0.51100000000E-03 0.  1.
         11   -1    0    0    0    0 -0.00000000000E+00 -0.00000000000E+00 -0.45593999997E+02  0.45594000000E+02  0.51100000000E-03 0. -1.
    9900012    2    1    2    0    0 -0.10576969864E+02  0.77243437546E-01  0.15453147573E+02  0.72461600774E+02  0.70000039706E+02 0.  0.
         12    1    1    2    0    0  0.10576969864E+02 -0.77243437546E-01 -0.15453147573E+02  0.18726399226E+02  0.00000000000E+00 0. -1.
         11    1    3    3    0    0  0.13839604132E+02  0.24030693005E+01  0.53255869253E+01  0.15022358701E+02  0.51100000000E-03 0. -1.
        -11    1    3    3    0    0 -0.18452427479E+02 -0.45755801144E+01  0.30584790636E+02  0.36011906806E+02  0.51100000000E-03 0.  1.
         12    1    3    3    0    0 -0.59641465165E+01  0.22497542515E+01 -0.20457229988E+02  0.21427335267E+02  0.00000000000E+00 0. -1.
</event>
<event>
 7    1  0.2972263E-013  0.7246177E+02  0.7816164E-02  0.1226707E+00
        -11   -1    0    0    0    0  0.00000000000E+00  0.00000000000E+00  0.45593999997E+02  0.45594000000E+02  0.51100000000E-03 0. -1.
         11   -1    0    0    0    0 -0.00000000000E+00 -0.00000000000E+00 -0.45593999997E+02  0.45594000000E+02  0.51100000000E-03 0.  1.
    9900012    2    1    2    0    0  0.12045020073E+02 -0.13639697626E+02 -0.44212992361E+01  0.72461768483E+02  0.70000258177E+02 0.  0.
         12    1    1    2    0    0 -0.12045020073E+02  0.13639697626E+02  0.44212992361E+01  0.18726231517E+02  0.00000000000E+00 0. -1.
         11    1    3    3    0    0  0.12371668473E+02 -0.69912445591E+00 -0.65608938356E+00  0.12408763409E+02  0.51100000000E-03 0. -1.
        -11    1    3    3    0    0  0.16131248616E+02 -0.23926356176E+02 -0.19453153506E+02  0.34801047159E+02  0.51100000000E-03 0.  1.
        -12    1    3    3    0    0 -0.16457897016E+02  0.10985783006E+02  0.15687943654E+02  0.25251957915E+02  0.00000000000E+00 0.  1.
</event>
<event>
 7    1  0.2972263E-013  0.7246163E+02  0.7816164E-02  0.1226708E+00
        -11   -1    0    0    0    0  0.00000000000E+00  0.00000000000E+00  0.45593999997E+02  0.45594000000E+02  0.51100000000E-03 0. -1.
         11   -1    0    0    0    0 -0.00000000000E+00 -0.00000000000E+00 -0.45593999997E+02  0.45594000000E+02  0.51100000000E-03 0.  1.
    9900012    2    1    2    0    0  0.79051922012E+01 -0.66976812232E+01 -0.15598909787E+02  0.72461628647E+02  0.70000076016E+02 0.  0.
         12    1    1    2    0    0 -0.79051922012E+01  0.66976812232E+01  0.15598909787E+02  0.18726371353E+02  0.00000000000E+00 0. -1.
         11    1    3    3    0    0 -0.17738027891E+02 -0.12275953458E+01 -0.22894412843E+02  0.28987907194E+02  0.51100000000E-03 0. -1.
        -11    1    3    3    0    0 -0.51670807078E+01  0.14040506461E+01 -0.70056350932E+01  0.88175395989E+01  0.51100000000E-03 0.  1.
        -12    1    3    3    0    0  0.30810300800E+02 -0.68741365235E+01  0.14301138150E+02  0.34656181854E+02  0.00000000000E+00 0.  1.
</event>
<event>
 7    1  0.2972263E-013  0.7246153E+02  0.7816164E-02  0.1226708E+00
        -11   -1    0    0    0    0  0.00000000000E+00  0.00000000000E+00  0.45593999997E+02  0.45594000000E+02  0.51100000000E-03 0. -1.
         11   -1    0    0    0    0 -0.00000000000E+00 -0.00000000000E+00 -0.45593999997E+02  0.45594000000E+02  0.51100000000E-03 0.  1.
    9900012    2    1    2    0    0  0.16654352186E+02 -0.23710441987E+01 -0.82274663708E+01  0.72461534764E+02  0.69999953716E+02 0.  0.
         12    1    1    2    0    0 -0.16654352186E+02  0.23710441987E+01  0.82274663708E+01  0.18726465236E+02  0.00000000000E+00 0. -1.
         11    1    3    3    0    0 -0.94496873336E+01  0.13893336464E+01 -0.11902543444E+02  0.15260975702E+02  0.51100000000E-03 0. -1.
        -11    1    3    3    0    0  0.90839429400E+01 -0.20157829673E+02 -0.15303565702E+02  0.26889686497E+02  0.51100000000E-03 0.  1.
         12    1    3    3    0    0  0.17020096580E+02  0.16397451828E+02  0.18978642775E+02  0.30310872565E+02  0.00000000000E+00 0. -1.
</event>
<event>
 7    1  0.2972263E-013  0.7246154E+02  0.7816164E-02  0.1226708E+00
        -11   -1    0    0    0    0  0.00000000000E+00  0.00000000000E+00  0.45593999997E+02  0.45594000000E+02  0.51100000000E-03 0.  1.
         11   -1    0    0    0    0 -0.00000000000E+00 -0.00000000000E+00 -0.45593999997E+02  0.45594000000E+02  0.51100000000E-03 0. -1.
    9900012    2    1    2    0    0  0.46078640573E+01  0.14914656987E+02  0.10344130148E+02  0.72461536566E+02  0.69999956063E+02 0.  0.
         12    1    1    2    0    0 -0.46078640573E+01 -0.14914656987E+02 -0.10344130148E+02  0.18726463434E+02  0.00000000000E+00 0. -1.
         11    1    3    3    0    0 -0.33996467901E+01 -0.35725608202E+01  0.57061279663E+01  0.75419285159E+01  0.51100000000E-03 0. -1.
        -11    1    3    3    0    0 -0.12199325520E+02 -0.49099742302E+01  0.24758084822E+02  0.28033803780E+02  0.51100000000E-03 0.  1.
         12    1    3    3    0    0  0.20206836367E+02  0.23397192038E+02 -0.20120082641E+02  0.36885804270E+02  0.00000000000E+00 0. -1.
</event>
<event>
 7    1  0.2972263E-013  0.7246154E+02  0.7816164E-02  0.1226708E+00
        -11   -1    0    0    0    0  0.00000000000E+00  0.00000000000E+00  0.45593999997E+02  0.45594000000E+02  0.51100000000E-03 0.  1.
         11   -1    0    0    0    0 -0.00000000000E+00 -0.00000000000E+00 -0.45593999997E+02  0.45594000000E+02  0.51100000000E-03 0. -1.
    9900012    2    1    2    0    0  0.71854480740E+01  0.14690380882E+02 -0.91237312227E+01  0.72461536749E+02  0.69999956301E+02 0.  0.
         12    1    1    2    0    0 -0.71854480740E+01 -0.14690380882E+02  0.91237312227E+01  0.18726463251E+02  0.00000000000E+00 0. -1.
         11    1    3    3    0    0 -0.16616749645E+02  0.59244436544E+01  0.10739991504E+02  0.20653397279E+02  0.51100000000E-03 0. -1.
        -11    1    3    3    0    0  0.16117176404E+02 -0.82076804703E+00  0.10363526701E+02  0.19179148088E+02  0.51100000000E-03 0.  1.
         12    1    3    3    0    0  0.76850213152E+01  0.95867052742E+01 -0.30227249428E+02  0.32628991382E+02  0.00000000000E+00 0. -1.
</event>
<event>
 7    1  0.2972263E-013  0.7246155E+02  0.7816164E-02  0.1226708E+00
        -11   -1    0    0    0    0  0.00000000000E+00  0.00000000000E+00  0.45593999997E+02  0.45594000000E+02  0.51100000000E-03 0. -1.
         11   -1    0    0    0    0 -0.00000000000E+00 -0.00000000000E+00 -0.45593999997E+02  0.45594000000E+02  0.51100000000E-03 0.  1.
    9900012    2    1    2    0    0 -0.12466106303E+02 -0.63078648164E+01 -0.12469445310E+02  0.72461547287E+02  0.69999970028E+02 0.  0.
         12    1    1    2    0    0  0.12466106303E+02  0.63078648164E+01  0.12469445310E+02  0.18726452713E+02  0.00000000000E+00 0. -1.
         11    1    3    3    0    0 -0.11689751985E+02  0.19986208509E+02  0.52132455458E+01  0.23733452370E+02  0.51100000000E-03 0. -1.
        -11    1    3    3    0    0  0.95470173096E+01  0.61517677868E+01 -0.43178675421E+01  0.12150463645E+02  0.51100000000E-03 0.  1.
        -12    1    3    3    0    0 -0.10323371628E+02 -0.32445841112E+02 -0.13364823313E+02  0.36577631272E+02  0.00000000000E+00 0.  1.
</event>
<event>
 7    1  0.2972263E-013  0.7246122E+02  0.7816164E-02  0.1226709E+00
        -11   -1    0    0    0    0  0.00000000000E+00  0.00000000000E+00  0.45593999997E+02  0.45594000000E+02  0.51100000000E-03 0.  1.
         11   -1    0    0    0    0 -0.00000000000E+00 -0.00000000000E+00 -0.45593999997E+02  0.45594000000E+02  0.51100000000E-03 0. -1.
    9900012    2    1    2    0    0 -0.55500170454E+01  0.83463733678E+01  0.15818590041E+02  0.72461216281E+02  0.69999538830E+02 0.  0.
         12    1    1    2    0    0  0.55500170454E+01 -0.83463733678E+01 -0.15818590041E+02  0.18726783719E+02  0.00000000000E+00 0. -1.
         11    1    3    3    0    0  0.21443440956E+01  0.82697470055E+01 -0.13413078332E+02  0.15902754407E+02  0.51100000000E-03 0. -1.
        -11    1    3    3    0    0  0.16476814069E+02 -0.65675548051E+01 -0.40478349987E+00  0.17742097619E+02  0.51100000000E-03 0.  1.
        -12    1    3    3    0    0 -0.24171175210E+02  0.66441811674E+01  0.29636451872E+02  0.38816364255E+02  0.00000000000E+00 0.  1.
</event>
<event>
 7    1  0.2972263E-013  0.7246142E+02  0.7816164E-02  0.1226708E+00
        -11   -1    0    0    0    0  0.00000000000E+00  0.00000000000E+00  0.45593999997E+02  0.45594000000E+02  0.51100000000E-03 0.  1.
         11   -1    0    0    0    0 -0.00000000000E+00 -0.00000000000E+00 -0.45593999997E+02  0.45594000000E+02  0.51100000000E-03 0. -1.
    9900012    2    1    2    0    0  0.70880755297E+01  0.17333265240E+02 -0.43821072610E-01  0.72461419456E+02  0.69999803504E+02 0.  0.
         12    1    1    2    0    0 -0.70880755297E+01 -0.17333265240E+02  0.43821072610E-01  0.18726580544E+02  0.00000000000E+00 0. -1.
         11    1    3    3    0    0  0.79361525400E+01  0.61653540521E+01  0.18299568752E+02  0.20877459723E+02  0.51100000000E-03 0.  1.
        -11    1    3    3    0    0  0.19517706973E+02 -0.33424161236E+01 -0.17715553828E+02  0.26569785071E+02  0.51100000000E-03 0. -1.
         12    1    3    3    0    0 -0.20365783984E+02  0.14510327312E+02 -0.62783599573E+00  0.25014174661E+02  0.00000000000E+00 0. -1.
</event>
<event>
 7    1  0.2972263E-013  0.7246138E+02  0.7816164E-02  0.1226709E+00
        -11   -1    0    0    0    0  0.00000000000E+00  0.00000000000E+00  0.45593999997E+02  0.45594000000E+02  0.51100000000E-03 0.  1.
         11   -1    0    0    0    0 -0.00000000000E+00 -0.00000000000E+00 -0.45593999997E+02  0.45594000000E+02  0.51100000000E-03 0. -1.
    9900012    2    1    2    0    0  0.18470445955E+02 -0.29026644550E+01  0.10504314818E+01  0.72461381484E+02  0.69999754040E+02 0.  0.
         12    1    1    2    0    0 -0.18470445955E+02  0.29026644550E+01 -0.10504314818E+01  0.18726618516E+02  0.00000000000E+00 0. -1.
         11    1    3    3    0    0 -0.14159929893E+02 -0.31091140945E+00 -0.11905808914E+02  0.18502663771E+02  0.51100000000E-03 0. -1.
        -11    1    3    3    0    0 -0.23435484128E+01 -0.90338631824E+01 -0.83324902848E+01  0.12511326779E+02  0.51100000000E-03 0.  1.
        -12    1    3    3    0    0  0.34973924261E+02  0.64421101368E+01  0.21288730680E+02  0.41447390934E+02  0.00000000000E+00 0.  1.
</event>
<event>
 7    1  0.2972263E-013  0.7246229E+02  0.7816164E-02  0.1226706E+00
        -11   -1    0    0    0    0  0.00000000000E+00  0.00000000000E+00  0.45593999997E+02  0.45594000000E+02  0.51100000000E-03 0. -1.
         11   -1    0    0    0    0 -0.00000000000E+00 -0.00000000000E+00 -0.45593999997E+02  0.45594000000E+02  0.51100000000E-03 0.  1.
    9900012    2    1    2    0    0  0.15381295967E+02  0.48499732105E+01 -0.95155500696E+01  0.72462290430E+02  0.70000938104E+02 0.  0.
         12    1    1    2    0    0 -0.15381295967E+02 -0.48499732105E+01  0.95155500696E+01  0.18725709570E+02  0.00000000000E+00 0. -1.
         11    1    3    3    0    0  0.34639597301E+02  0.14882593798E+02  0.13731163601E+02  0.40124034611E+02  0.51100000000E-03 0. -1.
        -11    1    3    3    0    0 -0.75572908611E+01 -0.68105763970E+01 -0.12594335964E+02  0.16189931891E+02  0.51100000000E-03 0.  1.
        -12    1    3    3    0    0 -0.11701010473E+02 -0.32220441903E+01 -0.10652377707E+02  0.16148323928E+02  0.00000000000E+00 0.  1.
</event>
<event>
 7    1  0.2972263E-013  0.7246160E+02  0.7816164E-02  0.1226708E+00
        -11   -1    0    0    0    0  0.00000000000E+00  0.00000000000E+00  0.45593999997E+02  0.45594000000E+02  0.51100000000E-03 0. -1.
         11   -1    0    0    0    0 -0.00000000000E+00 -0.00000000000E+00 -0.45593999997E+02  0.45594000000E+02  0.51100000000E-03 0.  1.
    9900012    2    1    2    0    0  0.15892529863E+02 -0.30653734337E+01 -0.94185380263E+01  0.72461604770E+02  0.70000044912E+02 0.  0.
         12    1    1    2    0    0 -0.15892529863E+02  0.30653734337E+01  0.94185380263E+01  0.18726395230E+02  0.00000000000E+00 0. -1.
         11    1    3    3    0    0  0.63074572442E+01  0.76563136084E+01  0.28579823373E+02  0.30252428981E+02  0.51100000000E-03 0. -1.
        -11    1    3    3    0    0 -0.89083143188E+00  0.13501150348E+01 -0.98922552525E+00  0.18960376178E+01  0.51100000000E-03 0.  1.
        -12    1    3    3    0    0  0.10475904051E+02 -0.12071802077E+02 -0.37009135874E+02  0.40313138171E+02  0.00000000000E+00 0.  1.
</event>
<event>
 7    1  0.2972263E-013  0.7246161E+02  0.7816164E-02  0.1226708E+00
        -11   -1    0    0    0    0  0.00000000000E+00  0.00000000000E+00  0.45593999997E+02  0.45594000000E+02  0.51100000000E-03 0. -1.
         11   -1    0    0    0    0 -0.00000000000E+00 -0.00000000000E+00 -0.45593999997E+02  0.45594000000E+02  0.51100000000E-03 0.  1.
    9900012    2    1    2    0    0  0.95193339185E+01  0.41865669912E+01 -0.15573453683E+02  0.72461614309E+02  0.70000057338E+02 0.  0.
         12    1    1    2    0    0 -0.95193339185E+01 -0.41865669912E+01  0.15573453683E+02  0.18726385691E+02  0.00000000000E+00 0. -1.
         11    1    3    3    0    0  0.85940220058E+01 -0.52184734736E+01 -0.84073427315E+01  0.13106223396E+02  0.51100000000E-03 0. -1.
        -11    1    3    3    0    0 -0.73632752045E+01 -0.52468017913E+01 -0.29803618880E+02  0.31144862327E+02  0.51100000000E-03 0.  1.
         12    1    3    3    0    0  0.82885871172E+01  0.14651842256E+02  0.22637507929E+02  0.28210528586E+02  0.00000000000E+00 0. -1.
</event>
<event>
 7    1  0.2972263E-013  0.7246156E+02  0.7816164E-02  0.1226708E+00
        -11   -1    0    0    0    0  0.00000000000E+00  0.00000000000E+00  0.45593999997E+02  0.45594000000E+02  0.51100000000E-03 0.  1.
         11   -1    0    0    0    0 -0.00000000000E+00 -0.00000000000E+00 -0.45593999997E+02  0.45594000000E+02  0.51100000000E-03 0. -1.
    9900012    2    1    2    0    0 -0.17912254500E+02 -0.39017963327E+01  0.38218846434E+01  0.72461556715E+02  0.69999982310E+02 0.  0.
         12    1    1    2    0    0  0.17912254500E+02  0.39017963327E+01 -0.38218846434E+01  0.18726443285E+02  0.00000000000E+00 0. -1.
         11    1    3    3    0    0  0.19728492547E+02 -0.66906480836E+01  0.13311928123E+02  0.24722168605E+02  0.51100000000E-03 0. -1.
        -11    1    3    3    0    0  0.66057197877E+00 -0.70706483223E+01 -0.15726886511E+00  0.71031793441E+01  0.51100000000E-03 0.  1.
        -12    1    3    3    0    0 -0.38301319026E+02  0.98595000732E+01 -0.93327746141E+01  0.40636208765E+02  0.00000000000E+00 0.  1.
</event>
<event>
 7    1  0.2972263E-013  0.7246161E+02  0.7816164E-02  0.1226708E+00
        -11   -1    0    0    0    0  0.00000000000E+00  0.00000000000E+00  0.45593999997E+02  0.45594000000E+02  0.51100000000E-03 0. -1.
         11   -1    0    0    0    0 -0.00000000000E+00 -0.00000000000E+00 -0.45593999997E+02  0.45594000000E+02  0.51100000000E-03 0.  1.
    9900012    2    1    2    0    0  0.69571258633E+01 -0.11874468044E+02 -0.12699338280E+02  0.72461607279E+02  0.70000048179E+02 0.  0.
         12    1    1    2    0    0 -0.69571258633E+01  0.11874468044E+02  0.12699338280E+02  0.18726392721E+02  0.00000000000E+00 0. -1.
         11    1    3    3    0    0 -0.73098407003E+01 -0.87375005879E+00 -0.41836770693E+01  0.84676067640E+01  0.51100000000E-03 0. -1.
        -11    1    3    3    0    0 -0.10615342638E+02  0.18133597706E+02 -0.14058442793E+02  0.25281469085E+02  0.51100000000E-03 0.  1.
         12    1    3    3    0    0  0.24882309202E+02 -0.29134315691E+02  0.55427815818E+01  0.38712531429E+02  0.00000000000E+00 0. -1.
</event>
<event>
 7    1  0.2972263E-013  0.7246158E+02  0.7816164E-02  0.1226708E+00
        -11   -1    0    0    0    0  0.00000000000E+00  0.00000000000E+00  0.45593999997E+02  0.45594000000E+02  0.51100000000E-03 0. -1.
         11   -1    0    0    0    0 -0.00000000000E+00 -0.00000000000E+00 -0.45593999997E+02  0.45594000000E+02  0.51100000000E-03 0.  1.
    9900012    2    1    2    0    0  0.10752422007E+02 -0.14471764139E+02 -0.50628273347E+01  0.72461581311E+02  0.70000014351E+02 0.  0.
         12    1    1    2    0    0 -0.10752422007E+02  0.14471764139E+02  0.50628273347E+01  0.18726418689E+02  0.00000000000E+00 0. -1.
         11    1    3    3    0    0  0.44721978773E+01  0.55668098901E+01  0.15598471307E+02  0.17155239246E+02  0.51100000000E-03 0. -1.
        -11    1    3    3    0    0  0.57219468557E+01  0.43772663076E+01  0.12317257228E+02  0.14269406505E+02  0.51100000000E-03 0.  1.
         12    1    3    3    0    0  0.55827727442E+00 -0.24415840336E+02 -0.32978555869E+02  0.41036935559E+02  0.00000000000E+00 0. -1.
</event>
<event>
 7    1  0.2972263E-013  0.7246161E+02  0.7816164E-02  0.1226708E+00
        -11   -1    0    0    0    0  0.00000000000E+00  0.00000000000E+00  0.45593999997E+02  0.45594000000E+02  0.51100000000E-03 0. -1.
         11   -1    0    0    0    0 -0.00000000000E+00 -0.00000000000E+00 -0.45593999997E+02  0.45594000000E+02  0.51100000000E-03 0.  1.
    9900012    2    1    2    0    0  0.16053118734E+02  0.93953346592E+01 -0.21686101999E+01  0.72461606737E+02  0.70000047474E+02 0.  0.
         12    1    1    2    0    0 -0.16053118734E+02 -0.93953346592E+01  0.21686101999E+01  0.18726393263E+02  0.00000000000E+00 0. -1.
         11    1    3    3    0    0 -0.26436645952E+01  0.20559351976E+01  0.61401782102E+01  0.69941132921E+01  0.51100000000E-03 0. -1.
        -11    1    3    3    0    0 -0.93973061890E+01  0.28045141029E+02  0.61891694600E-01  0.29577747206E+02  0.51100000000E-03 0.  1.
         12    1    3    3    0    0  0.28094089518E+02 -0.20705741567E+02 -0.83706801047E+01  0.35889746239E+02  0.00000000000E+00 0. -1.
</event>
<event>
 7    1  0.2972263E-013  0.7246158E+02  0.7816164E-02  0.1226708E+00
        -11   -1    0    0    0    0  0.00000000000E+00  0.00000000000E+00  0.45593999997E+02  0.45594000000E+02  0.51100000000E-03 0.  1.
         11   -1    0    0    0    0 -0.00000000000E+00 -0.00000000000E+00 -0.45593999997E+02  0.45594000000E+02  0.51100000000E-03 0. -1.
    9900012    2    1    2    0    0 -0.86924041616E+01  0.15914978665E+02 -0.46727389131E+01  0.72461576824E+02  0.70000008506E+02 0.  0.
         12    1    1    2    0    0  0.86924041616E+01 -0.15914978665E+02  0.46727389131E+01  0.18726423176E+02  0.00000000000E+00 0. -1.
         11    1    3    3    0    0 -0.66494374765E+01 -0.68163658227E+01 -0.12391785296E+02  0.15627994269E+02  0.51100000000E-03 0. -1.
        -11    1    3    3    0    0 -0.48539684153E+00 -0.15971863025E+02  0.84833139188E+01  0.18091507231E+02  0.51100000000E-03 0.  1.
        -12    1    3    3    0    0 -0.15575698436E+01  0.38703207513E+02 -0.76426753605E+00  0.38742075324E+02  0.00000000000E+00 0.  1.
</event>
<event>
 7    1  0.2972263E-013  0.7246158E+02  0.7816164E-02  0.1226708E+00
        -11   -1    0    0    0    0  0.00000000000E+00  0.00000000000E+00  0.45593999997E+02  0.45594000000E+02  0.51100000000E-03 0. -1.
         11   -1    0    0    0    0 -0.00000000000E+00 -0.00000000000E+00 -0.45593999997E+02  0.45594000000E+02  0.51100000000E-03 0.  1.
    9900012    2    1    2    0    0  0.13552843939E+02  0.51047333288E+01 -0.11871859153E+02  0.72461576932E+02  0.70000008646E+02 0.  0.
         12    1    1    2    0    0 -0.13552843939E+02 -0.51047333288E+01  0.11871859153E+02  0.18726423068E+02  0.00000000000E+00 0. -1.
         11    1    3    3    0    0  0.81535160822E+01 -0.55940942262E+01 -0.12371778522E+02  0.15837759272E+02  0.51100000000E-03 0. -1.
        -11    1    3    3    0    0 -0.57698876491E+01 -0.10420006074E+02 -0.21221039572E+02  0.24335173121E+02  0.51100000000E-03 0.  1.
         12    1    3    3    0    0  0.11169215506E+02  0.21118833629E+02  0.21720958940E+02  0.32288644538E+02  0.00000000000E+00 0. -1.
</event>
<event>
 7    1  0.2972263E-013  0.7246152E+02  0.7816164E-02  0.1226708E+00
        -11   -1    0    0    0    0  0.00000000000E+00  0.00000000000E+00  0.45593999997E+02  0.45594000000E+02  0.51100000000E-03 0.  1.
         11   -1    0    0    0    0 -0.00000000000E+00 -0.00000000000E+00 -0.45593999997E+02  0.45594000000E+02  0.51100000000E-03 0. -1.
    9900012    2    1    2    0    0  0.34929071321E+01  0.40077921240E+01  0.17956009744E+02  0.72461519180E+02  0.69999933415E+02 0.  0.
         12    1    1    2    0    0 -0.34929071321E+01 -0.40077921240E+01 -0.17956009744E+02  0.18726480820E+02  0.00000000000E+00 0. -1.
         11    1    3    3    0    0 -0.78996644017E+01  0.11599915182E+02 -0.11483054134E+02  0.18133484563E+02  0.51100000000E-03 0. -1.
        -11    1    3    3    0    0 -0.91214130522E+01  0.11437559669E+02  0.13683048462E+01  0.14693202702E+02  0.51100000000E-03 0.  1.
        -12    1    3    3    0    0  0.20513984586E+02 -0.19029682727E+02  0.28070759032E+02  0.39634831915E+02  0.00000000000E+00 0.  1.
</event>
<event>
 7    1  0.2972263E-013  0.7246106E+02  0.7816164E-02  0.1226709E+00
        -11   -1    0    0    0    0  0.00000000000E+00  0.00000000000E+00  0.45593999997E+02  0.45594000000E+02  0.51100000000E-03 0.  1.
         11   -1    0    0    0    0 -0.00000000000E+00 -0.00000000000E+00 -0.45593999997E+02  0.45594000000E+02  0.51100000000E-03 0. -1.
    9900012    2    1    2    0    0 -0.14434908889E+02 -0.10590507273E+02  0.54929724150E+01  0.72461062587E+02  0.69999338614E+02 0.  0.
         12    1    1    2    0    0  0.14434908889E+02  0.10590507273E+02 -0.54929724150E+01  0.18726937413E+02  0.00000000000E+00 0. -1.
         11    1    3    3    0    0 -0.17669666732E+02 -0.16196697291E+01 -0.65238696763E+00  0.17755733200E+02  0.51100000000E-03 0. -1.
        -11    1    3    3    0    0 -0.23063635873E+02 -0.11571705717E+02  0.10617663922E+02  0.27902875484E+02  0.51100000000E-03 0.  1.
         12    1    3    3    0    0  0.26298393716E+02  0.26008681732E+01 -0.44723045395E+01  0.26802453902E+02  0.00000000000E+00 0. -1.
</event>
<event>
 7    1  0.2972263E-013  0.7246154E+02  0.7816164E-02  0.1226708E+00
        -11   -1    0    0    0    0  0.00000000000E+00  0.00000000000E+00  0.45593999997E+02  0.45594000000E+02  0.51100000000E-03 0.  1.
         11   -1    0    0    0    0 -0.00000000000E+00 -0.00000000000E+00 -0.45593999997E+02  0.45594000000E+02  0.51100000000E-03 0. -1.
    9900012    2    1    2    0    0  0.81524238406E+01  0.98795806913E+01  0.13660609150E+02  0.72461538202E+02  0.69999958194E+02 0.  0.
         12    1    1    2    0    0 -0.81524238406E+01 -0.98795806913E+01 -0.13660609150E+02  0.18726461798E+02  0.00000000000E+00 0. -1.
         11    1    3    3    0    0 -0.52238901769E+01  0.62856855983E+01 -0.79454805673E+01  0.11398663682E+02  0.51100000000E-03 0. -1.
        -11    1    3    3    0    0  0.27539966055E+02  0.10278940121E+02 -0.53581620885E+01  0.29880030816E+02  0.51100000000E-03 0.  1.
        -12    1    3    3    0    0 -0.14163652037E+02 -0.66850450276E+01  0.26964251806E+02  0.31182843705E+02  0.00000000000E+00 0.  1.
</event>
<event>
 7    1  0.2972263E-013  0.7246155E+02  0.7816164E-02  0.1226708E+00
        -11   -1    0    0    0    0  0.00000000000E+00  0.00000000000E+00  0.45593999997E+02  0.45594000000E+02  0.51100000000E-03 0.  1.
         11   -1    0    0    0    0 -0.00000000000E+00 -0.00000000000E+00 -0.45593999997E+02  0.45594000000E+02  0.51100000000E-03 0. -1.
    9900012    2    1    2    0    0 -0.17274949695E+01 -0.12521488455E+02  0.13816942146E+02  0.72461553400E+02  0.69999977992E+02 0.  0.
         12    1    1    2    0    0  0.17274949695E+01  0.12521488455E+02 -0.13816942146E+02  0.18726446600E+02  0.00000000000E+00 0. -1.
         11    1    3    3    0    0 -0.21327313021E+02  0.41536463866E+01  0.35486388057E+01  0.22015900995E+02  0.51100000000E-03 0. -1.
        -11    1    3    3    0    0 -0.91759923494E+01 -0.18988532245E+01  0.15067631810E+02  0.17743675149E+02  0.51100000000E-03 0.  1.
        -12    1    3    3    0    0  0.28775810401E+02 -0.14776281617E+02 -0.47993284693E+01  0.32701977256E+02  0.00000000000E+00 0.  1.
</event>
<event>
 7    1  0.2972263E-013  0.7246155E+02  0.7816164E-02  0.1226708E+00
        -11   -1    0    0    0    0  0.00000000000E+00  0.00000000000E+00  0.45593999997E+02  0.45594000000E+02  0.51100000000E-03 0.  1.
         11   -1    0    0    0    0 -0.00000000000E+00 -0.00000000000E+00 -0.45593999997E+02  0.45594000000E+02  0.51100000000E-03 0. -1.
    9900012    2    1    2    0    0 -0.23762469064E+01 -0.18307540982E+02  0.31412554461E+01  0.72461545665E+02  0.69999967916E+02 0.  0.
         12    1    1    2    0    0  0.23762469064E+01  0.18307540982E+02 -0.31412554461E+01  0.18726454335E+02  0.00000000000E+00 0. -1.
         11    1    3    3    0    0 -0.11184020486E+02  0.69749908380E+01 -0.19913055537E+02  0.23880171535E+02  0.51100000000E-03 0. -1.
        -11    1    3    3    0    0  0.20236032891E+01  0.34114251042E+01 -0.59961743272E+01  0.71893600784E+01  0.51100000000E-03 0.  1.
        -12    1    3    3    0    0  0.67841702907E+01 -0.28693956924E+02  0.29050485311E+02  0.41392014052E+02  0.00000000000E+00 0.  1.
</event>
<event>
 7    1  0.2972263E-013  0.7246141E+02  0.7816164E-02  0.1226708E+00
        -11   -1    0    0    0    0  0.00000000000E+00  0.00000000000E+00  0.45593999997E+02  0.45594000000E+02  0.51100000000E-03 0.  1.
         11   -1    0    0    0    0 -0.00000000000E+00 -0.00000000000E+00 -0.45593999997E+02  0.45594000000E+02  0.51100000000E-03 0. -1.
    9900012    2    1    2    0    0 -0.20808417062E+00 -0.13892300768E+02  0.12555710112E+02  0.72461409919E+02  0.69999791081E+02 0.  0.
         12    1    1    2    0    0  0.20808417062E+00  0.13892300768E+02 -0.12555710112E+02  0.18726590081E+02  0.00000000000E+00 0. -1.
         11    1    3    3    0    0  0.22853542270E+02  0.85874550237E+01  0.23797893844E+01  0.24529414503E+02  0.51100000000E-03 0. -1.
        -11    1    3    3    0    0  0.46165325151E+01 -0.32689317809E+01 -0.78853174004E+01  0.97044586772E+01  0.51100000000E-03 0.  1.
        -12    1    3    3    0    0 -0.27678158956E+02 -0.19210824011E+02  0.18061238128E+02  0.38227536739E+02  0.00000000000E+00 0.  1.
</event>
<event>
 7    1  0.2972263E-013  0.7246154E+02  0.7816164E-02  0.1226708E+00
        -11   -1    0    0    0    0  0.00000000000E+00  0.00000000000E+00  0.45593999997E+02  0.45594000000E+02  0.51100000000E-03 0.  1.
         11   -1    0    0    0    0 -0.00000000000E+00 -0.00000000000E+00 -0.45593999997E+02  0.45594000000E+02  0.51100000000E-03 0. -1.
    9900012    2    1    2    0    0  0.10680979755E+01 -0.45553368014E+01  0.18132519470E+02  0.72461543074E+02  0.69999964541E+02 0.  0.
         12    1    1    2    0    0 -0.10680979755E+01  0.45553368014E+01 -0.18132519470E+02  0.18726456926E+02  0.00000000000E+00 0. -1.
         11    1    3    3    0    0 -0.31613638508E+01 -0.15344957518E+02  0.23340678128E+01  0.15840133063E+02  0.51100000000E-03 0. -1.
        -11    1    3    3    0    0  0.78479888014E+01  0.77185446297E+01  0.35078892382E+02  0.36765412420E+02  0.51100000000E-03 0.  1.
        -12    1    3    3    0    0 -0.36185269751E+01  0.30710760871E+01 -0.19280440725E+02  0.19855997591E+02  0.00000000000E+00 0.  1.
</event>
<event>
 7    1  0.2972263E-013  0.7246151E+02  0.7816164E-02  0.1226708E+00
        -11   -1    0    0    0    0  0.00000000000E+00  0.00000000000E+00  0.45593999997E+02  0.45594000000E+02  0.51100000000E-03 0.  1.
         11   -1    0    0    0    0 -0.00000000000E+00 -0.00000000000E+00 -0.45593999997E+02  0.45594000000E+02  0.51100000000E-03 0. -1.
    9900012    2    1    2    0    0  0.11263294654E+02  0.66826322221E+00  0.14945670790E+02  0.72461509204E+02  0.69999920418E+02 0.  0.
         12    1    1    2    0    0 -0.11263294654E+02 -0.66826322221E+00 -0.14945670790E+02  0.18726490796E+02  0.00000000000E+00 0. -1.
         11    1    3    3    0    0  0.13864822117E+02  0.28874310744E+01 -0.61128683699E+01  0.15425229675E+02  0.51100000000E-03 0. -1.
        -11    1    3    3    0    0 -0.54914317572E+00  0.15510077791E+02 -0.11899074935E+02  0.19556381462E+02  0.51100000000E-03 0.  1.
        -12    1    3    3    0    0 -0.20523842877E+01 -0.17729245643E+02  0.32957614094E+02  0.37479898067E+02  0.00000000000E+00 0.  1.
</event>
<event>
 7    1  0.2972263E-013  0.7246153E+02  0.7816164E-02  0.1226708E+00
        -11   -1    0    0    0    0  0.00000000000E+00  0.00000000000E+00  0.45593999997E+02  0.45594000000E+02  0.51100000000E-03 0. -1.
         11   -1    0    0    0    0 -0.00000000000E+00 -0.00000000000E+00 -0.45593999997E+02  0.45594000000E+02  0.51100000000E-03 0.  1.
    9900012    2    1    2    0    0 -0.16930060543E+00  0.15136034280E+02 -0.11025079551E+02  0.72461532753E+02  0.69999951096E+02 0.  0.
         12    1    1    2    0    0  0.16930060543E+00 -0.15136034280E+02  0.11025079551E+02  0.18726467247E+02  0.00000000000E+00 0. -1.
         11    1    3    3    0    0 -0.15577196466E+00  0.12359415699E+02 -0.57799744582E+00  0.12373904098E+02  0.51100000000E-03 0. -1.
        -11    1    3    3    0    0  0.25936621924E+02 -0.11188912062E+02  0.15038731172E+01  0.28287130370E+02  0.51100000000E-03 0.  1.
         12    1    3    3    0    0 -0.25950150565E+02  0.13965530643E+02 -0.11950955222E+02  0.31800498285E+02  0.00000000000E+00 0. -1.
</event>
<event>
 7    1  0.2972263E-013  0.7246162E+02  0.7816164E-02  0.1226708E+00
        -11   -1    0    0    0    0  0.00000000000E+00  0.00000000000E+00  0.45593999997E+02  0.45594000000E+02  0.51100000000E-03 0. -1.
         11   -1    0    0    0    0 -0.00000000000E+00 -0.00000000000E+00 -0.45593999997E+02  0.45594000000E+02  0.51100000000E-03 0.  1.
    9900012    2    1    2    0    0  0.64708242870E+01  0.52729065967E+00 -0.17564951754E+02  0.72461624683E+02  0.70000070851E+02 0.  0.
         12    1    1    2    0    0 -0.64708242870E+01 -0.52729065967E+00  0.17564951754E+02  0.18726375317E+02  0.00000000000E+00 0. -1.
         11    1    3    3    0    0 -0.19990685986E+00  0.67041570896E+01 -0.12282789897E+02  0.13994735187E+02  0.51100000000E-03 0. -1.
        -11    1    3    3    0    0  0.13177103986E+02  0.20437045763E+00 -0.29652035859E+02  0.32448745239E+02  0.51100000000E-03 0.  1.
         12    1    3    3    0    0 -0.65063728392E+01 -0.63812368875E+01  0.24369874002E+02  0.26018144257E+02  0.00000000000E+00 0. -1.
</event>
<event>
 7    1  0.2972263E-013  0.7246155E+02  0.7816164E-02  0.1226708E+00
        -11   -1    0    0    0    0  0.00000000000E+00  0.00000000000E+00  0.45593999997E+02  0.45594000000E+02  0.51100000000E-03 0.  1.
         11   -1    0    0    0    0 -0.00000000000E+00 -0.00000000000E+00 -0.45593999997E+02  0.45594000000E+02  0.51100000000E-03 0. -1.
    9900012    2    1    2    0    0  0.12029860689E+02  0.17951297686E+01  0.14238670370E+02  0.72461554182E+02  0.69999979010E+02 0.  0.
         12    1    1    2    0    0 -0.12029860689E+02 -0.17951297686E+01 -0.14238670370E+02  0.18726445818E+02  0.00000000000E+00 0. -1.
         11    1    3    3    0    0 -0.41809083409E+01  0.26915510504E+01  0.33252173388E+01  0.59817649756E+01  0.51100000000E-03 0. -1.
        -11    1    3    3    0    0  0.10105896232E+01 -0.27038885953E+01  0.36526949109E+02  0.36640828544E+02  0.51100000000E-03 0.  1.
         12    1    3    3    0    0  0.15200179407E+02  0.18074673135E+01 -0.25613496078E+02  0.29838960662E+02  0.00000000000E+00 0. -1.
</event>
<event>
 7    1  0.2972263E-013  0.7246159E+02  0.7816164E-02  0.1226708E+00
        -11   -1    0    0    0    0  0.00000000000E+00  0.00000000000E+00  0.45593999997E+02  0.45594000000E+02  0.51100000000E-03 0. -1.
         11   -1    0    0    0    0 -0.00000000000E+00 -0.00000000000E+00 -0.45593999997E+02  0.45594000000E+02  0.51100000000E-03 0.  1.
    9900012    2    1    2    0    0  0.16245741501E+02  0.91692994763E+01 -0.16365555993E+01  0.72461588597E+02  0.70000023843E+02 0.  0.
         12    1    1    2    0    0 -0.16245741501E+02 -0.91692994763E+01  0.16365555993E+01  0.18726411403E+02  0.00000000000E+00 0. -1.
         11    1    3    3    0    0 -0.35856668362E+01  0.28073528712E+01  0.18337112376E+02  0.18894124149E+02  0.51100000000E-03 0. -1.
        -11    1    3    3    0    0  0.13879282238E+02  0.14874010735E+01  0.13381350667E+02  0.19336684910E+02  0.51100000000E-03 0.  1.
         12    1    3    3    0    0  0.59521260987E+01  0.48745455317E+01 -0.33355018642E+02  0.34230779538E+02  0.00000000000E+00 0. -1.
</event>
<event>
 7    1  0.2972263E-013  0.7246155E+02  0.7816164E-02  0.1226708E+00
        -11   -1    0    0    0    0  0.00000000000E+00  0.00000000000E+00  0.45593999997E+02  0.45594000000E+02  0.51100000000E-03 0. -1.
         11   -1    0    0    0    0 -0.00000000000E+00 -0.00000000000E+00 -0.45593999997E+02  0.45594000000E+02  0.51100000000E-03 0.  1.
    9900012    2    1    2    0    0  0.14387159627E+02  0.93771766307E+01 -0.74671267018E+01  0.72461553864E+02  0.69999978596E+02 0.  0.
         12    1    1    2    0    0 -0.14387159627E+02 -0.93771766307E+01  0.74671267018E+01  0.18726446136E+02  0.00000000000E+00 0. -1.
         11    1    3    3    0    0 -0.10150655395E+02  0.15013693605E+02  0.46489145276E+00  0.18129062991E+02  0.51100000000E-03 0. -1.
        -11    1    3    3    0    0  0.33719677796E+00 -0.16619413020E+02 -0.19261151944E+02  0.25442298742E+02  0.51100000000E-03 0.  1.
         12    1    3    3    0    0  0.24200618244E+02  0.10982896045E+02  0.11329133790E+02  0.28890192131E+02  0.00000000000E+00 0. -1.
</event>
<event>
 7    1  0.2972263E-013  0.7246152E+02  0.7816164E-02  0.1226708E+00
        -11   -1    0    0    0    0  0.00000000000E+00  0.00000000000E+00  0.45593999997E+02  0.45594000000E+02  0.51100000000E-03 0.  1.
         11   -1    0    0    0    0 -0.00000000000E+00 -0.00000000000E+00 -0.45593999997E+02  0.45594000000E+02  0.51100000000E-03 0. -1.
    9900012    2    1    2    0    0 -0.59660483058E+01 -0.37694047021E-01  0.17750659443E+02  0.72461519714E+02  0.69999934110E+02 0.  0.
         12    1    1    2    0    0  0.59660483058E+01  0.37694047021E-01 -0.17750659443E+02  0.18726480286E+02  0.00000000000E+00 0. -1.
         11    1    3    3    0    0  0.15552559483E+02  0.18877584504E+02  0.21458296251E+02  0.32537728584E+02  0.51100000000E-03 0. -1.
        -11    1    3    3    0    0 -0.46219990058E+01  0.40525141265E+01 -0.90242710273E+01  0.10918938290E+02  0.51100000000E-03 0.  1.
         12    1    3    3    0    0 -0.16896608783E+02 -0.22967792677E+02  0.53166342190E+01  0.29004852839E+02  0.00000000000E+00 0. -1.
</event>
<event>
 7    1  0.2972263E-013  0.7246144E+02  0.7816164E-02  0.1226708E+00
        -11   -1    0    0    0    0  0.00000000000E+00  0.00000000000E+00  0.45593999997E+02  0.45594000000E+02  0.51100000000E-03 0.  1.
         11   -1    0    0    0    0 -0.00000000000E+00 -0.00000000000E+00 -0.45593999997E+02  0.45594000000E+02  0.51100000000E-03 0. -1.
    9900012    2    1    2    0    0  0.73242108258E+00 -0.98806609185E+01  0.15890886782E+02  0.72461436419E+02  0.69999825602E+02 0.  0.
         12    1    1    2    0    0 -0.73242108258E+00  0.98806609185E+01 -0.15890886782E+02  0.18726563581E+02  0.00000000000E+00 0. -1.
         11    1    3    3    0    0 -0.29773340358E+01 -0.62758941456E+00 -0.11448031265E+02  0.11845497311E+02  0.51100000000E-03 0. -1.
        -11    1    3    3    0    0  0.11808721530E+02  0.19624495904E+02  0.18225666675E+02  0.29270149806E+02  0.51100000000E-03 0.  1.
        -12    1    3    3    0    0 -0.80989664116E+01 -0.28877567408E+02  0.91132513726E+01  0.31345789302E+02  0.00000000000E+00 0.  1.
</event>
<event>
 7    1  0.2972263E-013  0.7246162E+02  0.7816164E-02  0.1226708E+00
        -11   -1    0    0    0    0  0.00000000000E+00  0.00000000000E+00  0.45593999997E+02  0.45594000000E+02  0.51100000000E-03 0.  1.
         11   -1    0    0    0    0 -0.00000000000E+00 -0.00000000000E+00 -0.45593999997E+02  0.45594000000E+02  0.51100000000E-03 0. -1.
    9900012    2    1    2    0    0  0.15044941724E+01  0.79305564915E+01  0.16897335886E+02  0.72461623174E+02  0.70000068885E+02 0.  0.
         12    1    1    2    0    0 -0.15044941724E+01 -0.79305564915E+01 -0.16897335886E+02  0.18726376826E+02  0.00000000000E+00 0. -1.
         11    1    3    3    0    0 -0.35143613715E+01  0.99842203999E+00 -0.13558896491E+02  0.14042480434E+02  0.51100000000E-03 0. -1.
        -11    1    3    3    0    0 -0.17302224424E+02  0.11029280671E+01  0.30802870126E+02  0.35346855993E+02  0.51100000000E-03 0.  1.
         12    1    3    3    0    0  0.22321079968E+02  0.58292063844E+01 -0.34663774895E+00  0.23072286747E+02  0.00000000000E+00 0. -1.
</event>
<event>
 7    1  0.2972263E-013  0.7246153E+02  0.7816164E-02  0.1226708E+00
        -11   -1    0    0    0    0  0.00000000000E+00  0.00000000000E+00  0.45593999997E+02  0.45594000000E+02  0.51100000000E-03 0.  1.
         11   -1    0    0    0    0 -0.00000000000E+00 -0.00000000000E+00 -0.45593999997E+02  0.45594000000E+02  0.51100000000E-03 0. -1.
    9900012    2    1    2    0    0  0.29502296989E+01  0.20504484690E+01  0.18378585194E+02  0.72461532423E+02  0.69999950665E+02 0.  0.
         12    1    1    2    0    0 -0.29502296989E+01 -0.20504484690E+01 -0.18378585194E+02  0.18726467577E+02  0.00000000000E+00 0. -1.
         11    1    3    3    0    0  0.15230547328E+02  0.58984151593E+01  0.57482429232E+01  0.17314825159E+02  0.51100000000E-03 0. -1.
        -11    1    3    3    0    0  0.31953316989E-01 -0.31775864686E+01 -0.20006991733E+02  0.20257783572E+02  0.51100000000E-03 0.  1.
        -12    1    3    3    0    0 -0.12312270946E+02 -0.67038022170E+00  0.32637334004E+02  0.34888923692E+02  0.00000000000E+00 0.  1.
</event>
<event>
 7    1  0.2972263E-013  0.7246158E+02  0.7816164E-02  0.1226708E+00
        -11   -1    0    0    0    0  0.00000000000E+00  0.00000000000E+00  0.45593999997E+02  0.45594000000E+02  0.51100000000E-03 0. -1.
         11   -1    0    0    0    0 -0.00000000000E+00 -0.00000000000E+00 -0.45593999997E+02  0.45594000000E+02  0.51100000000E-03 0.  1.
    9900012    2    1    2    0    0  0.10866544142E+02 -0.38216585728E+01 -0.14764554292E+02  0.72461576976E+02  0.70000008703E+02 0.  0.
         12    1    1    2    0    0 -0.10866544142E+02  0.38216585728E+01  0.14764554292E+02  0.18726423024E+02  0.00000000000E+00 0. -1.
         11    1    3    3    0    0  0.27868360554E+01 -0.28998763270E+02  0.75595770999E+01  0.30097208053E+02  0.51100000000E-03 0. -1.
        -11    1    3    3    0    0  0.50275475086E+01  0.18535132343E+01  0.42761776935E+01  0.68554679773E+01  0.51100000000E-03 0.  1.
        -12    1    3    3    0    0  0.30521605783E+01  0.23323591463E+02 -0.26600309086E+02  0.35508900946E+02  0.00000000000E+00 0.  1.
</event>
<event>
 7    1  0.4526221E-013  0.7246157E+02  0.7816164E-02  0.1226708E+00
        -11   -1    0    0    0    0  0.00000000000E+00  0.00000000000E+00  0.45593999997E+02  0.45594000000E+02  0.51100000000E-03 0. -1.
         11   -1    0    0    0    0 -0.00000000000E+00 -0.00000000000E+00 -0.45593999997E+02  0.45594000000E+02  0.51100000000E-03 0.  1.
    9900012    2    1    2    0    0 -0.14594713976E+01  0.86523212108E+01 -0.16543472541E+02  0.72461569405E+02  0.69999998842E+02 0.  0.
         12    1    1    2    0    0  0.14594713976E+01 -0.86523212108E+01  0.16543472541E+02  0.18726430595E+02  0.00000000000E+00 0. -1.
         11    1    3    3    0    0 -0.15921529663E+02 -0.97353827441E+01  0.12389898464E+02  0.22400499285E+02  0.51100000000E-03 0. -1.
        -11    1    3    3    0    0 -0.66984651285E+00 -0.82338878110E+01 -0.50319496650E+00  0.82764006833E+01  0.51100000000E-03 0.  1.
        -12    1    3    3    0    0  0.15131904779E+02  0.26621591766E+02 -0.28430176039E+02  0.41784669437E+02  0.00000000000E+00 0.  1.
</event>
<event>
 7    1  0.2972263E-013  0.7246162E+02  0.7816164E-02  0.1226708E+00
        -11   -1    0    0    0    0  0.00000000000E+00  0.00000000000E+00  0.45593999997E+02  0.45594000000E+02  0.51100000000E-03 0.  1.
         11   -1    0    0    0    0 -0.00000000000E+00 -0.00000000000E+00 -0.45593999997E+02  0.45594000000E+02  0.51100000000E-03 0. -1.
    9900012    2    1    2    0    0 -0.15557675204E+02 -0.10339873444E+02 -0.13126844680E+01  0.72461618045E+02  0.70000062204E+02 0.  0.
         12    1    1    2    0    0  0.15557675204E+02  0.10339873444E+02  0.13126844680E+01  0.18726381955E+02  0.00000000000E+00 0. -1.
         11    1    3    3    0    0  0.28801734775E+01 -0.24019417817E+02 -0.11076120447E+02  0.26606545735E+02  0.51100000000E-03 0. -1.
        -11    1    3    3    0    0  0.10574026552E+02  0.73754124912E+01 -0.34691625636E+01  0.13350724178E+02  0.51100000000E-03 0.  1.
        -12    1    3    3    0    0 -0.29011875233E+02  0.63041318814E+01  0.13232598542E+02  0.32504348132E+02  0.00000000000E+00 0.  1.
</event>
<event>
 7    1  0.2972263E-013  0.7246158E+02  0.7816164E-02  0.1226708E+00
        -11   -1    0    0    0    0  0.00000000000E+00  0.00000000000E+00  0.45593999997E+02  0.45594000000E+02  0.51100000000E-03 0.  1.
         11   -1    0    0    0    0 -0.00000000000E+00 -0.00000000000E+00 -0.45593999997E+02  0.45594000000E+02  0.51100000000E-03 0. -1.
    9900012    2    1    2    0    0  0.40315422471E+01 -0.26732848266E+01  0.18090853430E+02  0.72461581162E+02  0.70000014158E+02 0.  0.
         12    1    1    2    0    0 -0.40315422471E+01  0.26732848266E+01 -0.18090853430E+02  0.18726418838E+02  0.00000000000E+00 0. -1.
         11    1    3    3    0    0 -0.23487012814E+02 -0.15001534454E+02  0.16937691304E+02  0.32612439250E+02  0.51100000000E-03 0. -1.
        -11    1    3    3    0    0 -0.33574223136E+01 -0.32051784138E+01 -0.21751435006E+01  0.51260806437E+01  0.51100000000E-03 0.  1.
        -12    1    3    3    0    0  0.30875977374E+02  0.15533428041E+02  0.33283056269E+01  0.34723061269E+02  0.00000000000E+00 0.  1.
</event>
<event>
 7    1  0.2972263E-013  0.7246156E+02  0.7816164E-02  0.1226708E+00
        -11   -1    0    0    0    0  0.00000000000E+00  0.00000000000E+00  0.45593999997E+02  0.45594000000E+02  0.51100000000E-03 0.  1.
         11   -1    0    0    0    0 -0.00000000000E+00 -0.00000000000E+00 -0.45593999997E+02  0.45594000000E+02  0.51100000000E-03 0. -1.
    9900012    2    1    2    0    0 -0.11783329429E+02 -0.13997127578E+02  0.39891283225E+01  0.72461559398E+02  0.69999985805E+02 0.  0.
         12    1    1    2    0    0  0.11783329429E+02  0.13997127578E+02 -0.39891283225E+01  0.18726440602E+02  0.00000000000E+00 0. -1.
         11    1    3    3    0    0  0.44325222684E+01  0.39965710844E+01  0.12603945004E+02  0.13945582240E+02  0.51100000000E-03 0.  1.
        -11    1    3    3    0    0 -0.21413121188E+02 -0.32056421485E+02 -0.16077817023E+02  0.41768793590E+02  0.51100000000E-03 0. -1.
         12    1    3    3    0    0  0.51972694908E+01  0.14062722823E+02  0.74630003414E+01  0.16747183568E+02  0.00000000000E+00 0. -1.
</event>
<event>
 7    1  0.2972263E-013  0.7246156E+02  0.7816164E-02  0.1226708E+00
        -11   -1    0    0    0    0  0.00000000000E+00  0.00000000000E+00  0.45593999997E+02  0.45594000000E+02  0.51100000000E-03 0.  1.
         11   -1    0    0    0    0 -0.00000000000E+00 -0.00000000000E+00 -0.45593999997E+02  0.45594000000E+02  0.51100000000E-03 0. -1.
    9900012    2    1    2    0    0 -0.13272000706E+02 -0.98637068351E+01  0.87886817956E+01  0.72461557653E+02  0.69999983533E+02 0.  0.
         12    1    1    2    0    0  0.13272000706E+02  0.98637068351E+01 -0.87886817956E+01  0.18726442347E+02  0.00000000000E+00 0. -1.
         11    1    3    3    0    0  0.10943076043E+02  0.11171831469E+02 -0.14801650565E+02  0.21532524036E+02  0.51100000000E-03 0. -1.
        -11    1    3    3    0    0  0.52292849360E+01 -0.95226280254E+01  0.14335724948E+02  0.17987186425E+02  0.51100000000E-03 0.  1.
        -12    1    3    3    0    0 -0.29444361684E+02 -0.11512910279E+02  0.92546074127E+01  0.32941847193E+02  0.00000000000E+00 0.  1.
</event>
<event>
 7    1  0.2972263E-013  0.7246156E+02  0.7816164E-02  0.1226708E+00
        -11   -1    0    0    0    0  0.00000000000E+00  0.00000000000E+00  0.45593999997E+02  0.45594000000E+02  0.51100000000E-03 0.  1.
         11   -1    0    0    0    0 -0.00000000000E+00 -0.00000000000E+00 -0.45593999997E+02  0.45594000000E+02  0.51100000000E-03 0. -1.
    9900012    2    1    2    0    0 -0.32928275407E+01  0.11403660149E+02  0.14484251093E+02  0.72461555924E+02  0.69999981280E+02 0.  0.
         12    1    1    2    0    0  0.32928275407E+01 -0.11403660149E+02 -0.14484251093E+02  0.18726444076E+02  0.00000000000E+00 0. -1.
         11    1    3    3    0    0  0.96082859394E+01 -0.16924881373E+02  0.21948598933E+02  0.29334480795E+02  0.51100000000E-03 0. -1.
        -11    1    3    3    0    0  0.62974064542E+01  0.58692765957E+01  0.61651283190E+01  0.10588415522E+02  0.51100000000E-03 0.  1.
         12    1    3    3    0    0 -0.19198519934E+02  0.22459264925E+02 -0.13629476158E+02  0.32538659607E+02  0.00000000000E+00 0. -1.
</event>
<event>
 7    1  0.2972263E-013  0.7246159E+02  0.7816164E-02  0.1226708E+00
        -11   -1    0    0    0    0  0.00000000000E+00  0.00000000000E+00  0.45593999997E+02  0.45594000000E+02  0.51100000000E-03 0.  1.
         11   -1    0    0    0    0 -0.00000000000E+00 -0.00000000000E+00 -0.45593999997E+02  0.45594000000E+02  0.51100000000E-03 0. -1.
    9900012    2    1    2    0    0 -0.14377890918E+02 -0.30636260031E+01 -0.11600384856E+02  0.72461588696E+02  0.70000023971E+02 0.  0.
         12    1    1    2    0    0  0.14377890918E+02  0.30636260031E+01  0.11600384856E+02  0.18726411304E+02  0.00000000000E+00 0. -1.
         11    1    3    3    0    0 -0.26687489053E+02  0.15766031654E+02 -0.12639846847E+02  0.33474700217E+02  0.51100000000E-03 0. -1.
        -11    1    3    3    0    0 -0.44264396557E+01  0.21811339879E+01  0.96001055130E+01  0.10794106708E+02  0.51100000000E-03 0.  1.
        -12    1    3    3    0    0  0.16736037790E+02 -0.21010791645E+02 -0.85606435222E+01  0.28192781771E+02  0.00000000000E+00 0.  1.
</event>
<event>
 7    1  0.2972263E-013  0.7246157E+02  0.7816164E-02  0.1226708E+00
        -11   -1    0    0    0    0  0.00000000000E+00  0.00000000000E+00  0.45593999997E+02  0.45594000000E+02  0.51100000000E-03 0.  1.
         11   -1    0    0    0    0 -0.00000000000E+00 -0.00000000000E+00 -0.45593999997E+02  0.45594000000E+02  0.51100000000E-03 0. -1.
    9900012    2    1    2    0    0  0.64404519322E+01 -0.15376709803E+02  0.85297513792E+01  0.72461567236E+02  0.69999996016E+02 0.  0.
         12    1    1    2    0    0 -0.64404519322E+01  0.15376709803E+02 -0.85297513792E+01  0.18726432764E+02  0.00000000000E+00 0. -1.
         11    1    3    3    0    0  0.14773702568E+02 -0.23198821744E+02 -0.20800337433E+02  0.34483353309E+02  0.51100000000E-03 0. -1.
        -11    1    3    3    0    0 -0.10527026814E+02 -0.71322318247E+00  0.42151685084E+01  0.11361981635E+02  0.51100000000E-03 0.  1.
        -12    1    3    3    0    0  0.21937761787E+01  0.85353351233E+01  0.25114920304E+02  0.26616232292E+02  0.00000000000E+00 0.  1.
</event>
<event>
 7    1  0.2972263E-013  0.7246159E+02  0.7816164E-02  0.1226708E+00
        -11   -1    0    0    0    0  0.00000000000E+00  0.00000000000E+00  0.45593999997E+02  0.45594000000E+02  0.51100000000E-03 0.  1.
         11   -1    0    0    0    0 -0.00000000000E+00 -0.00000000000E+00 -0.45593999997E+02  0.45594000000E+02  0.51100000000E-03 0. -1.
    9900012    2    1    2    0    0 -0.84976374101E+01 -0.13211933806E+02  0.10193793645E+02  0.72461589096E+02  0.70000024493E+02 0.  0.
         12    1    1    2    0    0  0.84976374101E+01  0.13211933806E+02 -0.10193793645E+02  0.18726410904E+02  0.00000000000E+00 0. -1.
         11    1    3    3    0    0  0.15313976730E+01 -0.24629837760E+02 -0.79963495720E+01  0.25940618606E+02  0.51100000000E-03 0. -1.
        -11    1    3    3    0    0  0.12831841534E+02 -0.52045277748E+01  0.21250594536E+01  0.14009252102E+02  0.51100000000E-03 0.  1.
        -12    1    3    3    0    0 -0.22860876617E+02  0.16622431728E+02  0.16065083764E+02  0.32511718389E+02  0.00000000000E+00 0.  1.
</event>
<event>
 7    1  0.2972263E-013  0.7246161E+02  0.7816164E-02  0.1226708E+00
        -11   -1    0    0    0    0  0.00000000000E+00  0.00000000000E+00  0.45593999997E+02  0.45594000000E+02  0.51100000000E-03 0. -1.
         11   -1    0    0    0    0 -0.00000000000E+00 -0.00000000000E+00 -0.45593999997E+02  0.45594000000E+02  0.51100000000E-03 0.  1.
    9900012    2    1    2    0    0  0.50176256595E+01 -0.11601802790E+02 -0.13816632474E+02  0.72461608779E+02  0.70000050133E+02 0.  0.
         12    1    1    2    0    0 -0.50176256595E+01  0.11601802790E+02  0.13816632474E+02  0.18726391221E+02  0.00000000000E+00 0. -1.
         11    1    3    3    0    0 -0.21175537294E+01 -0.85144988933E+01  0.86925494285E+01  0.12350754674E+02  0.51100000000E-03 0. -1.
        -11    1    3    3    0    0 -0.11323463604E+02  0.20702391129E+02 -0.20055731624E+01  0.23681894992E+02  0.51100000000E-03 0.  1.
        -12    1    3    3    0    0  0.18458642993E+02 -0.23789695026E+02 -0.20503608740E+02  0.36428959112E+02  0.00000000000E+00 0.  1.
</event>
<event>
 7    1  0.2972263E-013  0.7246154E+02  0.7816164E-02  0.1226708E+00
        -11   -1    0    0    0    0  0.00000000000E+00  0.00000000000E+00  0.45593999997E+02  0.45594000000E+02  0.51100000000E-03 0. -1.
         11   -1    0    0    0    0 -0.00000000000E+00 -0.00000000000E+00 -0.45593999997E+02  0.45594000000E+02  0.51100000000E-03 0.  1.
    9900012    2    1    2    0    0  0.13785043032E+02  0.99880721045E+01 -0.78032932746E+01  0.72461537929E+02  0.69999957838E+02 0.  0.
         12    1    1    2    0    0 -0.13785043032E+02 -0.99880721045E+01  0.78032932746E+01  0.18726462071E+02  0.00000000000E+00 0. -1.
         11    1    3    3    0    0 -0.32243228235E+01 -0.34927366121E+01  0.77000412450E+01  0.90490939960E+01  0.51100000000E-03 0. -1.
        -11    1    3    3    0    0  0.42663832185E+01 -0.21939564016E+02  0.85936148694E+00  0.22367051602E+02  0.51100000000E-03 0.  1.
         12    1    3    3    0    0  0.12742982637E+02  0.35420372732E+02 -0.16362696007E+02  0.41045392331E+02  0.00000000000E+00 0. -1.
</event>
<event>
 7    1  0.2972263E-013  0.7246159E+02  0.7816164E-02  0.1226708E+00
        -11   -1    0    0    0    0  0.00000000000E+00  0.00000000000E+00  0.45593999997E+02  0.45594000000E+02  0.51100000000E-03 0. -1.
         11   -1    0    0    0    0 -0.00000000000E+00 -0.00000000000E+00 -0.45593999997E+02  0.45594000000E+02  0.51100000000E-03 0.  1.
    9900012    2    1    2    0    0  0.17698986093E+02  0.38014952875E+01  0.47930219495E+01  0.72461587248E+02  0.70000022086E+02 0.  0.
         12    1    1    2    0    0 -0.17698986093E+02 -0.38014952875E+01 -0.47930219495E+01  0.18726412752E+02  0.00000000000E+00 0. -1.
         11    1    3    3    0    0  0.19430261589E+01  0.73192613394E+01 -0.10518179556E+02  0.12960672770E+02  0.51100000000E-03 0. -1.
        -11    1    3    3    0    0  0.11202144706E+02 -0.24451625113E+02 -0.77839974466E+01  0.27999297013E+02  0.51100000000E-03 0.  1.
         12    1    3    3    0    0  0.45538152278E+01  0.20933859061E+02  0.23095198952E+02  0.31501617466E+02  0.00000000000E+00 0. -1.
</event>
<event>
 7    1  0.2972263E-013  0.7246141E+02  0.7816164E-02  0.1226708E+00
        -11   -1    0    0    0    0  0.00000000000E+00  0.00000000000E+00  0.45593999997E+02  0.45594000000E+02  0.51100000000E-03 0.  1.
         11   -1    0    0    0    0 -0.00000000000E+00 -0.00000000000E+00 -0.45593999997E+02  0.45594000000E+02  0.51100000000E-03 0. -1.
    9900012    2    1    2    0    0 -0.12878803136E+02  0.10003761502E+02  0.92057690961E+01  0.72461414645E+02  0.69999797238E+02 0.  0.
         12    1    1    2    0    0  0.12878803136E+02 -0.10003761502E+02 -0.92057690961E+01  0.18726585355E+02  0.00000000000E+00 0. -1.
         11    1    3    3    0    0  0.70134648925E+01  0.19053282665E+02  0.13679462338E+02  0.24481502410E+02  0.51100000000E-03 0. -1.
        -11    1    3    3    0    0 -0.53213833280E+01 -0.10895148361E+02  0.17656725108E+02  0.21419181127E+02  0.51100000000E-03 0.  1.
         12    1    3    3    0    0 -0.14570884700E+02  0.18456271980E+01 -0.22130418350E+02  0.26560731109E+02  0.00000000000E+00 0. -1.
</event>
<event>
 7    1  0.2972263E-013  0.7246156E+02  0.7816164E-02  0.1226708E+00
        -11   -1    0    0    0    0  0.00000000000E+00  0.00000000000E+00  0.45593999997E+02  0.45594000000E+02  0.51100000000E-03 0.  1.
         11   -1    0    0    0    0 -0.00000000000E+00 -0.00000000000E+00 -0.45593999997E+02  0.45594000000E+02  0.51100000000E-03 0. -1.
    9900012    2    1    2    0    0 -0.12196492430E+02  0.51748830761E+01  0.13234257673E+02  0.72461563644E+02  0.69999991337E+02 0.  0.
         12    1    1    2    0    0  0.12196492430E+02 -0.51748830761E+01 -0.13234257673E+02  0.18726436356E+02  0.00000000000E+00 0. -1.
         11    1    3    3    0    0  0.42402182968E+01  0.53840380603E+01 -0.78922773556E+01  0.10452528840E+02  0.51100000000E-03 0. -1.
        -11    1    3    3    0    0 -0.13621343021E+02  0.20235370744E+02  0.30740003057E+02  0.39242311388E+02  0.51100000000E-03 0.  1.
         12    1    3    3    0    0 -0.28153677051E+01 -0.20444525728E+02 -0.96134680291E+01  0.22766723416E+02  0.00000000000E+00 0. -1.
</event>
<event>
 7    1  0.2972263E-013  0.7246158E+02  0.7816164E-02  0.1226708E+00
        -11   -1    0    0    0    0  0.00000000000E+00  0.00000000000E+00  0.45593999997E+02  0.45594000000E+02  0.51100000000E-03 0. -1.
         11   -1    0    0    0    0 -0.00000000000E+00 -0.00000000000E+00 -0.45593999997E+02  0.45594000000E+02  0.51100000000E-03 0.  1.
    9900012    2    1    2    0    0  0.11017745002E+02 -0.67570849101E+01 -0.13551013986E+02  0.72461577986E+02  0.70000010020E+02 0.  0.
         12    1    1    2    0    0 -0.11017745002E+02  0.67570849101E+01  0.13551013986E+02  0.18726422014E+02  0.00000000000E+00 0. -1.
         11    1    3    3    0    0  0.49594481395E+00 -0.27002002478E+01 -0.42743974254E+01  0.50801098658E+01  0.51100000000E-03 0. -1.
        -11    1    3    3    0    0  0.32030551057E+02 -0.21887191391E+02 -0.49048587552E+01  0.39103235002E+02  0.51100000000E-03 0.  1.
         12    1    3    3    0    0 -0.21508750868E+02  0.17830306728E+02 -0.43717578049E+01  0.28278233118E+02  0.00000000000E+00 0. -1.
</event>
<event>
 7    1  0.2972263E-013  0.7246157E+02  0.7816164E-02  0.1226708E+00
        -11   -1    0    0    0    0  0.00000000000E+00  0.00000000000E+00  0.45593999997E+02  0.45594000000E+02  0.51100000000E-03 0. -1.
         11   -1    0    0    0    0 -0.00000000000E+00 -0.00000000000E+00 -0.45593999997E+02  0.45594000000E+02  0.51100000000E-03 0.  1.
    9900012    2    1    2    0    0  0.87862412245E+01  0.56898968593E+01 -0.15527591879E+02  0.72461572933E+02  0.70000003438E+02 0.  0.
         12    1    1    2    0    0 -0.87862412245E+01 -0.56898968593E+01  0.15527591879E+02  0.18726427067E+02  0.00000000000E+00 0. -1.
         11    1    3    3    0    0  0.41254888406E+01  0.35382470126E+01  0.22248387068E+01  0.58727129700E+01  0.51100000000E-03 0. -1.
        -11    1    3    3    0    0  0.33410557579E+01 -0.54014353865E+01  0.23647154666E+02  0.24485221704E+02  0.51100000000E-03 0.  1.
        -12    1    3    3    0    0  0.13196966260E+01  0.75530852332E+01 -0.41399585252E+02  0.42103638260E+02  0.00000000000E+00 0.  1.
</event>
<event>
 7    1  0.2972263E-013  0.7246151E+02  0.7816164E-02  0.1226708E+00
        -11   -1    0    0    0    0  0.00000000000E+00  0.00000000000E+00  0.45593999997E+02  0.45594000000E+02  0.51100000000E-03 0. -1.
         11   -1    0    0    0    0 -0.00000000000E+00 -0.00000000000E+00 -0.45593999997E+02  0.45594000000E+02  0.51100000000E-03 0.  1.
    9900012    2    1    2    0    0  0.62532611503E+01 -0.95988123723E+01 -0.14813541505E+02  0.72461508447E+02  0.69999919432E+02 0.  0.
         12    1    1    2    0    0 -0.62532611503E+01  0.95988123723E+01  0.14813541505E+02  0.18726491553E+02  0.00000000000E+00 0. -1.
         11    1    3    3    0    0  0.11235810715E+02 -0.32834211736E+01 -0.46087827709E+01  0.12580348799E+02  0.51100000000E-03 0. -1.
        -11    1    3    3    0    0  0.19050574033E+02  0.19638969246E+01 -0.24201993015E+02  0.30862885936E+02  0.51100000000E-03 0.  1.
         12    1    3    3    0    0 -0.24033123597E+02 -0.82792881233E+01  0.13997234282E+02  0.29018273712E+02  0.00000000000E+00 0. -1.
</event>
<event>
 7    1  0.2972263E-013  0.7246102E+02  0.7816164E-02  0.1226709E+00
        -11   -1    0    0    0    0  0.00000000000E+00  0.00000000000E+00  0.45593999997E+02  0.45594000000E+02  0.51100000000E-03 0.  1.
         11   -1    0    0    0    0 -0.00000000000E+00 -0.00000000000E+00 -0.45593999997E+02  0.45594000000E+02  0.51100000000E-03 0. -1.
    9900012    2    1    2    0    0  0.78110228774E+01  0.16804797502E+02 -0.26993409332E+01  0.72461021094E+02  0.69999284561E+02 0.  0.
         12    1    1    2    0    0 -0.78110228774E+01 -0.16804797502E+02  0.26993409332E+01  0.18726978906E+02  0.00000000000E+00 0. -1.
         11    1    3    3    0    0 -0.51408687366E+01 -0.12122771431E+02 -0.82756360032E+01  0.15552371846E+02  0.51100000000E-03 0. -1.
        -11    1    3    3    0    0  0.13588170388E+02  0.17316932038E+01 -0.16805783562E+02  0.21681132287E+02  0.51100000000E-03 0.  1.
        -12    1    3    3    0    0 -0.63627877438E+00  0.27195875729E+02  0.22382078632E+02  0.35227516961E+02  0.00000000000E+00 0.  1.
</event>
<event>
 7    1  0.2972263E-013  0.7246153E+02  0.7816164E-02  0.1226708E+00
        -11   -1    0    0    0    0  0.00000000000E+00  0.00000000000E+00  0.45593999997E+02  0.45594000000E+02  0.51100000000E-03 0. -1.
         11   -1    0    0    0    0 -0.00000000000E+00 -0.00000000000E+00 -0.45593999997E+02  0.45594000000E+02  0.51100000000E-03 0.  1.
    9900012    2    1    2    0    0 -0.12435258643E+02 -0.12118010431E+02 -0.70141973065E+01  0.72461526809E+02  0.69999943352E+02 0.  0.
         12    1    1    2    0    0  0.12435258643E+02  0.12118010431E+02  0.70141973065E+01  0.18726473191E+02  0.00000000000E+00 0. -1.
         11    1    3    3    0    0 -0.10458748200E+02  0.74048787296E+01  0.66767336068E+01  0.14449789439E+02  0.51100000000E-03 0. -1.
        -11    1    3    3    0    0 -0.21784742917E+02 -0.68243458129E+01  0.97274878216E+01  0.24814728274E+02  0.51100000000E-03 0.  1.
        -12    1    3    3    0    0  0.19808232473E+02 -0.12698543347E+02 -0.23418418735E+02  0.33197009096E+02  0.00000000000E+00 0.  1.
</event>
<event>
 7    1  0.2972263E-013  0.7246158E+02  0.7816164E-02  0.1226708E+00
        -11   -1    0    0    0    0  0.00000000000E+00  0.00000000000E+00  0.45593999997E+02  0.45594000000E+02  0.51100000000E-03 0.  1.
         11   -1    0    0    0    0 -0.00000000000E+00 -0.00000000000E+00 -0.45593999997E+02  0.45594000000E+02  0.51100000000E-03 0. -1.
    9900012    2    1    2    0    0  0.16490598901E+02  0.63968142871E+01  0.61497745871E+01  0.72461579824E+02  0.70000012414E+02 0.  0.
         12    1    1    2    0    0 -0.16490598901E+02 -0.63968142871E+01 -0.61497745871E+01  0.18726420176E+02  0.00000000000E+00 0. -1.
         11    1    3    3    0    0 -0.10260993038E+00 -0.51740653196E+00 -0.16875858541E+02  0.16884100215E+02  0.51100000000E-03 0. -1.
        -11    1    3    3    0    0  0.26599277751E+01  0.13217453200E+02  0.34118091707E+02  0.36685425810E+02  0.51100000000E-03 0.  1.
         12    1    3    3    0    0  0.13933281056E+02 -0.63032323805E+01 -0.11092458579E+02  0.18892053799E+02  0.00000000000E+00 0. -1.
</event>
<event>
 7    1  0.2972263E-013  0.7246157E+02  0.7816164E-02  0.1226708E+00
        -11   -1    0    0    0    0  0.00000000000E+00  0.00000000000E+00  0.45593999997E+02  0.45594000000E+02  0.51100000000E-03 0. -1.
         11   -1    0    0    0    0 -0.00000000000E+00 -0.00000000000E+00 -0.45593999997E+02  0.45594000000E+02  0.51100000000E-03 0.  1.
    9900012    2    1    2    0    0  0.17421901602E+02  0.10441333558E+01 -0.67872035010E+01  0.72461574787E+02  0.70000005853E+02 0.  0.
         12    1    1    2    0    0 -0.17421901602E+02 -0.10441333558E+01  0.67872035010E+01  0.18726425213E+02  0.00000000000E+00 0. -1.
         11    1    3    3    0    0  0.25035416223E+02  0.32528636750E+01  0.16151754240E+02  0.29970524734E+02  0.51100000000E-03 0. -1.
        -11    1    3    3    0    0  0.19302707441E+01  0.12768722792E+01  0.88344922653E+01  0.91326119927E+01  0.51100000000E-03 0.  1.
        -12    1    3    3    0    0 -0.95437853650E+01 -0.34856025985E+01 -0.31773450006E+02  0.33358438061E+02  0.00000000000E+00 0.  1.
</event>
<event>
 7    1  0.2972263E-013  0.7246150E+02  0.7816164E-02  0.1226708E+00
        -11   -1    0    0    0    0  0.00000000000E+00  0.00000000000E+00  0.45593999997E+02  0.45594000000E+02  0.51100000000E-03 0.  1.
         11   -1    0    0    0    0 -0.00000000000E+00 -0.00000000000E+00 -0.45593999997E+02  0.45594000000E+02  0.51100000000E-03 0. -1.
    9900012    2    1    2    0    0 -0.16019802252E+02 -0.42878220040E+01 -0.86983992455E+01  0.72461504568E+02  0.69999914379E+02 0.  0.
         12    1    1    2    0    0  0.16019802252E+02  0.42878220040E+01  0.86983992455E+01  0.18726495432E+02  0.00000000000E+00 0. -1.
         11    1    3    3    0    0 -0.46612575033E+01 -0.49105432834E+01  0.20897640839E+01  0.70857512684E+01  0.51100000000E-03 0. -1.
        -11    1    3    3    0    0  0.27220263256E+01 -0.29688084390E+02  0.12850124214E+01  0.29840292211E+02  0.51100000000E-03 0.  1.
         12    1    3    3    0    0 -0.14080571074E+02  0.30310805669E+02 -0.12073175751E+02  0.35535461089E+02  0.00000000000E+00 0. -1.
</event>
<event>
 7    1  0.2972263E-013  0.7246158E+02  0.7816164E-02  0.1226708E+00
        -11   -1    0    0    0    0  0.00000000000E+00  0.00000000000E+00  0.45593999997E+02  0.45594000000E+02  0.51100000000E-03 0.  1.
         11   -1    0    0    0    0 -0.00000000000E+00 -0.00000000000E+00 -0.45593999997E+02  0.45594000000E+02  0.51100000000E-03 0. -1.
    9900012    2    1    2    0    0  0.46636903785E+01  0.16200361693E+02  0.81533402902E+01  0.72461583236E+02  0.70000016859E+02 0.  0.
         12    1    1    2    0    0 -0.46636903785E+01 -0.16200361693E+02 -0.81533402902E+01  0.18726416764E+02  0.00000000000E+00 0. -1.
         11    1    3    3    0    0 -0.32235916143E+01 -0.25186861606E+01  0.64004853803E+01  0.75961527260E+01  0.51100000000E-03 0. -1.
        -11    1    3    3    0    0  0.17643735189E+02  0.22661260031E+02  0.25806352342E+02  0.38610904147E+02  0.51100000000E-03 0.  1.
         12    1    3    3    0    0 -0.97564531964E+01 -0.39422121775E+01 -0.24053497432E+02  0.26254526363E+02  0.00000000000E+00 0. -1.
</event>
<event>
 7    1  0.2972263E-013  0.7246152E+02  0.7816164E-02  0.1226708E+00
        -11   -1    0    0    0    0  0.00000000000E+00  0.00000000000E+00  0.45593999997E+02  0.45594000000E+02  0.51100000000E-03 0.  1.
         11   -1    0    0    0    0 -0.00000000000E+00 -0.00000000000E+00 -0.45593999997E+02  0.45594000000E+02  0.51100000000E-03 0. -1.
    9900012    2    1    2    0    0  0.15337718111E+02  0.46858393627E+01  0.96684298412E+01  0.72461515467E+02  0.69999928577E+02 0.  0.
         12    1    1    2    0    0 -0.15337718111E+02 -0.46858393627E+01 -0.96684298412E+01  0.18726484533E+02  0.00000000000E+00 0. -1.
         11    1    3    3    0    0  0.15444305830E+01 -0.22884511318E+02 -0.11787068528E+02  0.25788003196E+02  0.51100000000E-03 0. -1.
        -11    1    3    3    0    0 -0.47172039010E+00 -0.54465582928E+01  0.23977700966E+01  0.59696582030E+01  0.51100000000E-03 0.  1.
        -12    1    3    3    0    0  0.14265007918E+02  0.33016908974E+02  0.19057728272E+02  0.40703854068E+02  0.00000000000E+00 0.  1.
</event>
<event>
 7    1  0.2972263E-013  0.7246163E+02  0.7816164E-02  0.1226708E+00
        -11   -1    0    0    0    0  0.00000000000E+00  0.00000000000E+00  0.45593999997E+02  0.45594000000E+02  0.51100000000E-03 0. -1.
         11   -1    0    0    0    0 -0.00000000000E+00 -0.00000000000E+00 -0.45593999997E+02  0.45594000000E+02  0.51100000000E-03 0.  1.
    9900012    2    1    2    0    0 -0.96405082518E+01  0.45034526000E+01 -0.15409617987E+02  0.72461633263E+02  0.70000082028E+02 0.  0.
         12    1    1    2    0    0  0.96405082518E+01 -0.45034526000E+01  0.15409617987E+02  0.18726366737E+02  0.00000000000E+00 0. -1.
         11    1    3    3    0    0  0.57834927096E+01  0.87318160422E+00  0.10599614383E+02  0.12106323115E+02  0.51100000000E-03 0. -1.
        -11    1    3    3    0    0 -0.44208153604E+01  0.26736665352E+02 -0.20983795473E+02  0.34274079934E+02  0.51100000000E-03 0.  1.
         12    1    3    3    0    0 -0.11003185601E+02 -0.23106394356E+02 -0.50254368964E+01  0.26081230215E+02  0.00000000000E+00 0. -1.
</event>
<event>
 7    1  0.2972263E-013  0.7246158E+02  0.7816164E-02  0.1226708E+00
        -11   -1    0    0    0    0  0.00000000000E+00  0.00000000000E+00  0.45593999997E+02  0.45594000000E+02  0.51100000000E-03 0. -1.
         11   -1    0    0    0    0 -0.00000000000E+00 -0.00000000000E+00 -0.45593999997E+02  0.45594000000E+02  0.51100000000E-03 0.  1.
    9900012    2    1    2    0    0  0.14060036222E+02 -0.33847405593E+00 -0.12364448837E+02  0.72461580740E+02  0.70000013607E+02 0.  0.
         12    1    1    2    0    0 -0.14060036222E+02  0.33847405593E+00  0.12364448837E+02  0.18726419260E+02  0.00000000000E+00 0. -1.
         11    1    3    3    0    0 -0.68557212933E-01 -0.15612395864E+01 -0.49671913404E+01  0.52072218324E+01  0.51100000000E-03 0. -1.
        -11    1    3    3    0    0 -0.69669993680E+01  0.26516888234E+02 -0.17830417243E+02  0.32704865404E+02  0.51100000000E-03 0.  1.
         12    1    3    3    0    0  0.21095592803E+02 -0.25294122704E+02  0.10433159746E+02  0.34549493503E+02  0.00000000000E+00 0. -1.
</event>
<event>
 7    1  0.2972263E-013  0.7246156E+02  0.7816164E-02  0.1226708E+00
        -11   -1    0    0    0    0  0.00000000000E+00  0.00000000000E+00  0.45593999997E+02  0.45594000000E+02  0.51100000000E-03 0.  1.
         11   -1    0    0    0    0 -0.00000000000E+00 -0.00000000000E+00 -0.45593999997E+02  0.45594000000E+02  0.51100000000E-03 0. -1.
    9900012    2    1    2    0    0  0.19299683560E+01 -0.17291633722E+02  0.69249067194E+01  0.72461555925E+02  0.69999981281E+02 0.  0.
         12    1    1    2    0    0 -0.19299683560E+01  0.17291633722E+02 -0.69249067194E+01  0.18726444075E+02  0.00000000000E+00 0. -1.
         11    1    3    3    0    0  0.17841391888E+02  0.13789813706E+02 -0.11557838452E+02  0.25338860600E+02  0.51100000000E-03 0. -1.
        -11    1    3    3    0    0 -0.71865849999E+01  0.32763326470E+01  0.33067406469E+01  0.85624700608E+01  0.51100000000E-03 0.  1.
        -12    1    3    3    0    0 -0.87248385322E+01 -0.34357780075E+02  0.15176004524E+02  0.38560225264E+02  0.00000000000E+00 0.  1.
</event>
<event>
 7    1  0.2972263E-013  0.7246154E+02  0.7816164E-02  0.1226708E+00
        -11   -1    0    0    0    0  0.00000000000E+00  0.00000000000E+00  0.45593999997E+02  0.45594000000E+02  0.51100000000E-03 0. -1.
         11   -1    0    0    0    0 -0.00000000000E+00 -0.00000000000E+00 -0.45593999997E+02  0.45594000000E+02  0.51100000000E-03 0.  1.
    9900012    2    1    2    0    0  0.55467090742E+00 -0.18308768420E+02 -0.38937977976E+01  0.72461539519E+02  0.69999959909E+02 0.  0.
         12    1    1    2    0    0 -0.55467090742E+00  0.18308768420E+02  0.38937977976E+01  0.18726460481E+02  0.00000000000E+00 0. -1.
         11    1    3    3    0    0 -0.16196753522E+02 -0.17249717868E+01  0.81987021165E+00  0.16308971143E+02  0.51100000000E-03 0. -1.
        -11    1    3    3    0    0 -0.10389661858E+02 -0.25129090381E+02  0.63534822041E+00  0.27199630964E+02  0.51100000000E-03 0.  1.
         12    1    3    3    0    0  0.27141086288E+02  0.85452937485E+01 -0.53490162296E+01  0.28952937412E+02  0.00000000000E+00 0. -1.
</event>
<event>
 7    1  0.2972263E-013  0.7246152E+02  0.7816164E-02  0.1226708E+00
        -11   -1    0    0    0    0  0.00000000000E+00  0.00000000000E+00  0.45593999997E+02  0.45594000000E+02  0.51100000000E-03 0.  1.
         11   -1    0    0    0    0 -0.00000000000E+00 -0.00000000000E+00 -0.45593999997E+02  0.45594000000E+02  0.51100000000E-03 0. -1.
    9900012    2    1    2    0    0 -0.60204130648E+01 -0.94689551054E+01  0.14992481092E+02  0.72461522126E+02  0.69999937252E+02 0.  0.
         12    1    1    2    0    0  0.60204130648E+01  0.94689551054E+01 -0.14992481092E+02  0.18726477874E+02  0.00000000000E+00 0. -1.
         11    1    3    3    0    0  0.97894559561E+01  0.43420613576E+01  0.18898463663E+00  0.10710866454E+02  0.51100000000E-03 0. -1.
        -11    1    3    3    0    0 -0.78093196517E+01  0.19446285652E+02 -0.58956124668E+01  0.21769284456E+02  0.51100000000E-03 0.  1.
        -12    1    3    3    0    0 -0.80005493692E+01 -0.33257302115E+02  0.20699108922E+02  0.39981371217E+02  0.00000000000E+00 0.  1.
</event>
<event>
 7    1  0.2972263E-013  0.7246158E+02  0.7816164E-02  0.1226708E+00
        -11   -1    0    0    0    0  0.00000000000E+00  0.00000000000E+00  0.45593999997E+02  0.45594000000E+02  0.51100000000E-03 0.  1.
         11   -1    0    0    0    0 -0.00000000000E+00 -0.00000000000E+00 -0.45593999997E+02  0.45594000000E+02  0.51100000000E-03 0. -1.
    9900012    2    1    2    0    0 -0.92297228014E+01  0.95088058848E+01  0.13231540609E+02  0.72461579113E+02  0.70000011488E+02 0.  0.
         12    1    1    2    0    0  0.92297228014E+01 -0.95088058848E+01 -0.13231540609E+02  0.18726420887E+02  0.00000000000E+00 0. -1.
         11    1    3    3    0    0 -0.15243380454E+02  0.34251230042E+02  0.44265490139E+01  0.37750519777E+02  0.51100000000E-03 0. -1.
        -11    1    3    3    0    0 -0.77730306959E+01 -0.12325008819E+02  0.10754459016E+01  0.14611038044E+02  0.51100000000E-03 0.  1.
        -12    1    3    3    0    0  0.13786688348E+02 -0.12417415339E+02  0.77295456935E+01  0.20100021292E+02  0.00000000000E+00 0.  1.
</event>
<event>
 7    1  0.2972263E-013  0.7246157E+02  0.7816164E-02  0.1226708E+00
        -11   -1    0    0    0    0  0.00000000000E+00  0.00000000000E+00  0.45593999997E+02  0.45594000000E+02  0.51100000000E-03 0.  1.
         11   -1    0    0    0    0 -0.00000000000E+00 -0.00000000000E+00 -0.45593999997E+02  0.45594000000E+02  0.51100000000E-03 0. -1.
    9900012    2    1    2    0    0  0.69325926733E-02 -0.10648876761E+02  0.15403918560E+02  0.72461565974E+02  0.69999994372E+02 0.  0.
         12    1    1    2    0    0 -0.69325926733E-02  0.10648876761E+02 -0.15403918560E+02  0.18726434026E+02  0.00000000000E+00 0. -1.
         11    1    3    3    0    0 -0.18103214034E+02 -0.21120199626E+01  0.10733046462E+02  0.21151483951E+02  0.51100000000E-03 0.  1.
        -11    1    3    3    0    0  0.10029867623E+02 -0.19965684567E+02 -0.15186277374E+02  0.27015732926E+02  0.51100000000E-03 0. -1.
         12    1    3    3    0    0  0.80802790040E+01  0.11428827769E+02  0.19857149472E+02  0.24294349098E+02  0.00000000000E+00 0. -1.
</event>
<event>
 7    1  0.2972263E-013  0.7246156E+02  0.7816164E-02  0.1226708E+00
        -11   -1    0    0    0    0  0.00000000000E+00  0.00000000000E+00  0.45593999997E+02  0.45594000000E+02  0.51100000000E-03 0.  1.
         11   -1    0    0    0    0 -0.00000000000E+00 -0.00000000000E+00 -0.45593999997E+02  0.45594000000E+02  0.51100000000E-03 0. -1.
    9900012    2    1    2    0    0 -0.17765025187E+02 -0.55266328098E+01  0.21306944470E+01  0.72461557494E+02  0.69999983325E+02 0.  0.
         12    1    1    2    0    0  0.17765025187E+02  0.55266328098E+01 -0.21306944470E+01  0.18726442506E+02  0.00000000000E+00 0. -1.
         11    1    3    3    0    0 -0.12317967039E+02 -0.54357185980E+00  0.70424109332E+01  0.14199413169E+02  0.51100000000E-03 0.  1.
        -11    1    3    3    0    0  0.14524392389E+02 -0.17709372399E+02 -0.19811454876E+02  0.30283222906E+02  0.51100000000E-03 0. -1.
         12    1    3    3    0    0 -0.19971450536E+02  0.12726311449E+02  0.14899738390E+02  0.27978921418E+02  0.00000000000E+00 0. -1.
</event>
<event>
 7    1  0.2972263E-013  0.7246152E+02  0.7816164E-02  0.1226708E+00
        -11   -1    0    0    0    0  0.00000000000E+00  0.00000000000E+00  0.45593999997E+02  0.45594000000E+02  0.51100000000E-03 0.  1.
         11   -1    0    0    0    0 -0.00000000000E+00 -0.00000000000E+00 -0.45593999997E+02  0.45594000000E+02  0.51100000000E-03 0. -1.
    9900012    2    1    2    0    0 -0.96184111402E+01  0.15914966511E+02  0.22092809803E+01  0.72461523707E+02  0.69999939311E+02 0.  0.
         12    1    1    2    0    0  0.96184111402E+01 -0.15914966511E+02 -0.22092809803E+01  0.18726476293E+02  0.00000000000E+00 0. -1.
         11    1    3    3    0    0 -0.12865300820E+00 -0.17613098561E+02  0.16932269852E+02  0.24432346492E+02  0.51100000000E-03 0. -1.
        -11    1    3    3    0    0  0.55566814300E+01  0.57445770793E+01  0.62156403460E+01  0.10124774541E+02  0.51100000000E-03 0.  1.
        -12    1    3    3    0    0 -0.15046439562E+02  0.27783487993E+02 -0.20938629218E+02  0.37904402674E+02  0.00000000000E+00 0.  1.
</event>
<event>
 7    1  0.2972263E-013  0.7246157E+02  0.7816164E-02  0.1226708E+00
        -11   -1    0    0    0    0  0.00000000000E+00  0.00000000000E+00  0.45593999997E+02  0.45594000000E+02  0.51100000000E-03 0.  1.
         11   -1    0    0    0    0 -0.00000000000E+00 -0.00000000000E+00 -0.45593999997E+02  0.45594000000E+02  0.51100000000E-03 0. -1.
    9900012    2    1    2    0    0 -0.23273766927E+01  0.15604115552E+02  0.10088304707E+02  0.72461574919E+02  0.70000006025E+02 0.  0.
         12    1    1    2    0    0  0.23273766927E+01 -0.15604115552E+02 -0.10088304707E+02  0.18726425081E+02  0.00000000000E+00 0. -1.
         11    1    3    3    0    0  0.48678687084E+00 -0.10058567246E+02 -0.12041369460E+02  0.15697334654E+02  0.51100000000E-03 0. -1.
        -11    1    3    3    0    0 -0.11240549717E+02  0.85482184074E+01 -0.11425928078E+02  0.18165181766E+02  0.51100000000E-03 0.  1.
        -12    1    3    3    0    0  0.84263861536E+01  0.17114464391E+02  0.33555602245E+02  0.38599058499E+02  0.00000000000E+00 0.  1.
</event>
<event>
 7    1  0.2972263E-013  0.7246158E+02  0.7816164E-02  0.1226708E+00
        -11   -1    0    0    0    0  0.00000000000E+00  0.00000000000E+00  0.45593999997E+02  0.45594000000E+02  0.51100000000E-03 0.  1.
         11   -1    0    0    0    0 -0.00000000000E+00 -0.00000000000E+00 -0.45593999997E+02  0.45594000000E+02  0.51100000000E-03 0. -1.
    9900012    2    1    2    0    0  0.18098315068E+02 -0.76733233025E+00 -0.47477217032E+01  0.72461583669E+02  0.70000017423E+02 0.  0.
         12    1    1    2    0    0 -0.18098315068E+02  0.76733233025E+00  0.47477217032E+01  0.18726416331E+02  0.00000000000E+00 0. -1.
         11    1    3    3    0    0  0.23590282266E+01  0.71979001921E+01  0.29610816138E+02  0.30564280034E+02  0.51100000000E-03 0. -1.
        -11    1    3    3    0    0  0.12876515696E+00 -0.22446711259E+01  0.12687927702E+01  0.25816592114E+01  0.51100000000E-03 0.  1.
        -12    1    3    3    0    0  0.15610521685E+02 -0.57205613964E+01 -0.35627330612E+02  0.39315644424E+02  0.00000000000E+00 0.  1.
</event>
<event>
 7    1  0.2972263E-013  0.7246154E+02  0.7816164E-02  0.1226708E+00
        -11   -1    0    0    0    0  0.00000000000E+00  0.00000000000E+00  0.45593999997E+02  0.45594000000E+02  0.51100000000E-03 0. -1.
         11   -1    0    0    0    0 -0.00000000000E+00 -0.00000000000E+00 -0.45593999997E+02  0.45594000000E+02  0.51100000000E-03 0.  1.
    9900012    2    1    2    0    0  0.30114851246E+01  0.12804503165E+02 -0.13328767536E+02  0.72461537761E+02  0.69999957620E+02 0.  0.
         12    1    1    2    0    0 -0.30114851246E+01 -0.12804503165E+02  0.13328767536E+02  0.18726462239E+02  0.00000000000E+00 0. -1.
         11    1    3    3    0    0  0.92690053516E+01 -0.90640192953E+01 -0.90791973218E+01  0.15827278043E+02  0.51100000000E-03 0. -1.
        -11    1    3    3    0    0  0.22811917494E+02  0.75536433895E+01 -0.73408592211E+00  0.24041214416E+02  0.51100000000E-03 0.  1.
         12    1    3    3    0    0 -0.29069437721E+02  0.14314879071E+02 -0.35154842918E+01  0.32593045302E+02  0.00000000000E+00 0. -1.
</event>
<event>
 7    1  0.2972263E-013  0.7246118E+02  0.7816164E-02  0.1226709E+00
        -11   -1    0    0    0    0  0.00000000000E+00  0.00000000000E+00  0.45593999997E+02  0.45594000000E+02  0.51100000000E-03 0.  1.
         11   -1    0    0    0    0 -0.00000000000E+00 -0.00000000000E+00 -0.45593999997E+02  0.45594000000E+02  0.51100000000E-03 0. -1.
    9900012    2    1    2    0    0  0.97172420750E+01  0.20763069389E+01  0.15873179371E+02  0.72461183202E+02  0.69999495739E+02 0.  0.
         12    1    1    2    0    0 -0.97172420750E+01 -0.20763069389E+01 -0.15873179371E+02  0.18726816798E+02  0.00000000000E+00 0. -1.
         11    1    3    3    0    0  0.44889046121E+01 -0.22025957977E+02 -0.11894815175E+02  0.25431864221E+02  0.51100000000E-03 0. -1.
        -11    1    3    3    0    0 -0.51158753720E+01 -0.13999941458E+01  0.16430060516E+02  0.17264966066E+02  0.51100000000E-03 0.  1.
        -12    1    3    3    0    0  0.10344212835E+02  0.25502259062E+02  0.11337934030E+02  0.29764352916E+02  0.00000000000E+00 0.  1.
</event>
<event>
 7    1  0.2972263E-013  0.7246155E+02  0.7816164E-02  0.1226708E+00
        -11   -1    0    0    0    0  0.00000000000E+00  0.00000000000E+00  0.45593999997E+02  0.45594000000E+02  0.51100000000E-03 0. -1.
         11   -1    0    0    0    0 -0.00000000000E+00 -0.00000000000E+00 -0.45593999997E+02  0.45594000000E+02  0.51100000000E-03 0.  1.
    9900012    2    1    2    0    0  0.68566816922E+01  0.93520610058E+01 -0.14703908113E+02  0.72461546981E+02  0.69999969630E+02 0.  0.
         12    1    1    2    0    0 -0.68566816922E+01 -0.93520610058E+01  0.14703908113E+02  0.18726453019E+02  0.00000000000E+00 0. -1.
         11    1    3    3    0    0 -0.22741753409E+01 -0.87304790544E+01 -0.74766759474E+01  0.11717244620E+02  0.51100000000E-03 0. -1.
        -11    1    3    3    0    0  0.98036316866E+01 -0.11096586121E+02 -0.23162332935E+02  0.27490709067E+02  0.51100000000E-03 0.  1.
         12    1    3    3    0    0 -0.67277465352E+00  0.29179126181E+02  0.15935100769E+02  0.33253593294E+02  0.00000000000E+00 0. -1.
</event>
<event>
 7    1  0.2972263E-013  0.7246180E+02  0.7816164E-02  0.1226707E+00
        -11   -1    0    0    0    0  0.00000000000E+00  0.00000000000E+00  0.45593999997E+02  0.45594000000E+02  0.51100000000E-03 0.  1.
         11   -1    0    0    0    0 -0.00000000000E+00 -0.00000000000E+00 -0.45593999997E+02  0.45594000000E+02  0.51100000000E-03 0. -1.
    9900012    2    1    2    0    0  0.17250050755E+02  0.63855602788E+01  0.35115342247E+01  0.72461801674E+02  0.70000301414E+02 0.  0.
         12    1    1    2    0    0 -0.17250050755E+02 -0.63855602788E+01 -0.35115342247E+01  0.18726198326E+02  0.00000000000E+00 0. -1.
         11    1    3    3    0    0  0.15771931182E+01  0.71838395219E+01  0.89144823121E+01  0.11556949579E+02  0.51100000000E-03 0. -1.
        -11    1    3    3    0    0  0.22320306114E+02  0.24671031622E+02  0.26587114280E+01  0.33375509180E+02  0.51100000000E-03 0.  1.
         12    1    3    3    0    0 -0.66474484775E+01 -0.25469310865E+02 -0.80616595154E+01  0.27529342915E+02  0.00000000000E+00 0. -1.
</event>
<event>
 7    1  0.2972263E-013  0.7246156E+02  0.7816164E-02  0.1226708E+00
        -11   -1    0    0    0    0  0.00000000000E+00  0.00000000000E+00  0.45593999997E+02  0.45594000000E+02  0.51100000000E-03 0. -1.
         11   -1    0    0    0    0 -0.00000000000E+00 -0.00000000000E+00 -0.45593999997E+02  0.45594000000E+02  0.51100000000E-03 0.  1.
    9900012    2    1    2    0    0  0.10614962500E+02  0.14831745598E+02 -0.42451542767E+01  0.72461563041E+02  0.69999990551E+02 0.  0.
         12    1    1    2    0    0 -0.10614962500E+02 -0.14831745598E+02  0.42451542767E+01  0.18726436959E+02  0.00000000000E+00 0. -1.
         11    1    3    3    0    0  0.71960927612E+01 -0.42276728676E+01  0.10382558611E+02  0.13321204618E+02  0.51100000000E-03 0. -1.
        -11    1    3    3    0    0 -0.44707899446E+01  0.67611387755E+01 -0.33956364044E+02  0.34910394148E+02  0.51100000000E-03 0.  1.
         12    1    3    3    0    0  0.78896596831E+01  0.12298279690E+02  0.19328651156E+02  0.24229964275E+02  0.00000000000E+00 0. -1.
</event>
<event>
 7    1  0.2972263E-013  0.7246157E+02  0.7816164E-02  0.1226708E+00
        -11   -1    0    0    0    0  0.00000000000E+00  0.00000000000E+00  0.45593999997E+02  0.45594000000E+02  0.51100000000E-03 0.  1.
         11   -1    0    0    0    0 -0.00000000000E+00 -0.00000000000E+00 -0.45593999997E+02  0.45594000000E+02  0.51100000000E-03 0. -1.
    9900012    2    1    2    0    0  0.42924209856E+01 -0.17848633994E+01  0.18140242734E+02  0.72461574240E+02  0.70000005141E+02 0.  0.
         12    1    1    2    0    0 -0.42924209856E+01  0.17848633994E+01 -0.18140242734E+02  0.18726425760E+02  0.00000000000E+00 0. -1.
         11    1    3    3    0    0  0.11316954782E+02  0.41601059423E+01 -0.17444164456E+02  0.21205631819E+02  0.51100000000E-03 0. -1.
        -11    1    3    3    0    0  0.95279875402E+01  0.92006994705E+01  0.72017439556E+01  0.15076489431E+02  0.51100000000E-03 0.  1.
        -12    1    3    3    0    0 -0.16552521337E+02 -0.15145668812E+02  0.28382663235E+02  0.36179452990E+02  0.00000000000E+00 0.  1.
</event>
<event>
 7    1  0.2972263E-013  0.7246156E+02  0.7816164E-02  0.1226708E+00
        -11   -1    0    0    0    0  0.00000000000E+00  0.00000000000E+00  0.45593999997E+02  0.45594000000E+02  0.51100000000E-03 0. -1.
         11   -1    0    0    0    0 -0.00000000000E+00 -0.00000000000E+00 -0.45593999997E+02  0.45594000000E+02  0.51100000000E-03 0.  1.
    9900012    2    1    2    0    0 -0.74044094435E+01  0.89500356836E+01 -0.14688465001E+02  0.72461563552E+02  0.69999991217E+02 0.  0.
         12    1    1    2    0    0  0.74044094435E+01 -0.89500356836E+01  0.14688465001E+02  0.18726436448E+02  0.00000000000E+00 0. -1.
         11    1    3    3    0    0 -0.10371076311E+02 -0.20964231598E+00 -0.56788363239E+01  0.11825918823E+02  0.51100000000E-03 0. -1.
        -11    1    3    3    0    0 -0.53820179509E+01 -0.14325976934E+02 -0.26210573573E+02  0.30351176248E+02  0.51100000000E-03 0.  1.
         12    1    3    3    0    0  0.83486848185E+01  0.23485654934E+02  0.17200944896E+02  0.30284468481E+02  0.00000000000E+00 0. -1.
</event>
<event>
 7    1  0.2972263E-013  0.7246148E+02  0.7816164E-02  0.1226708E+00
        -11   -1    0    0    0    0  0.00000000000E+00  0.00000000000E+00  0.45593999997E+02  0.45594000000E+02  0.51100000000E-03 0.  1.
         11   -1    0    0    0    0 -0.00000000000E+00 -0.00000000000E+00 -0.45593999997E+02  0.45594000000E+02  0.51100000000E-03 0. -1.
    9900012    2    1    2    0    0 -0.35042585486E+01 -0.86351158186E+01  0.16243073406E+02  0.72461481721E+02  0.69999884616E+02 0.  0.
         12    1    1    2    0    0  0.35042585486E+01  0.86351158186E+01 -0.16243073406E+02  0.18726518279E+02  0.00000000000E+00 0. -1.
         11    1    3    3    0    0  0.10172205723E+02  0.35281063716E+01  0.10722310863E+02  0.15195040452E+02  0.51100000000E-03 0. -1.
        -11    1    3    3    0    0  0.18427339197E+02 -0.14915230656E+02  0.78182568145E+01  0.24963094265E+02  0.51100000000E-03 0.  1.
         12    1    3    3    0    0 -0.32103803468E+02  0.27520084656E+01 -0.22974942708E+01  0.32303347004E+02  0.00000000000E+00 0. -1.
</event>
<event>
 7    1  0.2972263E-013  0.7246155E+02  0.7816164E-02  0.1226708E+00
        -11   -1    0    0    0    0  0.00000000000E+00  0.00000000000E+00  0.45593999997E+02  0.45594000000E+02  0.51100000000E-03 0. -1.
         11   -1    0    0    0    0 -0.00000000000E+00 -0.00000000000E+00 -0.45593999997E+02  0.45594000000E+02  0.51100000000E-03 0.  1.
    9900012    2    1    2    0    0  0.58274631789E+01 -0.11487480980E+02  0.13592587847E+02  0.72461548367E+02  0.69999971436E+02 0.  0.
         12    1    1    2    0    0 -0.58274631789E+01  0.11487480980E+02 -0.13592587847E+02  0.18726451633E+02  0.00000000000E+00 0. -1.
         11    1    3    3    0    0  0.74404957065E+01  0.33445249670E+01  0.71030839853E+01  0.10816682762E+02  0.51100000000E-03 0. -1.
        -11    1    3    3    0    0  0.24701110194E+02 -0.22233994154E+02  0.82833420490E+01  0.34250680236E+02  0.51100000000E-03 0.  1.
         12    1    3    3    0    0 -0.26314142722E+02  0.74019882064E+01 -0.17938381872E+01  0.27394185369E+02  0.00000000000E+00 0. -1.
</event>
<event>
 7    1  0.2972263E-013  0.7246158E+02  0.7816164E-02  0.1226708E+00
        -11   -1    0    0    0    0  0.00000000000E+00  0.00000000000E+00  0.45593999997E+02  0.45594000000E+02  0.51100000000E-03 0. -1.
         11   -1    0    0    0    0 -0.00000000000E+00 -0.00000000000E+00 -0.45593999997E+02  0.45594000000E+02  0.51100000000E-03 0.  1.
    9900012    2    1    2    0    0 -0.51243059986E+01  0.10983236008E+02 -0.14275460910E+02  0.72461580979E+02  0.70000013918E+02 0.  0.
         12    1    1    2    0    0  0.51243059986E+01 -0.10983236008E+02  0.14275460910E+02  0.18726419021E+02  0.00000000000E+00 0. -1.
         11    1    3    3    0    0  0.16226237572E+01  0.10213726423E+01  0.39649237479E+01  0.44041719448E+01  0.51100000000E-03 0. -1.
        -11    1    3    3    0    0 -0.17823661018E+02  0.31107459103E+02 -0.24445670486E+02  0.43392945391E+02  0.51100000000E-03 0.  1.
         12    1    3    3    0    0  0.11076731262E+02 -0.21145595738E+02  0.62052858285E+01  0.24664463642E+02  0.00000000000E+00 0. -1.
</event>
<event>
 7    1  0.3163546E-013  0.7246158E+02  0.7816164E-02  0.1226708E+00
        -11   -1    0    0    0    0  0.00000000000E+00  0.00000000000E+00  0.45593999997E+02  0.45594000000E+02  0.51100000000E-03 0. -1.
         11   -1    0    0    0    0 -0.00000000000E+00 -0.00000000000E+00 -0.45593999997E+02  0.45594000000E+02  0.51100000000E-03 0.  1.
    9900012    2    1    2    0    0  0.15505574922E+02 -0.55304227506E+01 -0.89258257263E+01  0.72461580311E+02  0.70000013049E+02 0.  0.
         12    1    1    2    0    0 -0.15505574922E+02  0.55304227506E+01  0.89258257263E+01  0.18726419689E+02  0.00000000000E+00 0. -1.
         11    1    3    3    0    0 -0.91237359027E+01  0.11261305216E+02  0.20326109313E+02  0.24964179779E+02  0.51100000000E-03 0. -1.
        -11    1    3    3    0    0 -0.27011736809E+01 -0.23074799672E+01  0.15221361704E+01  0.38649323197E+01  0.51100000000E-03 0.  1.
        -12    1    3    3    0    0  0.27330484506E+02 -0.14484247999E+02 -0.30774071210E+02  0.43632468212E+02  0.00000000000E+00 0.  1.
</event>
<event>
 7    1  0.3343231E-013  0.7246156E+02  0.7816164E-02  0.1226708E+00
        -11   -1    0    0    0    0  0.00000000000E+00  0.00000000000E+00  0.45593999997E+02  0.45594000000E+02  0.51100000000E-03 0. -1.
         11   -1    0    0    0    0 -0.00000000000E+00 -0.00000000000E+00 -0.45593999997E+02  0.45594000000E+02  0.51100000000E-03 0.  1.
    9900012    2    1    2    0    0  0.13885824562E+02  0.64691039246E+01 -0.10770982063E+02  0.72461561899E+02  0.69999989063E+02 0.  0.
         12    1    1    2    0    0 -0.13885824562E+02 -0.64691039246E+01  0.10770982063E+02  0.18726438101E+02  0.00000000000E+00 0. -1.
         11    1    3    3    0    0  0.14363089188E+02 -0.10810064919E+02  0.11367862888E+02  0.21269323954E+02  0.51100000000E-03 0. -1.
        -11    1    3    3    0    0  0.56119168383E+01 -0.12045847317E+02  0.10263535114E+01  0.13328520172E+02  0.51100000000E-03 0.  1.
        -12    1    3    3    0    0 -0.60891814638E+01  0.29325016161E+02 -0.23165198462E+02  0.37863717772E+02  0.00000000000E+00 0.  1.
</event>
<event>
 7    1  0.2972263E-013  0.7246155E+02  0.7816164E-02  0.1226708E+00
        -11   -1    0    0    0    0  0.00000000000E+00  0.00000000000E+00  0.45593999997E+02  0.45594000000E+02  0.51100000000E-03 0.  1.
         11   -1    0    0    0    0 -0.00000000000E+00 -0.00000000000E+00 -0.45593999997E+02  0.45594000000E+02  0.51100000000E-03 0. -1.
    9900012    2    1    2    0    0 -0.45548909763E+01 -0.97124265986E+01  0.15349318950E+02  0.72461552006E+02  0.69999976177E+02 0.  0.
         12    1    1    2    0    0  0.45548909763E+01  0.97124265986E+01 -0.15349318950E+02  0.18726447994E+02  0.00000000000E+00 0. -1.
         11    1    3    3    0    0  0.11679288397E+02 -0.80056881104E+01  0.14410422377E+02  0.20202898132E+02  0.51100000000E-03 0. -1.
        -11    1    3    3    0    0 -0.17341315879E+01  0.92963107558E+01  0.22283287201E+02  0.24206889407E+02  0.51100000000E-03 0.  1.
        -12    1    3    3    0    0 -0.14500047786E+02 -0.11003049244E+02 -0.21344390628E+02  0.28051764467E+02  0.00000000000E+00 0.  1.
</event>
<event>
 7    1  0.2972263E-013  0.7246166E+02  0.7816164E-02  0.1226708E+00
        -11   -1    0    0    0    0  0.00000000000E+00  0.00000000000E+00  0.45593999997E+02  0.45594000000E+02  0.51100000000E-03 0.  1.
         11   -1    0    0    0    0 -0.00000000000E+00 -0.00000000000E+00 -0.45593999997E+02  0.45594000000E+02  0.51100000000E-03 0. -1.
    9900012    2    1    2    0    0  0.14602370121E+02  0.16034947512E+01  0.11613581135E+02  0.72461663590E+02  0.70000121535E+02 0.  0.
         12    1    1    2    0    0 -0.14602370121E+02 -0.16034947512E+01 -0.11613581135E+02  0.18726336410E+02  0.00000000000E+00 0. -1.
         11    1    3    3    0    0  0.13716993979E+02  0.12046618726E+02 -0.13332993127E+01  0.18304497640E+02  0.51100000000E-03 0. -1.
        -11    1    3    3    0    0 -0.52430113889E+01 -0.64622742145E+01  0.32360663009E+02  0.33413510248E+02  0.51100000000E-03 0.  1.
         12    1    3    3    0    0  0.61283875303E+01 -0.39808497601E+01 -0.19413782562E+02  0.20743655702E+02  0.00000000000E+00 0. -1.
</event>
<event>
 7    1  0.2972263E-013  0.7246156E+02  0.7816164E-02  0.1226708E+00
        -11   -1    0    0    0    0  0.00000000000E+00  0.00000000000E+00  0.45593999997E+02  0.45594000000E+02  0.51100000000E-03 0. -1.
         11   -1    0    0    0    0 -0.00000000000E+00 -0.00000000000E+00 -0.45593999997E+02  0.45594000000E+02  0.51100000000E-03 0.  1.
    9900012    2    1    2    0    0 -0.54255302174E+01 -0.17822587279E+02 -0.18969898549E+01  0.72461559710E+02  0.69999986211E+02 0.  0.
         12    1    1    2    0    0  0.54255302174E+01  0.17822587279E+02  0.18969898549E+01  0.18726440290E+02  0.00000000000E+00 0. -1.
         11    1    3    3    0    0  0.15479669248E+01  0.21480227182E+01 -0.42896924313E+01  0.50409983748E+01  0.51100000000E-03 0. -1.
        -11    1    3    3    0    0  0.27454931695E+02 -0.85706178834E+01  0.98377311706E+01  0.30397528191E+02  0.51100000000E-03 0.  1.
         12    1    3    3    0    0 -0.34428428837E+02 -0.11399992113E+02 -0.74450285942E+01  0.37023033144E+02  0.00000000000E+00 0. -1.
</event>
<event>
 7    1  0.2972263E-013  0.7246158E+02  0.7816164E-02  0.1226708E+00
        -11   -1    0    0    0    0  0.00000000000E+00  0.00000000000E+00  0.45593999997E+02  0.45594000000E+02  0.51100000000E-03 0.  1.
         11   -1    0    0    0    0 -0.00000000000E+00 -0.00000000000E+00 -0.45593999997E+02  0.45594000000E+02  0.51100000000E-03 0. -1.
    9900012    2    1    2    0    0 -0.82627865777E+01 -0.24303732591E+01  0.16628243942E+02  0.72461578751E+02  0.70000011016E+02 0.  0.
         12    1    1    2    0    0  0.82627865777E+01  0.24303732591E+01 -0.16628243942E+02  0.18726421249E+02  0.00000000000E+00 0. -1.
         11    1    3    3    0    0 -0.17876908672E+02  0.17621720823E+02 -0.74630936727E+01  0.26187910873E+02  0.51100000000E-03 0. -1.
        -11    1    3    3    0    0  0.11302161100E+02  0.62338997190E+01  0.10470183013E+02  0.16620020572E+02  0.51100000000E-03 0.  1.
         12    1    3    3    0    0 -0.16880390058E+01 -0.26285993802E+02  0.13621154602E+02  0.29653647305E+02  0.00000000000E+00 0. -1.
</event>
<event>
 7    1  0.2972263E-013  0.7246159E+02  0.7816164E-02  0.1226708E+00
        -11   -1    0    0    0    0  0.00000000000E+00  0.00000000000E+00  0.45593999997E+02  0.45594000000E+02  0.51100000000E-03 0.  1.
         11   -1    0    0    0    0 -0.00000000000E+00 -0.00000000000E+00 -0.45593999997E+02  0.45594000000E+02  0.51100000000E-03 0. -1.
    9900012    2    1    2    0    0 -0.89554773463E+01  0.28558106489E+01  0.16196358814E+02  0.72461594370E+02  0.70000031363E+02 0.  0.
         12    1    1    2    0    0  0.89554773463E+01 -0.28558106489E+01 -0.16196358814E+02  0.18726405630E+02  0.00000000000E+00 0. -1.
         11    1    3    3    0    0 -0.62484152577E+01  0.12285465178E+02  0.47457284250E+00  0.13791322182E+02  0.51100000000E-03 0. -1.
        -11    1    3    3    0    0  0.12538919567E+02 -0.37814313448E+01  0.32662181216E+02  0.35190081116E+02  0.51100000000E-03 0.  1.
         12    1    3    3    0    0 -0.15245981655E+02 -0.56482231846E+01 -0.16940395244E+02  0.23480191072E+02  0.00000000000E+00 0. -1.
</event>
<event>
 7    1  0.2972263E-013  0.7246156E+02  0.7816164E-02  0.1226708E+00
        -11   -1    0    0    0    0  0.00000000000E+00  0.00000000000E+00  0.45593999997E+02  0.45594000000E+02  0.51100000000E-03 0.  1.
         11   -1    0    0    0    0 -0.00000000000E+00 -0.00000000000E+00 -0.45593999997E+02  0.45594000000E+02  0.51100000000E-03 0. -1.
    9900012    2    1    2    0    0  0.55912367798E+01 -0.17869019420E+02  0.34018338800E+00  0.72461561244E+02  0.69999988210E+02 0.  0.
         12    1    1    2    0    0 -0.55912367798E+01  0.17869019420E+02 -0.34018338800E+00  0.18726438756E+02  0.00000000000E+00 0. -1.
         11    1    3    3    0    0 -0.13163986070E+02  0.15450339240E+02  0.60946222363E+01  0.21193110492E+02  0.51100000000E-03 0. -1.
        -11    1    3    3    0    0 -0.78165002024E+01 -0.12202467227E+02  0.55155407555E+01  0.15505452974E+02  0.51100000000E-03 0.  1.
         12    1    3    3    0    0  0.26571723052E+02 -0.21116891432E+02 -0.11269979604E+02  0.35762997777E+02  0.00000000000E+00 0. -1.
</event>
<event>
 7    1  0.2972263E-013  0.7246159E+02  0.7816164E-02  0.1226708E+00
        -11   -1    0    0    0    0  0.00000000000E+00  0.00000000000E+00  0.45593999997E+02  0.45594000000E+02  0.51100000000E-03 0.  1.
         11   -1    0    0    0    0 -0.00000000000E+00 -0.00000000000E+00 -0.45593999997E+02  0.45594000000E+02  0.51100000000E-03 0. -1.
    9900012    2    1    2    0    0 -0.12784069776E+02  0.10904282973E+02  0.82669674607E+01  0.72461586083E+02  0.70000020568E+02 0.  0.
         12    1    1    2    0    0  0.12784069776E+02 -0.10904282973E+02 -0.82669674607E+01  0.18726413917E+02  0.00000000000E+00 0. -1.
         11    1    3    3    0    0  0.63625607611E+01  0.10868775017E+02 -0.16421481085E+01  0.12700751965E+02  0.51100000000E-03 0. -1.
        -11    1    3    3    0    0  0.59927225489E+01 -0.22516842892E+02  0.11431554350E+02  0.25953831557E+02  0.51100000000E-03 0.  1.
         12    1    3    3    0    0 -0.25139353086E+02  0.22552350848E+02 -0.15224387805E+01  0.33807002561E+02  0.00000000000E+00 0. -1.
</event>
<event>
 7    1  0.2972263E-013  0.7246148E+02  0.7816164E-02  0.1226708E+00
        -11   -1    0    0    0    0  0.00000000000E+00  0.00000000000E+00  0.45593999997E+02  0.45594000000E+02  0.51100000000E-03 0.  1.
         11   -1    0    0    0    0 -0.00000000000E+00 -0.00000000000E+00 -0.45593999997E+02  0.45594000000E+02  0.51100000000E-03 0. -1.
    9900012    2    1    2    0    0 -0.53713782288E+01 -0.68994989419E+01  0.16559827894E+02  0.72461476308E+02  0.69999877565E+02 0.  0.
         12    1    1    2    0    0  0.53713782288E+01  0.68994989419E+01 -0.16559827894E+02  0.18726523692E+02  0.00000000000E+00 0. -1.
         11    1    3    3    0    0  0.18452347080E+01 -0.31383719724E+01 -0.61686166330E+01  0.71628277371E+01  0.51100000000E-03 0. -1.
        -11    1    3    3    0    0  0.22298592871E+02  0.14415283716E+02  0.98777896930E+01  0.28330167280E+02  0.51100000000E-03 0.  1.
         12    1    3    3    0    0 -0.29515205808E+02 -0.18176410685E+02  0.12850654834E+02  0.36968481291E+02  0.00000000000E+00 0. -1.
</event>
<event>
 7    1  0.2972263E-013  0.7246155E+02  0.7816164E-02  0.1226708E+00
        -11   -1    0    0    0    0  0.00000000000E+00  0.00000000000E+00  0.45593999997E+02  0.45594000000E+02  0.51100000000E-03 0.  1.
         11   -1    0    0    0    0 -0.00000000000E+00 -0.00000000000E+00 -0.45593999997E+02  0.45594000000E+02  0.51100000000E-03 0. -1.
    9900012    2    1    2    0    0 -0.43823972603E+01  0.39276995888E+01  0.17777726592E+02  0.72461553659E+02  0.69999978329E+02 0.  0.
         12    1    1    2    0    0  0.43823972603E+01 -0.39276995888E+01 -0.17777726592E+02  0.18726446341E+02  0.00000000000E+00 0. -1.
         11    1    3    3    0    0  0.35069185086E+01  0.22593230139E+01  0.10654619269E+01  0.43056041720E+01  0.51100000000E-03 0. -1.
        -11    1    3    3    0    0 -0.18657062671E+02  0.29789596490E+02  0.36708624137E+01  0.35340929213E+02  0.51100000000E-03 0.  1.
         12    1    3    3    0    0  0.10767746902E+02 -0.28121219915E+02  0.13041402251E+02  0.32815020273E+02  0.00000000000E+00 0. -1.
</event>
<event>
 7    1  0.2972263E-013  0.7246156E+02  0.7816164E-02  0.1226708E+00
        -11   -1    0    0    0    0  0.00000000000E+00  0.00000000000E+00  0.45593999997E+02  0.45594000000E+02  0.51100000000E-03 0.  1.
         11   -1    0    0    0    0 -0.00000000000E+00 -0.00000000000E+00 -0.45593999997E+02  0.45594000000E+02  0.51100000000E-03 0. -1.
    9900012    2    1    2    0    0 -0.16846267922E+02  0.73987246324E+01 -0.34845077918E+01  0.72461557101E+02  0.69999982814E+02 0.  0.
         12    1    1    2    0    0  0.16846267922E+02 -0.73987246324E+01  0.34845077918E+01  0.18726442899E+02  0.00000000000E+00 0. -1.
         11    1    3    3    0    0 -0.13469137686E+02  0.20643166508E+02 -0.72779429577E+01  0.25700709084E+02  0.51100000000E-03 0. -1.
        -11    1    3    3    0    0 -0.11361921571E+02  0.11248667896E+02  0.11701190370E+02  0.19812714291E+02  0.51100000000E-03 0.  1.
        -12    1    3    3    0    0  0.79847913358E+01 -0.24493109771E+02 -0.79077552046E+01  0.26948133726E+02  0.00000000000E+00 0.  1.
</event>
<event>
 7    1  0.2972263E-013  0.7246159E+02  0.7816164E-02  0.1226708E+00
        -11   -1    0    0    0    0  0.00000000000E+00  0.00000000000E+00  0.45593999997E+02  0.45594000000E+02  0.51100000000E-03 0.  1.
         11   -1    0    0    0    0 -0.00000000000E+00 -0.00000000000E+00 -0.45593999997E+02  0.45594000000E+02  0.51100000000E-03 0. -1.
    9900012    2    1    2    0    0 -0.16579273726E+02 -0.86150909160E+01  0.12595107635E+01  0.72461588808E+02  0.70000024118E+02 0.  0.
         12    1    1    2    0    0  0.16579273726E+02  0.86150909160E+01 -0.12595107635E+01  0.18726411192E+02  0.00000000000E+00 0. -1.
         11    1    3    3    0    0 -0.24079200372E+02 -0.35478747403E+01  0.46715768340E+01  0.24783440764E+02  0.51100000000E-03 0. -1.
        -11    1    3    3    0    0 -0.70887071195E+01 -0.13222568931E+02  0.16086457913E+02  0.21996823093E+02  0.51100000000E-03 0.  1.
        -12    1    3    3    0    0  0.14588633766E+02  0.81553527552E+01 -0.19498523983E+02  0.25681324951E+02  0.00000000000E+00 0.  1.
</event>
<event>
 7    1  0.2972263E-013  0.7246157E+02  0.7816164E-02  0.1226708E+00
        -11   -1    0    0    0    0  0.00000000000E+00  0.00000000000E+00  0.45593999997E+02  0.45594000000E+02  0.51100000000E-03 0. -1.
         11   -1    0    0    0    0 -0.00000000000E+00 -0.00000000000E+00 -0.45593999997E+02  0.45594000000E+02  0.51100000000E-03 0.  1.
    9900012    2    1    2    0    0 -0.36038772037E+01  0.17355040335E+02  0.60410196466E+01  0.72461567496E+02  0.69999996355E+02 0.  0.
         12    1    1    2    0    0  0.36038772037E+01 -0.17355040335E+02 -0.60410196466E+01  0.18726432504E+02  0.00000000000E+00 0. -1.
         11    1    3    3    0    0 -0.38649716146E+01 -0.30045378092E+01  0.35224662602E+01  0.60310050443E+01  0.51100000000E-03 0. -1.
        -11    1    3    3    0    0 -0.33023122412E+01  0.31522930441E+02 -0.22455516637E+02  0.38843926648E+02  0.51100000000E-03 0.  1.
         12    1    3    3    0    0  0.35634066521E+01 -0.11163352297E+02  0.24974070023E+02  0.27586635804E+02  0.00000000000E+00 0. -1.
</event>
<event>
 7    1  0.2972263E-013  0.7246156E+02  0.7816164E-02  0.1226708E+00
        -11   -1    0    0    0    0  0.00000000000E+00  0.00000000000E+00  0.45593999997E+02  0.45594000000E+02  0.51100000000E-03 0.  1.
         11   -1    0    0    0    0 -0.00000000000E+00 -0.00000000000E+00 -0.45593999997E+02  0.45594000000E+02  0.51100000000E-03 0. -1.
    9900012    2    1    2    0    0  0.12435438430E+02 -0.75517511995E+01  0.11790274404E+02  0.72461557582E+02  0.69999983440E+02 0.  0.
         12    1    1    2    0    0 -0.12435438430E+02  0.75517511995E+01 -0.11790274404E+02  0.18726442418E+02  0.00000000000E+00 0. -1.
         11    1    3    3    0    0  0.40934088684E+01 -0.21613004538E+02  0.96495445085E+01  0.24020650924E+02  0.51100000000E-03 0. -1.
        -11    1    3    3    0    0  0.39612935075E+01 -0.77189760380E+01  0.18777970584E+02  0.20685420393E+02  0.51100000000E-03 0.  1.
         12    1    3    3    0    0  0.43807360536E+01  0.21780229376E+02 -0.16637240689E+02  0.27755486265E+02  0.00000000000E+00 0. -1.
</event>
<event>
 7    1  0.2972263E-013  0.7246159E+02  0.7816164E-02  0.1226708E+00
        -11   -1    0    0    0    0  0.00000000000E+00  0.00000000000E+00  0.45593999997E+02  0.45594000000E+02  0.51100000000E-03 0. -1.
         11   -1    0    0    0    0 -0.00000000000E+00 -0.00000000000E+00 -0.45593999997E+02  0.45594000000E+02  0.51100000000E-03 0.  1.
    9900012    2    1    2    0    0 -0.88960278757E+00 -0.18513872906E+02 -0.26690130276E+01  0.72461587806E+02  0.70000022813E+02 0.  0.
         12    1    1    2    0    0  0.88960278757E+00  0.18513872906E+02  0.26690130276E+01  0.18726412194E+02  0.00000000000E+00 0. -1.
         11    1    3    3    0    0 -0.59390073525E-01  0.10449730709E+01  0.75946025216E+01  0.76663866079E+01  0.51100000000E-03 0. -1.
        -11    1    3    3    0    0  0.14486535835E+02  0.17320702827E+02 -0.10402575049E+02  0.24861215474E+02  0.51100000000E-03 0.  1.
         12    1    3    3    0    0 -0.15316748549E+02 -0.36879548804E+02  0.13895949991E+00  0.39933985725E+02  0.00000000000E+00 0. -1.
</event>
<event>
 7    1  0.2972263E-013  0.7246153E+02  0.7816164E-02  0.1226708E+00
        -11   -1    0    0    0    0  0.00000000000E+00  0.00000000000E+00  0.45593999997E+02  0.45594000000E+02  0.51100000000E-03 0.  1.
         11   -1    0    0    0    0 -0.00000000000E+00 -0.00000000000E+00 -0.45593999997E+02  0.45594000000E+02  0.51100000000E-03 0. -1.
    9900012    2    1    2    0    0  0.13897887891E+02  0.77771022573E+01  0.98511951586E+01  0.72461530675E+02  0.69999948388E+02 0.  0.
         12    1    1    2    0    0 -0.13897887891E+02 -0.77771022573E+01 -0.98511951586E+01  0.18726469325E+02  0.00000000000E+00 0. -1.
         11    1    3    3    0    0 -0.16232269646E+02  0.29786516317E+01 -0.90654682078E+00  0.16528181110E+02  0.51100000000E-03 0. -1.
        -11    1    3    3    0    0  0.12881279681E+01  0.20975075769E+02  0.88725345254E+01  0.22810851504E+02  0.51100000000E-03 0.  1.
        -12    1    3    3    0    0  0.28842029568E+02 -0.16176625143E+02  0.18852074540E+01  0.33122498061E+02  0.00000000000E+00 0.  1.
</event>
<event>
 7    1  0.2972263E-013  0.7246150E+02  0.7816164E-02  0.1226708E+00
        -11   -1    0    0    0    0  0.00000000000E+00  0.00000000000E+00  0.45593999997E+02  0.45594000000E+02  0.51100000000E-03 0.  1.
         11   -1    0    0    0    0 -0.00000000000E+00 -0.00000000000E+00 -0.45593999997E+02  0.45594000000E+02  0.51100000000E-03 0. -1.
    9900012    2    1    2    0    0 -0.20982791892E-01 -0.12383352182E+02  0.14047562191E+02  0.72461498590E+02  0.69999906592E+02 0.  0.
         12    1    1    2    0    0  0.20982791892E-01  0.12383352182E+02 -0.14047562191E+02  0.18726501410E+02  0.00000000000E+00 0. -1.
         11    1    3    3    0    0  0.10477868296E+02 -0.94572372092E+01  0.74137626963E+01  0.15943303837E+02  0.51100000000E-03 0. -1.
        -11    1    3    3    0    0 -0.16891927188E+02  0.15457431309E+02  0.21974714236E+02  0.31735744088E+02  0.51100000000E-03 0.  1.
         12    1    3    3    0    0  0.63930760999E+01 -0.18383546281E+02 -0.15340914741E+02  0.24782450665E+02  0.00000000000E+00 0. -1.
</event>
<event>
 7    1  0.2972263E-013  0.7246154E+02  0.7816164E-02  0.1226708E+00
        -11   -1    0    0    0    0  0.00000000000E+00  0.00000000000E+00  0.45593999997E+02  0.45594000000E+02  0.51100000000E-03 0. -1.
         11   -1    0    0    0    0 -0.00000000000E+00 -0.00000000000E+00 -0.45593999997E+02  0.45594000000E+02  0.51100000000E-03 0.  1.
    9900012    2    1    2    0    0  0.15599496192E+02 -0.46561261994E+01  0.92550822242E+01  0.72461539053E+02  0.69999959303E+02 0.  0.
         12    1    1    2    0    0 -0.15599496192E+02  0.46561261994E+01 -0.92550822242E+01  0.18726460947E+02  0.00000000000E+00 0. -1.
         11    1    3    3    0    0  0.28361681161E+02 -0.35237694571E+01  0.44141171846E+01  0.28918615808E+02  0.51100000000E-03 0. -1.
        -11    1    3    3    0    0  0.13900778310E+02  0.49706253881E+01 -0.30508226185E+01  0.15074689823E+02  0.51100000000E-03 0.  1.
        -12    1    3    3    0    0 -0.26662963279E+02 -0.61029821305E+01  0.78917876581E+01  0.28468233422E+02  0.00000000000E+00 0.  1.
</event>
<event>
 7    1  0.2972263E-013  0.7246157E+02  0.7816164E-02  0.1226708E+00
        -11   -1    0    0    0    0  0.00000000000E+00  0.00000000000E+00  0.45593999997E+02  0.45594000000E+02  0.51100000000E-03 0.  1.
         11   -1    0    0    0    0 -0.00000000000E+00 -0.00000000000E+00 -0.45593999997E+02  0.45594000000E+02  0.51100000000E-03 0. -1.
    9900012    2    1    2    0    0 -0.13232981820E+02 -0.11725920972E+02 -0.61701159858E+01  0.72461565162E+02  0.69999993314E+02 0.  0.
         12    1    1    2    0    0  0.13232981820E+02  0.11725920972E+02  0.61701159858E+01  0.18726434838E+02  0.00000000000E+00 0. -1.
         11    1    3    3    0    0 -0.27651446836E+02  0.22583263209E+01  0.76275513834E+01  0.28772940244E+02  0.51100000000E-03 0. -1.
        -11    1    3    3    0    0 -0.67639200523E+01 -0.46219310694E+01  0.83116887711E+01  0.11670348400E+02  0.51100000000E-03 0.  1.
        -12    1    3    3    0    0  0.21182385068E+02 -0.93623162234E+01 -0.22109356140E+02  0.32018276518E+02  0.00000000000E+00 0.  1.
</event>
<event>
 7    1  0.2972263E-013  0.7246158E+02  0.7816164E-02  0.1226708E+00
        -11   -1    0    0    0    0  0.00000000000E+00  0.00000000000E+00  0.45593999997E+02  0.45594000000E+02  0.51100000000E-03 0.  1.
         11   -1    0    0    0    0 -0.00000000000E+00 -0.00000000000E+00 -0.45593999997E+02  0.45594000000E+02  0.51100000000E-03 0. -1.
    9900012    2    1    2    0    0 -0.56336624862E+01 -0.15263273386E+02  0.92721700780E+01  0.72461580016E+02  0.70000012665E+02 0.  0.
         12    1    1    2    0    0  0.56336624862E+01  0.15263273386E+02 -0.92721700780E+01  0.18726419984E+02  0.00000000000E+00 0. -1.
         11    1    3    3    0    0 -0.23530828424E+00  0.13463737194E+02 -0.38807890939E+01  0.14013854340E+02  0.51100000000E-03 0. -1.
        -11    1    3    3    0    0 -0.15938128053E+02  0.75518363079E+01  0.10612683124E+02  0.20583566281E+02  0.51100000000E-03 0.  1.
         12    1    3    3    0    0  0.10539773852E+02 -0.36278846887E+02  0.25402760477E+01  0.37864159395E+02  0.00000000000E+00 0. -1.
</event>
<event>
 7    1  0.2972263E-013  0.7246159E+02  0.7816164E-02  0.1226708E+00
        -11   -1    0    0    0    0  0.00000000000E+00  0.00000000000E+00  0.45593999997E+02  0.45594000000E+02  0.51100000000E-03 0.  1.
         11   -1    0    0    0    0 -0.00000000000E+00 -0.00000000000E+00 -0.45593999997E+02  0.45594000000E+02  0.51100000000E-03 0. -1.
    9900012    2    1    2    0    0  0.51412920566E+01  0.14152094568E+02  0.11133904811E+02  0.72461588144E+02  0.70000023252E+02 0.  0.
         12    1    1    2    0    0 -0.51412920566E+01 -0.14152094568E+02 -0.11133904811E+02  0.18726411856E+02  0.00000000000E+00 0. -1.
         11    1    3    3    0    0 -0.52740416931E-01 -0.59540618937E+01 -0.21248781569E+02  0.22067268816E+02  0.51100000000E-03 0. -1.
        -11    1    3    3    0    0 -0.27941502747E+01 -0.35701114007E+01  0.23409526716E+02  0.23844473416E+02  0.51100000000E-03 0.  1.
        -12    1    3    3    0    0  0.79881827483E+01  0.23676267863E+02  0.89731596638E+01  0.26549845911E+02  0.00000000000E+00 0.  1.
</event>
<event>
 7    1  0.2972263E-013  0.7246174E+02  0.7816164E-02  0.1226708E+00
        -11   -1    0    0    0    0  0.00000000000E+00  0.00000000000E+00  0.45593999997E+02  0.45594000000E+02  0.51100000000E-03 0.  1.
         11   -1    0    0    0    0 -0.00000000000E+00 -0.00000000000E+00 -0.45593999997E+02  0.45594000000E+02  0.51100000000E-03 0. -1.
    9900012    2    1    2    0    0  0.17906753035E+02 -0.53235401480E+01  0.12965027167E+01  0.72461740275E+02  0.70000221431E+02 0.  0.
         12    1    1    2    0    0 -0.17906753035E+02  0.53235401480E+01 -0.12965027167E+01  0.18726259725E+02  0.00000000000E+00 0. -1.
         11    1    3    3    0    0 -0.97990183365E+00  0.47989649311E+01 -0.22278561726E+00  0.49030506530E+01  0.51100000000E-03 0. -1.
        -11    1    3    3    0    0  0.25589519718E+01  0.26157493928E+02 -0.62667223793E+01  0.27019151235E+02  0.51100000000E-03 0.  1.
         12    1    3    3    0    0  0.16327702897E+02 -0.36279999007E+02  0.77860107132E+01  0.40539538388E+02  0.00000000000E+00 0. -1.
</event>
<event>
 7    1  0.2972263E-013  0.7246155E+02  0.7816164E-02  0.1226708E+00
        -11   -1    0    0    0    0  0.00000000000E+00  0.00000000000E+00  0.45593999997E+02  0.45594000000E+02  0.51100000000E-03 0.  1.
         11   -1    0    0    0    0 -0.00000000000E+00 -0.00000000000E+00 -0.45593999997E+02  0.45594000000E+02  0.51100000000E-03 0. -1.
    9900012    2    1    2    0    0  0.46459050916E+01 -0.17530471703E+02 -0.46667106919E+01  0.72461546494E+02  0.69999968995E+02 0.  0.
         12    1    1    2    0    0 -0.46459050916E+01  0.17530471703E+02  0.46667106919E+01  0.18726453506E+02  0.00000000000E+00 0. -1.
         11    1    3    3    0    0  0.16142400454E+02 -0.19759116740E+02 -0.21272864157E+02  0.33219490311E+02  0.51100000000E-03 0. -1.
        -11    1    3    3    0    0 -0.33603906479E+01  0.25013644461E+01 -0.10306393670E+02  0.11125232588E+02  0.51100000000E-03 0.  1.
        -12    1    3    3    0    0 -0.81361047149E+01 -0.27271940866E+00  0.26912547135E+02  0.28116823596E+02  0.00000000000E+00 0.  1.
</event>
<event>
 7    1  0.2972263E-013  0.7246156E+02  0.7816164E-02  0.1226708E+00
        -11   -1    0    0    0    0  0.00000000000E+00  0.00000000000E+00  0.45593999997E+02  0.45594000000E+02  0.51100000000E-03 0.  1.
         11   -1    0    0    0    0 -0.00000000000E+00 -0.00000000000E+00 -0.45593999997E+02  0.45594000000E+02  0.51100000000E-03 0. -1.
    9900012    2    1    2    0    0 -0.16203349933E+02  0.58715939962E+01  0.73249935914E+01  0.72461556232E+02  0.69999981681E+02 0.  0.
         12    1    1    2    0    0  0.16203349933E+02 -0.58715939962E+01 -0.73249935914E+01  0.18726443768E+02  0.00000000000E+00 0. -1.
         11    1    3    3    0    0 -0.11200105168E+02 -0.20123763816E+02  0.17901138312E+02  0.29169487123E+02  0.51100000000E-03 0. -1.
        -11    1    3    3    0    0  0.11427084858E+02  0.80348251847E+00 -0.13870171387E+00  0.11456137697E+02  0.51100000000E-03 0.  1.
        -12    1    3    3    0    0 -0.16430329622E+02  0.25191875294E+02 -0.10437443007E+02  0.31835931411E+02  0.00000000000E+00 0.  1.
</event>
<event>
 7    1  0.2972263E-013  0.7246158E+02  0.7816164E-02  0.1226708E+00
        -11   -1    0    0    0    0  0.00000000000E+00  0.00000000000E+00  0.45593999997E+02  0.45594000000E+02  0.51100000000E-03 0.  1.
         11   -1    0    0    0    0 -0.00000000000E+00 -0.00000000000E+00 -0.45593999997E+02  0.45594000000E+02  0.51100000000E-03 0. -1.
    9900012    2    1    2    0    0  0.15900894975E+02  0.85725000017E+01 -0.49348442781E+01  0.72461577348E+02  0.70000009189E+02 0.  0.
         12    1    1    2    0    0 -0.15900894975E+02 -0.85725000017E+01  0.49348442781E+01  0.18726422652E+02  0.00000000000E+00 0. -1.
         11    1    3    3    0    0  0.97588708821E+01  0.75799303839E+01 -0.26518165287E+02  0.29255836956E+02  0.51100000000E-03 0. -1.
        -11    1    3    3    0    0  0.11269321785E+02  0.33535305371E+01 -0.72578374206E+01  0.13817379811E+02  0.51100000000E-03 0.  1.
        -12    1    3    3    0    0 -0.51272976913E+01 -0.23609609193E+01  0.28841158430E+02  0.29388360581E+02  0.00000000000E+00 0.  1.
</event>
<event>
 7    1  0.2972263E-013  0.7246156E+02  0.7816164E-02  0.1226708E+00
        -11   -1    0    0    0    0  0.00000000000E+00  0.00000000000E+00  0.45593999997E+02  0.45594000000E+02  0.51100000000E-03 0. -1.
         11   -1    0    0    0    0 -0.00000000000E+00 -0.00000000000E+00 -0.45593999997E+02  0.45594000000E+02  0.51100000000E-03 0.  1.
    9900012    2    1    2    0    0 -0.15924140504E+02  0.98038869827E+01 -0.99257202866E+00  0.72461557465E+02  0.69999983288E+02 0.  0.
         12    1    1    2    0    0  0.15924140504E+02 -0.98038869827E+01  0.99257202866E+00  0.18726442535E+02  0.00000000000E+00 0. -1.
         11    1    3    3    0    0  0.10874629515E+01 -0.15609303329E+02  0.17128212847E+00  0.15648075406E+02  0.51100000000E-03 0. -1.
        -11    1    3    3    0    0 -0.11952024025E+02 -0.12472071352E+02 -0.60009193692E+01  0.18287002916E+02  0.51100000000E-03 0.  1.
         12    1    3    3    0    0 -0.50595794311E+01  0.37885261664E+02  0.48370652121E+01  0.38526479144E+02  0.00000000000E+00 0. -1.
</event>
<event>
 7    1  0.4042746E-013  0.7246154E+02  0.7816164E-02  0.1226708E+00
        -11   -1    0    0    0    0  0.00000000000E+00  0.00000000000E+00  0.45593999997E+02  0.45594000000E+02  0.51100000000E-03 0. -1.
         11   -1    0    0    0    0 -0.00000000000E+00 -0.00000000000E+00 -0.45593999997E+02  0.45594000000E+02  0.51100000000E-03 0.  1.
    9900012    2    1    2    0    0  0.17245897808E+01  0.63309927125E+01 -0.17539230186E+02  0.72461540801E+02  0.69999961579E+02 0.  0.
         12    1    1    2    0    0 -0.17245897808E+01 -0.63309927125E+01  0.17539230186E+02  0.18726459199E+02  0.00000000000E+00 0. -1.
         11    1    3    3    0    0  0.16006813460E+02  0.27236466026E+02  0.30665392471E+01  0.31740302802E+02  0.51100000000E-03 0. -1.
        -11    1    3    3    0    0  0.58833854659E+01 -0.90711605871E+01 -0.11057597957E+02  0.15465143122E+02  0.51100000000E-03 0.  1.
        -12    1    3    3    0    0 -0.20165609145E+02 -0.11834312726E+02 -0.95481714754E+01  0.25256094877E+02  0.00000000000E+00 0.  1.
</event>
<event>
 7    1  0.2972263E-013  0.7246154E+02  0.7816164E-02  0.1226708E+00
        -11   -1    0    0    0    0  0.00000000000E+00  0.00000000000E+00  0.45593999997E+02  0.45594000000E+02  0.51100000000E-03 0.  1.
         11   -1    0    0    0    0 -0.00000000000E+00 -0.00000000000E+00 -0.45593999997E+02  0.45594000000E+02  0.51100000000E-03 0. -1.
    9900012    2    1    2    0    0 -0.78112432982E+01 -0.12501023952E+02  0.11549420274E+02  0.72461541969E+02  0.69999963101E+02 0.  0.
         12    1    1    2    0    0  0.78112432982E+01  0.12501023952E+02 -0.11549420274E+02  0.18726458031E+02  0.00000000000E+00 0. -1.
         11    1    3    3    0    0  0.59288931721E+01  0.14166429460E+02 -0.11009993239E+02  0.18896016757E+02  0.51100000000E-03 0. -1.
        -11    1    3    3    0    0  0.55545214266E+01  0.60520097336E+01  0.11255629111E+02  0.13934443549E+02  0.51100000000E-03 0.  1.
        -12    1    3    3    0    0 -0.19294657897E+02 -0.32719463146E+02  0.11303784403E+02  0.39631081662E+02  0.00000000000E+00 0.  1.
</event>
<event>
 7    1  0.2972263E-013  0.7246165E+02  0.7816164E-02  0.1226708E+00
        -11   -1    0    0    0    0  0.00000000000E+00  0.00000000000E+00  0.45593999997E+02  0.45594000000E+02  0.51100000000E-03 0. -1.
         11   -1    0    0    0    0 -0.00000000000E+00 -0.00000000000E+00 -0.45593999997E+02  0.45594000000E+02  0.51100000000E-03 0.  1.
    9900012    2    1    2    0    0  0.12531487704E+02  0.60780114904E+01 -0.12517817297E+02  0.72461650713E+02  0.70000104760E+02 0.  0.
         12    1    1    2    0    0 -0.12531487704E+02 -0.60780114904E+01  0.12517817297E+02  0.18726349287E+02  0.00000000000E+00 0. -1.
         11    1    3    3    0    0 -0.19499567350E+02 -0.11460422381E+02  0.58900086917E+01  0.23372347136E+02  0.51100000000E-03 0. -1.
        -11    1    3    3    0    0  0.39751669750E+00  0.13212543993E+02 -0.26380464801E+01  0.13479192401E+02  0.51100000000E-03 0.  1.
         12    1    3    3    0    0  0.31633538357E+02  0.43258898784E+01 -0.15769779508E+02  0.35610111176E+02  0.00000000000E+00 0. -1.
</event>
<event>
 7    1  0.3635776E-013  0.7246176E+02  0.7816164E-02  0.1226708E+00
        -11   -1    0    0    0    0  0.00000000000E+00  0.00000000000E+00  0.45593999997E+02  0.45594000000E+02  0.51100000000E-03 0. -1.
         11   -1    0    0    0    0 -0.00000000000E+00 -0.00000000000E+00 -0.45593999997E+02  0.45594000000E+02  0.51100000000E-03 0.  1.
    9900012    2    1    2    0    0  0.48523115303E+01  0.98333272592E+01 -0.15180011258E+02  0.72461761884E+02  0.70000249581E+02 0.  0.
         12    1    1    2    0    0 -0.48523115303E+01 -0.98333272592E+01  0.15180011258E+02  0.18726238116E+02  0.00000000000E+00 0. -1.
         11    1    3    3    0    0  0.30054187175E+02  0.28926478031E+00  0.48541166956E+01  0.30445037198E+02  0.51100000000E-03 0. -1.
        -11    1    3    3    0    0  0.22569904608E+01 -0.40536190268E+01 -0.76925778350E+01  0.89834062116E+01  0.51100000000E-03 0.  1.
        -12    1    3    3    0    0 -0.27458866105E+02  0.13597681506E+02 -0.12341550119E+02  0.33033318475E+02  0.00000000000E+00 0.  1.
</event>
<event>
 7    1  0.2972263E-013  0.7246155E+02  0.7816164E-02  0.1226708E+00
        -11   -1    0    0    0    0  0.00000000000E+00  0.00000000000E+00  0.45593999997E+02  0.45594000000E+02  0.51100000000E-03 0.  1.
         11   -1    0    0    0    0 -0.00000000000E+00 -0.00000000000E+00 -0.45593999997E+02  0.45594000000E+02  0.51100000000E-03 0. -1.
    9900012    2    1    2    0    0 -0.14201895206E+02  0.12143641375E+02  0.12320915915E+01  0.72461550711E+02  0.69999974489E+02 0.  0.
         12    1    1    2    0    0  0.14201895206E+02 -0.12143641375E+02 -0.12320915915E+01  0.18726449289E+02  0.00000000000E+00 0. -1.
         11    1    3    3    0    0  0.21818772758E+01 -0.11606861773E+01 -0.21064565769E+02  0.21209047884E+02  0.51100000000E-03 0. -1.
        -11    1    3    3    0    0 -0.17655246823E+02 -0.87297172298E+01 -0.25592422821E+00  0.19697238404E+02  0.51100000000E-03 0.  1.
        -12    1    3    3    0    0  0.12714743413E+01  0.22034044782E+02  0.22552581589E+02  0.31555264423E+02  0.00000000000E+00 0.  1.
</event>
<event>
 7    1  0.2972263E-013  0.7246156E+02  0.7816164E-02  0.1226708E+00
        -11   -1    0    0    0    0  0.00000000000E+00  0.00000000000E+00  0.45593999997E+02  0.45594000000E+02  0.51100000000E-03 0.  1.
         11   -1    0    0    0    0 -0.00000000000E+00 -0.00000000000E+00 -0.45593999997E+02  0.45594000000E+02  0.51100000000E-03 0. -1.
    9900012    2    1    2    0    0  0.98026155952E-01 -0.17255776035E+02  0.72737935526E+01  0.72461561782E+02  0.69999988911E+02 0.  0.
         12    1    1    2    0    0 -0.98026155952E-01  0.17255776035E+02 -0.72737935526E+01  0.18726438218E+02  0.00000000000E+00 0. -1.
         11    1    3    3    0    0 -0.18651619409E+02  0.18055749031E+02 -0.43364445811E+01  0.26319151421E+02  0.51100000000E-03 0. -1.
        -11    1    3    3    0    0  0.11974679559E+01 -0.35512134532E+01  0.90139232432E+01  0.97619597925E+01  0.51100000000E-03 0.  1.
        -12    1    3    3    0    0  0.17552177610E+02 -0.31760311612E+02  0.25963148904E+01  0.36380450568E+02  0.00000000000E+00 0.  1.
</event>
<event>
 7    1  0.2972263E-013  0.7246153E+02  0.7816164E-02  0.1226708E+00
        -11   -1    0    0    0    0  0.00000000000E+00  0.00000000000E+00  0.45593999997E+02  0.45594000000E+02  0.51100000000E-03 0. -1.
         11   -1    0    0    0    0 -0.00000000000E+00 -0.00000000000E+00 -0.45593999997E+02  0.45594000000E+02  0.51100000000E-03 0.  1.
    9900012    2    1    2    0    0 -0.13168521877E+02 -0.88845762440E+01 -0.99163978240E+01  0.72461531853E+02  0.69999949923E+02 0.  0.
         12    1    1    2    0    0  0.13168521877E+02  0.88845762440E+01  0.99163978240E+01  0.18726468147E+02  0.00000000000E+00 0. -1.
         11    1    3    3    0    0  0.89274067690E+01  0.12901156584E+02  0.11544599423E+01  0.15731217717E+02  0.51100000000E-03 0. -1.
        -11    1    3    3    0    0 -0.95371123551E+01  0.12941089845E+02 -0.11557548021E+02  0.19799122076E+02  0.51100000000E-03 0.  1.
         12    1    3    3    0    0 -0.12558816290E+02 -0.34726822674E+02  0.48669025448E+00  0.36931192061E+02  0.00000000000E+00 0. -1.
</event>
<event>
 7    1  0.2972263E-013  0.7246157E+02  0.7816164E-02  0.1226708E+00
        -11   -1    0    0    0    0  0.00000000000E+00  0.00000000000E+00  0.45593999997E+02  0.45594000000E+02  0.51100000000E-03 0. -1.
         11   -1    0    0    0    0 -0.00000000000E+00 -0.00000000000E+00 -0.45593999997E+02  0.45594000000E+02  0.51100000000E-03 0.  1.
    9900012    2    1    2    0    0  0.64074196017E+01  0.13992454925E+02 -0.10669365232E+02  0.72461570142E+02  0.69999999801E+02 0.  0.
         12    1    1    2    0    0 -0.64074196017E+01 -0.13992454925E+02  0.10669365232E+02  0.18726429858E+02  0.00000000000E+00 0. -1.
         11    1    3    3    0    0  0.17880438406E+02  0.14941509333E+02  0.10854192512E+02  0.25705491127E+02  0.51100000000E-03 0. -1.
        -11    1    3    3    0    0  0.93156968729E+01 -0.30427904784E+01 -0.23799850663E+02  0.25738563946E+02  0.51100000000E-03 0.  1.
        -12    1    3    3    0    0 -0.20788715677E+02  0.20937360704E+01  0.22762929196E+01  0.21017515069E+02  0.00000000000E+00 0.  1.
</event>
<event>
 7    1  0.2972263E-013  0.7246137E+02  0.7816164E-02  0.1226709E+00
        -11   -1    0    0    0    0  0.00000000000E+00  0.00000000000E+00  0.45593999997E+02  0.45594000000E+02  0.51100000000E-03 0. -1.
         11   -1    0    0    0    0 -0.00000000000E+00 -0.00000000000E+00 -0.45593999997E+02  0.45594000000E+02  0.51100000000E-03 0.  1.
    9900012    2    1    2    0    0  0.18021021391E+02 -0.75028081172E-01 -0.50915465054E+01  0.72461369577E+02  0.69999738527E+02 0.  0.
         12    1    1    2    0    0 -0.18021021391E+02  0.75028081172E-01  0.50915465054E+01  0.18726630423E+02  0.00000000000E+00 0. -1.
         11    1    3    3    0    0  0.19853667064E+02 -0.21995010488E+01  0.22273206951E+01  0.20098926799E+02  0.51100000000E-03 0. -1.
        -11    1    3    3    0    0  0.10407438087E+02 -0.11374642473E+02 -0.23424538371E+02  0.28042935957E+02  0.51100000000E-03 0.  1.
         12    1    3    3    0    0 -0.12240083760E+02  0.13499115441E+02  0.16105671170E+02  0.24319506820E+02  0.00000000000E+00 0. -1.
</event>
<event>
 7    1  0.2972263E-013  0.7246154E+02  0.7816164E-02  0.1226708E+00
        -11   -1    0    0    0    0  0.00000000000E+00  0.00000000000E+00  0.45593999997E+02  0.45594000000E+02  0.51100000000E-03 0. -1.
         11   -1    0    0    0    0 -0.00000000000E+00 -0.00000000000E+00 -0.45593999997E+02  0.45594000000E+02  0.51100000000E-03 0.  1.
    9900012    2    1    2    0    0  0.39697207255E+01 -0.11423126934E+01 -0.18265180626E+02  0.72461537862E+02  0.69999957750E+02 0.  0.
         12    1    1    2    0    0 -0.39697207255E+01  0.11423126934E+01  0.18265180626E+02  0.18726462138E+02  0.00000000000E+00 0. -1.
         11    1    3    3    0    0  0.34725737630E+01 -0.12965952484E+02  0.11106394990E+02  0.17422017744E+02  0.51100000000E-03 0. -1.
        -11    1    3    3    0    0  0.15835175925E+02 -0.61290191958E+01  0.46944086395E+00  0.16986407739E+02  0.51100000000E-03 0.  1.
         12    1    3    3    0    0 -0.15338028963E+02  0.17952658986E+02 -0.29841016480E+02  0.38053112378E+02  0.00000000000E+00 0. -1.
</event>
<event>
 7    1  0.2972263E-013  0.7246161E+02  0.7816164E-02  0.1226708E+00
        -11   -1    0    0    0    0  0.00000000000E+00  0.00000000000E+00  0.45593999997E+02  0.45594000000E+02  0.51100000000E-03 0.  1.
         11   -1    0    0    0    0 -0.00000000000E+00 -0.00000000000E+00 -0.45593999997E+02  0.45594000000E+02  0.51100000000E-03 0. -1.
    9900012    2    1    2    0    0  0.84946351359E+01  0.12625423438E+02  0.10914101139E+02  0.72461608283E+02  0.70000049487E+02 0.  0.
         12    1    1    2    0    0 -0.84946351359E+01 -0.12625423438E+02 -0.10914101139E+02  0.18726391717E+02  0.00000000000E+00 0. -1.
         11    1    3    3    0    0 -0.55801990552E+01  0.27487904018E+01 -0.13952462522E+02  0.15276311101E+02  0.51100000000E-03 0. -1.
        -11    1    3    3    0    0 -0.18140414579E+02  0.51871204941E+01  0.76609731531E+01  0.20363481285E+02  0.51100000000E-03 0.  1.
         12    1    3    3    0    0  0.32215248770E+02  0.46895125416E+01  0.17205590508E+02  0.36821815897E+02  0.00000000000E+00 0. -1.
</event>
<event>
 7    1  0.2972263E-013  0.7246154E+02  0.7816164E-02  0.1226708E+00
        -11   -1    0    0    0    0  0.00000000000E+00  0.00000000000E+00  0.45593999997E+02  0.45594000000E+02  0.51100000000E-03 0.  1.
         11   -1    0    0    0    0 -0.00000000000E+00 -0.00000000000E+00 -0.45593999997E+02  0.45594000000E+02  0.51100000000E-03 0. -1.
    9900012    2    1    2    0    0  0.15410981404E+02 -0.22006461990E+01  0.10408604547E+02  0.72461541709E+02  0.69999962762E+02 0.  0.
         12    1    1    2    0    0 -0.15410981404E+02  0.22006461990E+01 -0.10408604547E+02  0.18726458291E+02  0.00000000000E+00 0. -1.
         11    1    3    3    0    0 -0.20364391392E+01 -0.17037297929E+02  0.25826925660E+02  0.31007203912E+02  0.51100000000E-03 0. -1.
        -11    1    3    3    0    0 -0.71029954133E+01  0.63438148687E+00  0.28915637752E+01  0.76952014294E+01  0.51100000000E-03 0.  1.
         12    1    3    3    0    0  0.24550415956E+02  0.14202270243E+02 -0.18309884889E+02  0.33759136368E+02  0.00000000000E+00 0. -1.
</event>
<event>
 7    1  0.2972263E-013  0.7246160E+02  0.7816164E-02  0.1226708E+00
        -11   -1    0    0    0    0  0.00000000000E+00  0.00000000000E+00  0.45593999997E+02  0.45594000000E+02  0.51100000000E-03 0.  1.
         11   -1    0    0    0    0 -0.00000000000E+00 -0.00000000000E+00 -0.45593999997E+02  0.45594000000E+02  0.51100000000E-03 0. -1.
    9900012    2    1    2    0    0 -0.66010557004E+01  0.40671197144E+01  0.17045896522E+02  0.72461601858E+02  0.70000041118E+02 0.  0.
         12    1    1    2    0    0  0.66010557004E+01 -0.40671197144E+01 -0.17045896522E+02  0.18726398142E+02  0.00000000000E+00 0. -1.
         11    1    3    3    0    0  0.13389286778E+02  0.14289736243E+02  0.18692075588E+02  0.27071447179E+02  0.51100000000E-03 0. -1.
        -11    1    3    3    0    0  0.92698044518E+01 -0.43408034659E+01 -0.10090342675E+02  0.14373129961E+02  0.51100000000E-03 0.  1.
        -12    1    3    3    0    0 -0.29260146931E+02 -0.58818130629E+01  0.84441636090E+01  0.31017024718E+02  0.00000000000E+00 0.  1.
</event>
<event>
 7    1  0.2972263E-013  0.7246152E+02  0.7816164E-02  0.1226708E+00
        -11   -1    0    0    0    0  0.00000000000E+00  0.00000000000E+00  0.45593999997E+02  0.45594000000E+02  0.51100000000E-03 0. -1.
         11   -1    0    0    0    0 -0.00000000000E+00 -0.00000000000E+00 -0.45593999997E+02  0.45594000000E+02  0.51100000000E-03 0.  1.
    9900012    2    1    2    0    0 -0.28604040792E+01 -0.16936524816E+02 -0.74601098626E+01  0.72461520793E+02  0.69999935515E+02 0.  0.
         12    1    1    2    0    0  0.28604040792E+01  0.16936524816E+02  0.74601098626E+01  0.18726479207E+02  0.00000000000E+00 0. -1.
         11    1    3    3    0    0  0.28347225701E+01 -0.10127500588E+02 -0.60516490987E+01  0.12133605288E+02  0.51100000000E-03 0. -1.
        -11    1    3    3    0    0 -0.11355083533E+02 -0.32170535919E+02  0.16953219352E+01  0.34157801745E+02  0.51100000000E-03 0.  1.
         12    1    3    3    0    0  0.56599568839E+01  0.25361511691E+02 -0.31037826991E+01  0.26170113760E+02  0.00000000000E+00 0. -1.
</event>
<event>
 7    1  0.2972263E-013  0.7246154E+02  0.7816164E-02  0.1226708E+00
        -11   -1    0    0    0    0  0.00000000000E+00  0.00000000000E+00  0.45593999997E+02  0.45594000000E+02  0.51100000000E-03 0. -1.
         11   -1    0    0    0    0 -0.00000000000E+00 -0.00000000000E+00 -0.45593999997E+02  0.45594000000E+02  0.51100000000E-03 0.  1.
    9900012    2    1    2    0    0 -0.49909496121E+01 -0.16624259323E+02  0.70288624081E+01  0.72461535229E+02  0.69999954321E+02 0.  0.
         12    1    1    2    0    0  0.49909496121E+01  0.16624259323E+02 -0.70288624081E+01  0.18726464771E+02  0.00000000000E+00 0. -1.
         11    1    3    3    0    0  0.14343237275E+02 -0.20474900961E+02 -0.47339551761E+01  0.25443277241E+02  0.51100000000E-03 0. -1.
        -11    1    3    3    0    0  0.10900367105E+02 -0.14630510079E+01  0.12056057023E+02  0.16318916400E+02  0.51100000000E-03 0.  1.
        -12    1    3    3    0    0 -0.30234553992E+02  0.53136926460E+01 -0.29323943845E+00  0.30699341589E+02  0.00000000000E+00 0.  1.
</event>
<event>
 7    1  0.2972263E-013  0.7246156E+02  0.7816164E-02  0.1226708E+00
        -11   -1    0    0    0    0  0.00000000000E+00  0.00000000000E+00  0.45593999997E+02  0.45594000000E+02  0.51100000000E-03 0.  1.
         11   -1    0    0    0    0 -0.00000000000E+00 -0.00000000000E+00 -0.45593999997E+02  0.45594000000E+02  0.51100000000E-03 0. -1.
    9900012    2    1    2    0    0  0.26050061410E+01  0.18254657422E+02 -0.32650897689E+01  0.72461564520E+02  0.69999992478E+02 0.  0.
         12    1    1    2    0    0 -0.26050061410E+01 -0.18254657422E+02  0.32650897689E+01  0.18726435480E+02  0.00000000000E+00 0. -1.
         11    1    3    3    0    0  0.88694131656E+01  0.13529516171E+02 -0.26917330162E+02  0.31404728323E+02  0.51100000000E-03 0. -1.
        -11    1    3    3    0    0  0.17703972134E+01  0.34635860823E+00 -0.79522617050E+01  0.81543078838E+01  0.51100000000E-03 0.  1.
        -12    1    3    3    0    0 -0.80348042380E+01  0.43787826426E+01  0.31604502098E+02  0.32902528314E+02  0.00000000000E+00 0.  1.
</event>
<event>
 7    1  0.2972263E-013  0.7246160E+02  0.7816164E-02  0.1226708E+00
        -11   -1    0    0    0    0  0.00000000000E+00  0.00000000000E+00  0.45593999997E+02  0.45594000000E+02  0.51100000000E-03 0.  1.
         11   -1    0    0    0    0 -0.00000000000E+00 -0.00000000000E+00 -0.45593999997E+02  0.45594000000E+02  0.51100000000E-03 0. -1.
    9900012    2    1    2    0    0 -0.57986232017E+01  0.17804673168E+02 -0.21822548587E+00  0.72461600453E+02  0.70000039287E+02 0.  0.
         12    1    1    2    0    0  0.57986232017E+01 -0.17804673168E+02  0.21822548587E+00  0.18726399547E+02  0.00000000000E+00 0. -1.
         11    1    3    3    0    0  0.11395746234E+01 -0.74931861762E+01  0.14521368989E+02  0.16380373225E+02  0.51100000000E-03 0. -1.
        -11    1    3    3    0    0 -0.21877094479E+02  0.25369190968E-01 -0.15336852796E+02  0.26717540313E+02  0.51100000000E-03 0.  1.
        -12    1    3    3    0    0  0.14938896654E+02  0.25272490153E+02  0.59725832048E+00  0.29363686915E+02  0.00000000000E+00 0.  1.
</event>
<event>
 7    1  0.3237703E-013  0.7246156E+02  0.7816164E-02  0.1226708E+00
        -11   -1    0    0    0    0  0.00000000000E+00  0.00000000000E+00  0.45593999997E+02  0.45594000000E+02  0.51100000000E-03 0. -1.
         11   -1    0    0    0    0 -0.00000000000E+00 -0.00000000000E+00 -0.45593999997E+02  0.45594000000E+02  0.51100000000E-03 0.  1.
    9900012    2    1    2    0    0  0.13109599726E+02  0.22747310145E+01 -0.13177388568E+02  0.72461559451E+02  0.69999985875E+02 0.  0.
         12    1    1    2    0    0 -0.13109599726E+02 -0.22747310145E+01  0.13177388568E+02  0.18726440549E+02  0.00000000000E+00 0. -1.
         11    1    3    3    0    0 -0.10811799700E+02  0.22531220465E+02 -0.13939488767E+02  0.28615734409E+02  0.51100000000E-03 0. -1.
        -11    1    3    3    0    0 -0.14597626979E+01 -0.97442506510E+01  0.10779835555E+02  0.14604320687E+02  0.51100000000E-03 0.  1.
        -12    1    3    3    0    0  0.25381162124E+02 -0.10512238799E+02 -0.10017735355E+02  0.29241504356E+02  0.00000000000E+00 0.  1.
</event>
<event>
 7    1  0.2972263E-013  0.7246152E+02  0.7816164E-02  0.1226708E+00
        -11   -1    0    0    0    0  0.00000000000E+00  0.00000000000E+00  0.45593999997E+02  0.45594000000E+02  0.51100000000E-03 0.  1.
         11   -1    0    0    0    0 -0.00000000000E+00 -0.00000000000E+00 -0.45593999997E+02  0.45594000000E+02  0.51100000000E-03 0. -1.
    9900012    2    1    2    0    0 -0.62717184011E+01 -0.11281950325E+02  0.13567030565E+02  0.72461516796E+02  0.69999930309E+02 0.  0.
         12    1    1    2    0    0  0.62717184011E+01  0.11281950325E+02 -0.13567030565E+02  0.18726483204E+02  0.00000000000E+00 0. -1.
         11    1    3    3    0    0  0.18289441227E+01  0.10659310740E+02 -0.13011266303E+02  0.16919190085E+02  0.51100000000E-03 0. -1.
        -11    1    3    3    0    0  0.88523143067E+01 -0.20984096148E+02 -0.13964072791E+01  0.22817662310E+02  0.51100000000E-03 0.  1.
        -12    1    3    3    0    0 -0.16952976830E+02 -0.95716491584E+00  0.27974704147E+02  0.32724664402E+02  0.00000000000E+00 0.  1.
</event>
<event>
 7    1  0.2972263E-013  0.7246151E+02  0.7816164E-02  0.1226708E+00
        -11   -1    0    0    0    0  0.00000000000E+00  0.00000000000E+00  0.45593999997E+02  0.45594000000E+02  0.51100000000E-03 0. -1.
         11   -1    0    0    0    0 -0.00000000000E+00 -0.00000000000E+00 -0.45593999997E+02  0.45594000000E+02  0.51100000000E-03 0.  1.
    9900012    2    1    2    0    0  0.17954997456E+02 -0.44348617331E+01 -0.29379567897E+01  0.72461507474E+02  0.69999918165E+02 0.  0.
         12    1    1    2    0    0 -0.17954997456E+02  0.44348617331E+01  0.29379567897E+01  0.18726492526E+02  0.00000000000E+00 0. -1.
         11    1    3    3    0    0  0.11550053664E+02 -0.63908892363E+01  0.27904192428E+01  0.13491984460E+02  0.51100000000E-03 0. -1.
        -11    1    3    3    0    0  0.20675004948E+02 -0.20869000712E+02  0.53513126603E+01  0.29859798522E+02  0.51100000000E-03 0.  1.
         12    1    3    3    0    0 -0.14270061156E+02  0.22825028215E+02 -0.11079688693E+02  0.29109724491E+02  0.00000000000E+00 0. -1.
</event>
<event>
 7    1  0.2972263E-013  0.7246156E+02  0.7816164E-02  0.1226708E+00
        -11   -1    0    0    0    0  0.00000000000E+00  0.00000000000E+00  0.45593999997E+02  0.45594000000E+02  0.51100000000E-03 0.  1.
         11   -1    0    0    0    0 -0.00000000000E+00 -0.00000000000E+00 -0.45593999997E+02  0.45594000000E+02  0.51100000000E-03 0. -1.
    9900012    2    1    2    0    0 -0.14174341116E+02 -0.10755718906E+02  0.58379793201E+01  0.72461563131E+02  0.69999990668E+02 0.  0.
         12    1    1    2    0    0  0.14174341116E+02  0.10755718906E+02 -0.58379793201E+01  0.18726436869E+02  0.00000000000E+00 0. -1.
         11    1    3    3    0    0  0.76072265315E+01 -0.21624995254E+01 -0.91304393884E+01  0.12079371813E+02  0.51100000000E-03 0. -1.
        -11    1    3    3    0    0  0.17150455411E+02 -0.57873672444E+01  0.10920754917E+02  0.21139882418E+02  0.51100000000E-03 0.  1.
        -12    1    3    3    0    0 -0.38932023059E+02 -0.28058521361E+01  0.40476637913E+01  0.39242308900E+02  0.00000000000E+00 0.  1.
</event>
<event>
 7    1  0.2972263E-013  0.7246155E+02  0.7816164E-02  0.1226708E+00
        -11   -1    0    0    0    0  0.00000000000E+00  0.00000000000E+00  0.45593999997E+02  0.45594000000E+02  0.51100000000E-03 0. -1.
         11   -1    0    0    0    0 -0.00000000000E+00 -0.00000000000E+00 -0.45593999997E+02  0.45594000000E+02  0.51100000000E-03 0.  1.
    9900012    2    1    2    0    0  0.10334402707E+02  0.15614345990E+02  0.26898431643E+00  0.72461547251E+02  0.69999969981E+02 0.  0.
         12    1    1    2    0    0 -0.10334402707E+02 -0.15614345990E+02 -0.26898431643E+00  0.18726452749E+02  0.00000000000E+00 0. -1.
         11    1    3    3    0    0 -0.59374581155E+01  0.17734156800E+02 -0.78851488914E+01  0.20296041476E+02  0.51100000000E-03 0. -1.
        -11    1    3    3    0    0 -0.15515579847E+02 -0.29962519526E+01 -0.65810971553E+01  0.17117873226E+02  0.51100000000E-03 0.  1.
         12    1    3    3    0    0  0.31787440670E+02  0.87644114227E+00  0.14735230363E+02  0.35047632549E+02  0.00000000000E+00 0. -1.
</event>
<event>
 7    1  0.2972263E-013  0.7246157E+02  0.7816164E-02  0.1226708E+00
        -11   -1    0    0    0    0  0.00000000000E+00  0.00000000000E+00  0.45593999997E+02  0.45594000000E+02  0.51100000000E-03 0. -1.
         11   -1    0    0    0    0 -0.00000000000E+00 -0.00000000000E+00 -0.45593999997E+02  0.45594000000E+02  0.51100000000E-03 0.  1.
    9900012    2    1    2    0    0 -0.87908689445E+01  0.10288907178E+02 -0.12943653184E+02  0.72461570936E+02  0.70000000836E+02 0.  0.
         12    1    1    2    0    0  0.87908689445E+01 -0.10288907178E+02  0.12943653184E+02  0.18726429064E+02  0.00000000000E+00 0. -1.
         11    1    3    3    0    0 -0.83861172522E+01 -0.13193791529E+02 -0.13895614015E+02  0.20916289981E+02  0.51100000000E-03 0. -1.
        -11    1    3    3    0    0  0.73452166727E+01 -0.12351150405E+02  0.35137107903E+01  0.14793555626E+02  0.51100000000E-03 0.  1.
        -12    1    3    3    0    0 -0.77499683651E+01  0.35833849111E+02 -0.25617499597E+01  0.36751725329E+02  0.00000000000E+00 0.  1.
</event>
<event>
 7    1  0.2972263E-013  0.7246156E+02  0.7816164E-02  0.1226708E+00
        -11   -1    0    0    0    0  0.00000000000E+00  0.00000000000E+00  0.45593999997E+02  0.45594000000E+02  0.51100000000E-03 0.  1.
         11   -1    0    0    0    0 -0.00000000000E+00 -0.00000000000E+00 -0.45593999997E+02  0.45594000000E+02  0.51100000000E-03 0. -1.
    9900012    2    1    2    0    0 -0.72236949157E+01 -0.16694969712E+02 -0.44470121460E+01  0.72461556159E+02  0.69999981586E+02 0.  0.
         12    1    1    2    0    0  0.72236949157E+01  0.16694969712E+02  0.44470121460E+01  0.18726443841E+02  0.00000000000E+00 0. -1.
         11    1    3    3    0    0  0.11904059818E+02 -0.49443996727E+01  0.31906725556E+00  0.12894011496E+02  0.51100000000E-03 0. -1.
        -11    1    3    3    0    0 -0.12232859202E+02  0.89774995018E+00  0.24248169385E+02  0.27173930854E+02  0.51100000000E-03 0.  1.
         12    1    3    3    0    0 -0.68948955316E+01 -0.12648319989E+02 -0.29014248787E+02  0.32393613809E+02  0.00000000000E+00 0. -1.
</event>
<event>
 7    1  0.2972263E-013  0.7246163E+02  0.7816164E-02  0.1226708E+00
        -11   -1    0    0    0    0  0.00000000000E+00  0.00000000000E+00  0.45593999997E+02  0.45594000000E+02  0.51100000000E-03 0.  1.
         11   -1    0    0    0    0 -0.00000000000E+00 -0.00000000000E+00 -0.45593999997E+02  0.45594000000E+02  0.51100000000E-03 0. -1.
    9900012    2    1    2    0    0  0.27006923973E+01 -0.17815752937E+02  0.50972834043E+01  0.72461625812E+02  0.70000072322E+02 0.  0.
         12    1    1    2    0    0 -0.27006923973E+01  0.17815752937E+02 -0.50972834043E+01  0.18726374188E+02  0.00000000000E+00 0. -1.
         11    1    3    3    0    0 -0.26664195951E+02  0.41187912880E+01  0.39625534951E+01  0.27269866480E+02  0.51100000000E-03 0. -1.
        -11    1    3    3    0    0  0.91460489687E+00  0.23445532729E+01  0.69033210357E+01  0.73477393633E+01  0.51100000000E-03 0.  1.
        -12    1    3    3    0    0  0.28450283452E+02 -0.24279097498E+02 -0.57685911266E+01  0.37844019968E+02  0.00000000000E+00 0.  1.
</event>
<event>
 7    1  0.2972263E-013  0.7246159E+02  0.7816164E-02  0.1226708E+00
        -11   -1    0    0    0    0  0.00000000000E+00  0.00000000000E+00  0.45593999997E+02  0.45594000000E+02  0.51100000000E-03 0.  1.
         11   -1    0    0    0    0 -0.00000000000E+00 -0.00000000000E+00 -0.45593999997E+02  0.45594000000E+02  0.51100000000E-03 0. -1.
    9900012    2    1    2    0    0 -0.53008402321E+01 -0.15756802022E+02  0.86198922309E+01  0.72461594600E+02  0.70000031663E+02 0.  0.
         12    1    1    2    0    0  0.53008402321E+01  0.15756802022E+02 -0.86198922309E+01  0.18726405400E+02  0.00000000000E+00 0. -1.
         11    1    3    3    0    0 -0.16809395930E+02 -0.94913125691E+01 -0.59110906877E+01  0.20188655210E+02  0.51100000000E-03 0. -1.
        -11    1    3    3    0    0  0.15867920603E+02 -0.25660524614E+02  0.10811415245E+02  0.32049026936E+02  0.51100000000E-03 0.  1.
         12    1    3    3    0    0 -0.43593649048E+01  0.19395035160E+02  0.37195676740E+01  0.20223912454E+02  0.00000000000E+00 0. -1.
</event>
<event>
 7    1  0.2972263E-013  0.7246157E+02  0.7816164E-02  0.1226708E+00
        -11   -1    0    0    0    0  0.00000000000E+00  0.00000000000E+00  0.45593999997E+02  0.45594000000E+02  0.51100000000E-03 0. -1.
         11   -1    0    0    0    0 -0.00000000000E+00 -0.00000000000E+00 -0.45593999997E+02  0.45594000000E+02  0.51100000000E-03 0.  1.
    9900012    2    1    2    0    0  0.16897009453E+02 -0.80331689650E+01 -0.79906388894E+00  0.72461568541E+02  0.69999997717E+02 0.  0.
         12    1    1    2    0    0 -0.16897009453E+02  0.80331689650E+01  0.79906388894E+00  0.18726431459E+02  0.00000000000E+00 0. -1.
         11    1    3    3    0    0  0.19252995843E+02  0.24885882558E+01  0.10711762517E+02  0.22172342612E+02  0.51100000000E-03 0. -1.
        -11    1    3    3    0    0  0.69237806902E+00  0.15869717792E+02 -0.16886746536E+02  0.23183820630E+02  0.51100000000E-03 0.  1.
         12    1    3    3    0    0 -0.30483644589E+01 -0.26391475012E+02  0.53759201296E+01  0.27105405299E+02  0.00000000000E+00 0. -1.
</event>
<event>
 7    1  0.2972263E-013  0.7246157E+02  0.7816164E-02  0.1226708E+00
        -11   -1    0    0    0    0  0.00000000000E+00  0.00000000000E+00  0.45593999997E+02  0.45594000000E+02  0.51100000000E-03 0.  1.
         11   -1    0    0    0    0 -0.00000000000E+00 -0.00000000000E+00 -0.45593999997E+02  0.45594000000E+02  0.51100000000E-03 0. -1.
    9900012    2    1    2    0    0  0.10941601645E+02 -0.33133394249E+01  0.14831804474E+02  0.72461567114E+02  0.69999995857E+02 0.  0.
         12    1    1    2    0    0 -0.10941601645E+02  0.33133394249E+01 -0.14831804474E+02  0.18726432886E+02  0.00000000000E+00 0. -1.
         11    1    3    3    0    0  0.11053404478E+01  0.83907199383E+01 -0.76374722257E+01  0.11399865826E+02  0.51100000000E-03 0. -1.
        -11    1    3    3    0    0  0.27037009936E+02 -0.17045057122E+02 -0.38457060839E+00  0.31963757185E+02  0.51100000000E-03 0.  1.
        -12    1    3    3    0    0 -0.17200748739E+02  0.53409977589E+01  0.22853847308E+02  0.29097944103E+02  0.00000000000E+00 0.  1.
</event>
<event>
 7    1  0.2972263E-013  0.7246158E+02  0.7816164E-02  0.1226708E+00
        -11   -1    0    0    0    0  0.00000000000E+00  0.00000000000E+00  0.45593999997E+02  0.45594000000E+02  0.51100000000E-03 0. -1.
         11   -1    0    0    0    0 -0.00000000000E+00 -0.00000000000E+00 -0.45593999997E+02  0.45594000000E+02  0.51100000000E-03 0.  1.
    9900012    2    1    2    0    0  0.12091868890E+02 -0.11274637089E+02  0.87947687090E+01  0.72461583061E+02  0.70000016631E+02 0.  0.
         12    1    1    2    0    0 -0.12091868890E+02  0.11274637089E+02 -0.87947687090E+01  0.18726416939E+02  0.00000000000E+00 0. -1.
         11    1    3    3    0    0  0.29668889646E+01 -0.14812679388E+02  0.89461398734E+01  0.17557087449E+02  0.51100000000E-03 0. -1.
        -11    1    3    3    0    0  0.21860564612E+01 -0.22602813714E+02 -0.11641991098E+02  0.25518659596E+02  0.51100000000E-03 0.  1.
         12    1    3    3    0    0  0.69389234639E+01  0.26140856012E+02  0.11490619933E+02  0.29385836016E+02  0.00000000000E+00 0. -1.
</event>
<event>
 7    1  0.2972263E-013  0.7246159E+02  0.7816164E-02  0.1226708E+00
        -11   -1    0    0    0    0  0.00000000000E+00  0.00000000000E+00  0.45593999997E+02  0.45594000000E+02  0.51100000000E-03 0.  1.
         11   -1    0    0    0    0 -0.00000000000E+00 -0.00000000000E+00 -0.45593999997E+02  0.45594000000E+02  0.51100000000E-03 0. -1.
    9900012    2    1    2    0    0 -0.14894336246E+02  0.38481588892E+01 -0.10678436141E+02  0.72461586102E+02  0.70000020593E+02 0.  0.
         12    1    1    2    0    0  0.14894336246E+02 -0.38481588892E+01  0.10678436141E+02  0.18726413898E+02  0.00000000000E+00 0. -1.
         11    1    3    3    0    0 -0.25499224333E+01  0.24511390420E+02 -0.24776258552E+02  0.34945290853E+02  0.51100000000E-03 0. -1.
        -11    1    3    3    0    0 -0.90314272478E+01  0.15573746355E+00 -0.38605566974E+01  0.98231782314E+01  0.51100000000E-03 0.  1.
        -12    1    3    3    0    0 -0.33129865650E+01 -0.20818968994E+02  0.17958379108E+02  0.27693117018E+02  0.00000000000E+00 0.  1.
</event>
<event>
 7    1  0.2972263E-013  0.7246159E+02  0.7816164E-02  0.1226708E+00
        -11   -1    0    0    0    0  0.00000000000E+00  0.00000000000E+00  0.45593999997E+02  0.45594000000E+02  0.51100000000E-03 0. -1.
         11   -1    0    0    0    0 -0.00000000000E+00 -0.00000000000E+00 -0.45593999997E+02  0.45594000000E+02  0.51100000000E-03 0.  1.
    9900012    2    1    2    0    0 -0.27982520392E+01 -0.11029485201E+02 -0.14872746178E+02  0.72461592518E+02  0.70000028951E+02 0.  0.
         12    1    1    2    0    0  0.27982520392E+01  0.11029485201E+02  0.14872746178E+02  0.18726407482E+02  0.00000000000E+00 0. -1.
         11    1    3    3    0    0  0.28531608337E+01 -0.18047653234E+02 -0.14047381079E+02  0.23047499418E+02  0.51100000000E-03 0. -1.
        -11    1    3    3    0    0 -0.89661689734E+01 -0.50402649082E+01 -0.22303190089E+02  0.24560715478E+02  0.51100000000E-03 0.  1.
         12    1    3    3    0    0  0.33147561004E+01  0.12058432941E+02  0.21477824989E+02  0.24853377623E+02  0.00000000000E+00 0. -1.
</event>
<event>
 7    1  0.2972263E-013  0.7246159E+02  0.7816164E-02  0.1226708E+00
        -11   -1    0    0    0    0  0.00000000000E+00  0.00000000000E+00  0.45593999997E+02  0.45594000000E+02  0.51100000000E-03 0. -1.
         11   -1    0    0    0    0 -0.00000000000E+00 -0.00000000000E+00 -0.45593999997E+02  0.45594000000E+02  0.51100000000E-03 0.  1.
    9900012    2    1    2    0    0  0.10493344172E+02 -0.13813593727E+02 -0.70535671452E+01  0.72461589425E+02  0.70000024921E+02 0.  0.
         12    1    1    2    0    0 -0.10493344172E+02  0.13813593727E+02  0.70535671452E+01  0.18726410575E+02  0.00000000000E+00 0. -1.
         11    1    3    3    0    0  0.90127594269E+00  0.59126814233E+01  0.20411483969E+02  0.21269715043E+02  0.51100000000E-03 0. -1.
        -11    1    3    3    0    0  0.12924672741E+02 -0.14087202969E+02  0.35912340018E+01  0.19452337002E+02  0.51100000000E-03 0.  1.
        -12    1    3    3    0    0 -0.33326045116E+01 -0.56390721813E+01 -0.31056285116E+02  0.31739537380E+02  0.00000000000E+00 0.  1.
</event>
<event>
 7    1  0.2972263E-013  0.7246159E+02  0.7816164E-02  0.1226708E+00
        -11   -1    0    0    0    0  0.00000000000E+00  0.00000000000E+00  0.45593999997E+02  0.45594000000E+02  0.51100000000E-03 0.  1.
         11   -1    0    0    0    0 -0.00000000000E+00 -0.00000000000E+00 -0.45593999997E+02  0.45594000000E+02  0.51100000000E-03 0. -1.
    9900012    2    1    2    0    0  0.15438521883E+02  0.17117212417E+01  0.10459474428E+02  0.72461586759E+02  0.70000021448E+02 0.  0.
         12    1    1    2    0    0 -0.15438521883E+02 -0.17117212417E+01 -0.10459474428E+02  0.18726413241E+02  0.00000000000E+00 0. -1.
         11    1    3    3    0    0  0.60635630511E-01  0.59658988114E+01  0.16852170624E+02  0.17877116107E+02  0.51100000000E-03 0. -1.
        -11    1    3    3    0    0 -0.25664011344E+01  0.15964626270E+02  0.13464732214E+02  0.21041737585E+02  0.51100000000E-03 0.  1.
        -12    1    3    3    0    0  0.17944287387E+02 -0.20218803840E+02 -0.19857428410E+02  0.33542733067E+02  0.00000000000E+00 0.  1.
</event>
<event>
 7    1  0.2972263E-013  0.7246162E+02  0.7816164E-02  0.1226708E+00
        -11   -1    0    0    0    0  0.00000000000E+00  0.00000000000E+00  0.45593999997E+02  0.45594000000E+02  0.51100000000E-03 0. -1.
         11   -1    0    0    0    0 -0.00000000000E+00 -0.00000000000E+00 -0.45593999997E+02  0.45594000000E+02  0.51100000000E-03 0.  1.
    9900012    2    1    2    0    0  0.76620237738E+01 -0.13359256051E+02 -0.10653684542E+02  0.72461619547E+02  0.70000064161E+02 0.  0.
         12    1    1    2    0    0 -0.76620237738E+01  0.13359256051E+02  0.10653684542E+02  0.18726380453E+02  0.00000000000E+00 0. -1.
         11    1    3    3    0    0  0.45650823135E+01  0.63054063043E+01  0.94034035877E+01  0.12207461836E+02  0.51100000000E-03 0. -1.
        -11    1    3    3    0    0 -0.94957093418E+01  0.13256740606E+02 -0.18934754471E+02  0.24988689332E+02  0.51100000000E-03 0.  1.
        -12    1    3    3    0    0  0.12592650802E+02 -0.32921402961E+02 -0.11223336589E+01  0.35265468379E+02  0.00000000000E+00 0.  1.
</event>
<event>
 7    1  0.2972263E-013  0.7246149E+02  0.7816164E-02  0.1226708E+00
        -11   -1    0    0    0    0  0.00000000000E+00  0.00000000000E+00  0.45593999997E+02  0.45594000000E+02  0.51100000000E-03 0. -1.
         11   -1    0    0    0    0 -0.00000000000E+00 -0.00000000000E+00 -0.45593999997E+02  0.45594000000E+02  0.51100000000E-03 0.  1.
    9900012    2    1    2    0    0 -0.15287378727E+02  0.89897734295E+01  0.60135115860E+01  0.72461486810E+02  0.69999891246E+02 0.  0.
         12    1    1    2    0    0  0.15287378727E+02 -0.89897734295E+01 -0.60135115860E+01  0.18726513190E+02  0.00000000000E+00 0. -1.
         11    1    3    3    0    0  0.58107877488E+01 -0.18763081285E+02 -0.48575413427E+01  0.20233985809E+02  0.51100000000E-03 0. -1.
        -11    1    3    3    0    0 -0.13499428685E+02  0.85911870972E+01 -0.13051471272E+02  0.20649067126E+02  0.51100000000E-03 0.  1.
        -12    1    3    3    0    0 -0.75987377906E+01  0.19161667617E+02  0.23922524200E+02  0.31578433875E+02  0.00000000000E+00 0.  1.
</event>
<event>
 7    1  0.2972263E-013  0.7246156E+02  0.7816164E-02  0.1226708E+00
        -11   -1    0    0    0    0  0.00000000000E+00  0.00000000000E+00  0.45593999997E+02  0.45594000000E+02  0.51100000000E-03 0.  1.
         11   -1    0    0    0    0 -0.00000000000E+00 -0.00000000000E+00 -0.45593999997E+02  0.45594000000E+02  0.51100000000E-03 0. -1.
    9900012    2    1    2    0    0  0.13689325665E+01 -0.12143201339E+02  0.14189728811E+02  0.72461555627E+02  0.69999980893E+02 0.  0.
         12    1    1    2    0    0 -0.13689325665E+01  0.12143201339E+02 -0.14189728811E+02  0.18726444373E+02  0.00000000000E+00 0. -1.
         11    1    3    3    0    0  0.75180894557E+01  0.81684640530E+01  0.20477706036E+02  0.23293387877E+02  0.51100000000E-03 0. -1.
        -11    1    3    3    0    0  0.95919481435E+01  0.92744590326E+01  0.43068050617E+01  0.14020329156E+02  0.51100000000E-03 0.  1.
        -12    1    3    3    0    0 -0.15741105033E+02 -0.29586124425E+02 -0.10594782286E+02  0.35147838594E+02  0.00000000000E+00 0.  1.
</event>
<event>
 7    1  0.2972263E-013  0.7246154E+02  0.7816164E-02  0.1226708E+00
        -11   -1    0    0    0    0  0.00000000000E+00  0.00000000000E+00  0.45593999997E+02  0.45594000000E+02  0.51100000000E-03 0. -1.
         11   -1    0    0    0    0 -0.00000000000E+00 -0.00000000000E+00 -0.45593999997E+02  0.45594000000E+02  0.51100000000E-03 0.  1.
    9900012    2    1    2    0    0  0.28080879481E+01 -0.12571649631E+02 -0.13592222360E+02  0.72461541684E+02  0.69999962730E+02 0.  0.
         12    1    1    2    0    0 -0.28080879481E+01  0.12571649631E+02  0.13592222360E+02  0.18726458316E+02  0.00000000000E+00 0. -1.
         11    1    3    3    0    0  0.50936909028E+01  0.35014206564E+01  0.22087951209E+01  0.65638715537E+01  0.51100000000E-03 0. -1.
        -11    1    3    3    0    0 -0.37591133762E+01 -0.30517152752E+02  0.13202962593E+02  0.33462602514E+02  0.51100000000E-03 0.  1.
         12    1    3    3    0    0  0.14735104214E+01  0.14444082465E+02 -0.29003980074E+02  0.32435067617E+02  0.00000000000E+00 0. -1.
</event>
<event>
 7    1  0.2972263E-013  0.7246154E+02  0.7816164E-02  0.1226708E+00
        -11   -1    0    0    0    0  0.00000000000E+00  0.00000000000E+00  0.45593999997E+02  0.45594000000E+02  0.51100000000E-03 0. -1.
         11   -1    0    0    0    0 -0.00000000000E+00 -0.00000000000E+00 -0.45593999997E+02  0.45594000000E+02  0.51100000000E-03 0.  1.
    9900012    2    1    2    0    0 -0.14925325837E+02 -0.11108412088E+02  0.21256292251E+01  0.72461535570E+02  0.69999954765E+02 0.  0.
         12    1    1    2    0    0  0.14925325837E+02  0.11108412088E+02 -0.21256292251E+01  0.18726464430E+02  0.00000000000E+00 0. -1.
         11    1    3    3    0    0 -0.95682050929E+01  0.13058788732E+01 -0.12400779330E+02  0.15717353358E+02  0.51100000000E-03 0. -1.
        -11    1    3    3    0    0  0.19126602561E+02  0.69158730959E+01 -0.36158933982E+01  0.20657466242E+02  0.51100000000E-03 0.  1.
         12    1    3    3    0    0 -0.24483723305E+02 -0.19330164057E+02  0.18142301953E+02  0.36086715970E+02  0.00000000000E+00 0. -1.
</event>
<event>
 7    1  0.2972263E-013  0.7246156E+02  0.7816164E-02  0.1226708E+00
        -11   -1    0    0    0    0  0.00000000000E+00  0.00000000000E+00  0.45593999997E+02  0.45594000000E+02  0.51100000000E-03 0. -1.
         11   -1    0    0    0    0 -0.00000000000E+00 -0.00000000000E+00 -0.45593999997E+02  0.45594000000E+02  0.51100000000E-03 0.  1.
    9900012    2    1    2    0    0  0.79051161237E+01  0.16203719667E+02 -0.50624293776E+01  0.72461559250E+02  0.69999985612E+02 0.  0.
         12    1    1    2    0    0 -0.79051161237E+01 -0.16203719667E+02  0.50624293776E+01  0.18726440750E+02  0.00000000000E+00 0. -1.
         11    1    3    3    0    0  0.48844741553E+01  0.19473371010E+02  0.24650388512E+02  0.31791695776E+02  0.51100000000E-03 0. -1.
        -11    1    3    3    0    0  0.89338796257E+01  0.42622798290E-01  0.12076884665E+01  0.90152389631E+01  0.51100000000E-03 0.  1.
        -12    1    3    3    0    0 -0.59132376573E+01 -0.33122741414E+01 -0.30920506356E+02  0.31654624511E+02  0.00000000000E+00 0.  1.
</event>
<event>
 7    1  0.2972263E-013  0.7246156E+02  0.7816164E-02  0.1226708E+00
        -11   -1    0    0    0    0  0.00000000000E+00  0.00000000000E+00  0.45593999997E+02  0.45594000000E+02  0.51100000000E-03 0. -1.
         11   -1    0    0    0    0 -0.00000000000E+00 -0.00000000000E+00 -0.45593999997E+02  0.45594000000E+02  0.51100000000E-03 0.  1.
    9900012    2    1    2    0    0 -0.15539467875E+02  0.93690104224E+01  0.46288396158E+01  0.72461559486E+02  0.69999985921E+02 0.  0.
         12    1    1    2    0    0  0.15539467875E+02 -0.93690104224E+01 -0.46288396158E+01  0.18726440514E+02  0.00000000000E+00 0. -1.
         11    1    3    3    0    0  0.12359359191E+02  0.36461858713E+01  0.33482611506E+01  0.13313875620E+02  0.51100000000E-03 0. -1.
        -11    1    3    3    0    0 -0.58007503952E+01  0.26239169284E+02  0.84188092663E+01  0.28160594091E+02  0.51100000000E-03 0.  1.
         12    1    3    3    0    0 -0.22098076671E+02 -0.20516344733E+02 -0.71382308011E+01  0.30987089775E+02  0.00000000000E+00 0. -1.
</event>
<event>
 7    1  0.2972263E-013  0.7246157E+02  0.7816164E-02  0.1226708E+00
        -11   -1    0    0    0    0  0.00000000000E+00  0.00000000000E+00  0.45593999997E+02  0.45594000000E+02  0.51100000000E-03 0.  1.
         11   -1    0    0    0    0 -0.00000000000E+00 -0.00000000000E+00 -0.45593999997E+02  0.45594000000E+02  0.51100000000E-03 0. -1.
    9900012    2    1    2    0    0  0.14058960517E+02  0.45465701833E+01  0.11504501846E+02  0.72461568573E+02  0.69999997758E+02 0.  0.
         12    1    1    2    0    0 -0.14058960517E+02 -0.45465701833E+01 -0.11504501846E+02  0.18726431427E+02  0.00000000000E+00 0. -1.
         11    1    3    3    0    0 -0.17927249556E+01  0.29332556361E+01 -0.21010761849E+02  0.21290137743E+02  0.51100000000E-03 0. -1.
        -11    1    3    3    0    0  0.24592255764E+02 -0.27297406374E+01  0.10103392928E+02  0.26726561253E+02  0.51100000000E-03 0.  1.
        -12    1    3    3    0    0 -0.87405702912E+01  0.43430551845E+01  0.22411870767E+02  0.24444869577E+02  0.00000000000E+00 0.  1.
</event>
<event>
 7    1  0.2972263E-013  0.7246142E+02  0.7816164E-02  0.1226708E+00
        -11   -1    0    0    0    0  0.00000000000E+00  0.00000000000E+00  0.45593999997E+02  0.45594000000E+02  0.51100000000E-03 0. -1.
         11   -1    0    0    0    0 -0.00000000000E+00 -0.00000000000E+00 -0.45593999997E+02  0.45594000000E+02  0.51100000000E-03 0.  1.
    9900012    2    1    2    0    0 -0.11134958026E+01 -0.14526195880E+02 -0.11765820649E+02  0.72461420622E+02  0.69999805023E+02 0.  0.
         12    1    1    2    0    0  0.11134958026E+01  0.14526195880E+02  0.11765820649E+02  0.18726579378E+02  0.00000000000E+00 0. -1.
         11    1    3    3    0    0  0.39729146585E+01  0.10920498013E+01  0.26061315123E+02  0.26385010325E+02  0.51100000000E-03 0. -1.
        -11    1    3    3    0    0  0.16144036619E+01  0.38067056936E+01 -0.16122030541E+01  0.44380746242E+01  0.51100000000E-03 0.  1.
        -12    1    3    3    0    0 -0.67008141230E+01 -0.19424951375E+02 -0.36214932718E+02  0.41638335673E+02  0.00000000000E+00 0.  1.
</event>
<event>
 7    1  0.2972263E-013  0.7246163E+02  0.7816164E-02  0.1226708E+00
        -11   -1    0    0    0    0  0.00000000000E+00  0.00000000000E+00  0.45593999997E+02  0.45594000000E+02  0.51100000000E-03 0.  1.
         11   -1    0    0    0    0 -0.00000000000E+00 -0.00000000000E+00 -0.45593999997E+02  0.45594000000E+02  0.51100000000E-03 0. -1.
    9900012    2    1    2    0    0  0.66916351652E+01  0.10833405495E+02  0.13730853390E+02  0.72461628472E+02  0.70000075787E+02 0.  0.
         12    1    1    2    0    0 -0.66916351652E+01 -0.10833405495E+02 -0.13730853390E+02  0.18726371528E+02  0.00000000000E+00 0. -1.
         11    1    3    3    0    0  0.20131987457E+01 -0.23170384825E+02  0.92705854616E+01  0.25037241405E+02  0.51100000000E-03 0. -1.
        -11    1    3    3    0    0  0.59737703675E+01  0.24412804262E+01  0.13161810688E+02  0.14658753132E+02  0.51100000000E-03 0.  1.
        -12    1    3    3    0    0 -0.12953339480E+01  0.31562509893E+02 -0.87015427602E+01  0.32765633936E+02  0.00000000000E+00 0.  1.
</event>
<event>
 7    1  0.2972263E-013  0.7246157E+02  0.7816164E-02  0.1226708E+00
        -11   -1    0    0    0    0  0.00000000000E+00  0.00000000000E+00  0.45593999997E+02  0.45594000000E+02  0.51100000000E-03 0. -1.
         11   -1    0    0    0    0 -0.00000000000E+00 -0.00000000000E+00 -0.45593999997E+02  0.45594000000E+02  0.51100000000E-03 0.  1.
    9900012    2    1    2    0    0 -0.45785328971E+01  0.13626900832E+02 -0.12000986393E+02  0.72461573107E+02  0.70000003664E+02 0.  0.
         12    1    1    2    0    0  0.45785328971E+01 -0.13626900832E+02  0.12000986393E+02  0.18726426893E+02  0.00000000000E+00 0. -1.
         11    1    3    3    0    0 -0.19640169282E+02 -0.13229633666E+02 -0.33132589474E+01  0.23911025521E+02  0.51100000000E-03 0. -1.
        -11    1    3    3    0    0  0.97439901099E+01  0.49819576651E+01 -0.20418079437E+02  0.23165992610E+02  0.51100000000E-03 0.  1.
         12    1    3    3    0    0  0.53176462745E+01  0.21874576832E+02  0.11730351992E+02  0.25384554976E+02  0.00000000000E+00 0. -1.
</event>
<event>
 7    1  0.2972263E-013  0.7246162E+02  0.7816164E-02  0.1226708E+00
        -11   -1    0    0    0    0  0.00000000000E+00  0.00000000000E+00  0.45593999997E+02  0.45594000000E+02  0.51100000000E-03 0. -1.
         11   -1    0    0    0    0 -0.00000000000E+00 -0.00000000000E+00 -0.45593999997E+02  0.45594000000E+02  0.51100000000E-03 0.  1.
    9900012    2    1    2    0    0 -0.51128871402E+01 -0.17021084651E+02 -0.59007000477E+01  0.72461622917E+02  0.70000068550E+02 0.  0.
         12    1    1    2    0    0  0.51128871402E+01  0.17021084651E+02  0.59007000477E+01  0.18726377083E+02  0.00000000000E+00 0. -1.
         11    1    3    3    0    0  0.19734763618E+02 -0.22175663352E+02  0.13142961916E+02  0.32464725293E+02  0.51100000000E-03 0. -1.
        -11    1    3    3    0    0  0.48565980683E+00 -0.10602763559E+01  0.46279754906E+01  0.47726521768E+01  0.51100000000E-03 0.  1.
        -12    1    3    3    0    0 -0.25333310565E+02  0.62148550563E+01 -0.23671637454E+02  0.35224245447E+02  0.00000000000E+00 0.  1.
</event>
<event>
 7    1  0.2972263E-013  0.7246163E+02  0.7816164E-02  0.1226708E+00
        -11   -1    0    0    0    0  0.00000000000E+00  0.00000000000E+00  0.45593999997E+02  0.45594000000E+02  0.51100000000E-03 0.  1.
         11   -1    0    0    0    0 -0.00000000000E+00 -0.00000000000E+00 -0.45593999997E+02  0.45594000000E+02  0.51100000000E-03 0. -1.
    9900012    2    1    2    0    0  0.15812375340E+02 -0.99529385591E+01  0.12588474575E+01  0.72461630977E+02  0.70000079051E+02 0.  0.
         12    1    1    2    0    0 -0.15812375340E+02  0.99529385591E+01 -0.12588474575E+01  0.18726369023E+02  0.00000000000E+00 0. -1.
         11    1    3    3    0    0 -0.13844336156E+02 -0.10336821418E+02  0.24902787029E+02  0.30309475791E+02  0.51100000000E-03 0. -1.
        -11    1    3    3    0    0  0.26235339174E+01  0.76436593118E+00  0.30938628157E+01  0.41278533012E+01  0.51100000000E-03 0.  1.
        -12    1    3    3    0    0  0.27033177579E+02 -0.38048307226E+00 -0.26737802387E+02  0.38024301885E+02  0.00000000000E+00 0.  1.
</event>
<event>
 7    1  0.2972263E-013  0.7246159E+02  0.7816164E-02  0.1226708E+00
        -11   -1    0    0    0    0  0.00000000000E+00  0.00000000000E+00  0.45593999997E+02  0.45594000000E+02  0.51100000000E-03 0. -1.
         11   -1    0    0    0    0 -0.00000000000E+00 -0.00000000000E+00 -0.45593999997E+02  0.45594000000E+02  0.51100000000E-03 0.  1.
    9900012    2    1    2    0    0  0.14086135877E+02  0.11158365827E+02  0.52678296781E+01  0.72461591338E+02  0.70000027413E+02 0.  0.
         12    1    1    2    0    0 -0.14086135877E+02 -0.11158365827E+02 -0.52678296781E+01  0.18726408662E+02  0.00000000000E+00 0. -1.
         11    1    3    3    0    0 -0.42761882539E+00  0.16928311313E+02  0.52182700753E+01  0.17719506895E+02  0.51100000000E-03 0. -1.
        -11    1    3    3    0    0  0.32959716254E+02 -0.14339388222E+01 -0.83252754414E+01  0.34025127296E+02  0.51100000000E-03 0.  1.
         12    1    3    3    0    0 -0.18445961552E+02 -0.43360066640E+01  0.83748350442E+01  0.20716957146E+02  0.00000000000E+00 0. -1.
</event>
<event>
 7    1  0.2972263E-013  0.7246192E+02  0.7816164E-02  0.1226707E+00
        -11   -1    0    0    0    0  0.00000000000E+00  0.00000000000E+00  0.45593999997E+02  0.45594000000E+02  0.51100000000E-03 0.  1.
         11   -1    0    0    0    0 -0.00000000000E+00 -0.00000000000E+00 -0.45593999997E+02  0.45594000000E+02  0.51100000000E-03 0. -1.
    9900012    2    1    2    0    0 -0.18596825213E+02  0.11024184683E+01 -0.18997070696E+01  0.72461918685E+02  0.70000453842E+02 0.  0.
         12    1    1    2    0    0  0.18596825213E+02 -0.11024184683E+01  0.18997070696E+01  0.18726081315E+02  0.00000000000E+00 0. -1.
         11    1    3    3    0    0  0.16152463059E+02 -0.38609937271E+01 -0.21628422944E+02  0.27268993651E+02  0.51100000000E-03 0. -1.
        -11    1    3    3    0    0 -0.46325598948E+01  0.86955149610E+01  0.20221294773E+01  0.10057912283E+02  0.51100000000E-03 0.  1.
        -12    1    3    3    0    0 -0.30116728376E+02 -0.37321027656E+01  0.17706586397E+02  0.35135012751E+02  0.00000000000E+00 0.  1.
</event>
<event>
 7    1  0.2972263E-013  0.7246164E+02  0.7816164E-02  0.1226708E+00
        -11   -1    0    0    0    0  0.00000000000E+00  0.00000000000E+00  0.45593999997E+02  0.45594000000E+02  0.51100000000E-03 0. -1.
         11   -1    0    0    0    0 -0.00000000000E+00 -0.00000000000E+00 -0.45593999997E+02  0.45594000000E+02  0.51100000000E-03 0.  1.
    9900012    2    1    2    0    0  0.36966422708E-01 -0.14410303269E+02 -0.11959034885E+02  0.72461635638E+02  0.70000085123E+02 0.  0.
         12    1    1    2    0    0 -0.36966422708E-01  0.14410303269E+02  0.11959034885E+02  0.18726364362E+02  0.00000000000E+00 0. -1.
         11    1    3    3    0    0  0.12821817458E+02 -0.15636301101E+02 -0.28124481615E+01  0.20415748332E+02  0.51100000000E-03 0. -1.
        -11    1    3    3    0    0 -0.25622270449E+00  0.15551310097E+02 -0.23519550912E+02  0.28197130548E+02  0.51100000000E-03 0.  1.
         12    1    3    3    0    0 -0.12528628331E+02 -0.14325312266E+02  0.14372964188E+02  0.23848756758E+02  0.00000000000E+00 0. -1.
</event>
<event>
 7    1  0.2972263E-013  0.7246158E+02  0.7816164E-02  0.1226708E+00
        -11   -1    0    0    0    0  0.00000000000E+00  0.00000000000E+00  0.45593999997E+02  0.45594000000E+02  0.51100000000E-03 0. -1.
         11   -1    0    0    0    0 -0.00000000000E+00 -0.00000000000E+00 -0.45593999997E+02  0.45594000000E+02  0.51100000000E-03 0.  1.
    9900012    2    1    2    0    0 -0.10279720425E+02 -0.54461502833E+01 -0.14674656035E+02  0.72461581905E+02  0.70000015125E+02 0.  0.
         12    1    1    2    0    0  0.10279720425E+02  0.54461502833E+01  0.14674656035E+02  0.18726418095E+02  0.00000000000E+00 0. -1.
         11    1    3    3    0    0 -0.77882307966E+01  0.17732563709E+02 -0.98233936971E+01  0.21716339899E+02  0.51100000000E-03 0. -1.
        -11    1    3    3    0    0 -0.13803827203E+02  0.84072252749E+01  0.26183185732E+01  0.16373230429E+02  0.51100000000E-03 0.  1.
        -12    1    3    3    0    0  0.11312337575E+02 -0.31585939267E+02 -0.74695809115E+01  0.34372011576E+02  0.00000000000E+00 0.  1.
</event>
<event>
 7    1  0.2972263E-013  0.7246160E+02  0.7816164E-02  0.1226708E+00
        -11   -1    0    0    0    0  0.00000000000E+00  0.00000000000E+00  0.45593999997E+02  0.45594000000E+02  0.51100000000E-03 0.  1.
         11   -1    0    0    0    0 -0.00000000000E+00 -0.00000000000E+00 -0.45593999997E+02  0.45594000000E+02  0.51100000000E-03 0. -1.
    9900012    2    1    2    0    0 -0.10893328232E+02 -0.15005110074E+02  0.26191695177E+01  0.72461602128E+02  0.70000041469E+02 0.  0.
         12    1    1    2    0    0  0.10893328232E+02  0.15005110074E+02 -0.26191695177E+01  0.18726397872E+02  0.00000000000E+00 0. -1.
         11    1    3    3    0    0 -0.14395089831E+02 -0.19169663087E+02 -0.15112411241E+02  0.28338658541E+02  0.51100000000E-03 0. -1.
        -11    1    3    3    0    0  0.10977600928E+02 -0.14697504301E+02  0.14906985711E+02  0.23637736315E+02  0.51100000000E-03 0.  1.
         12    1    3    3    0    0 -0.74758393291E+01  0.18862057315E+02  0.28245950478E+01  0.20485207273E+02  0.00000000000E+00 0. -1.
</event>
<event>
 7    1  0.2972263E-013  0.7246165E+02  0.7816164E-02  0.1226708E+00
        -11   -1    0    0    0    0  0.00000000000E+00  0.00000000000E+00  0.45593999997E+02  0.45594000000E+02  0.51100000000E-03 0. -1.
         11   -1    0    0    0    0 -0.00000000000E+00 -0.00000000000E+00 -0.45593999997E+02  0.45594000000E+02  0.51100000000E-03 0.  1.
    9900012    2    1    2    0    0 -0.16431589141E+02  0.18684858787E+01 -0.87856572569E+01  0.72461651327E+02  0.70000105561E+02 0.  0.
         12    1    1    2    0    0  0.16431589141E+02 -0.18684858787E+01  0.87856572569E+01  0.18726348673E+02  0.00000000000E+00 0. -1.
         11    1    3    3    0    0  0.11288271881E+02 -0.96606464430E+00 -0.80621427997E+01  0.13905269136E+02  0.51100000000E-03 0. -1.
        -11    1    3    3    0    0  0.28534511420E+01 -0.13793495339E+02 -0.15324999132E+02  0.20814857572E+02  0.51100000000E-03 0.  1.
         12    1    3    3    0    0 -0.30573312164E+02  0.16628045862E+02  0.14601484675E+02  0.37741524619E+02  0.00000000000E+00 0. -1.
</event>
<event>
 7    1  0.2972263E-013  0.7246162E+02  0.7816164E-02  0.1226708E+00
        -11   -1    0    0    0    0  0.00000000000E+00  0.00000000000E+00  0.45593999997E+02  0.45594000000E+02  0.51100000000E-03 0. -1.
         11   -1    0    0    0    0 -0.00000000000E+00 -0.00000000000E+00 -0.45593999997E+02  0.45594000000E+02  0.51100000000E-03 0.  1.
    9900012    2    1    2    0    0  0.70065728049E+01 -0.17353255839E+02  0.67075160699E+00  0.72461615982E+02  0.70000059516E+02 0.  0.
         12    1    1    2    0    0 -0.70065728049E+01  0.17353255839E+02 -0.67075160699E+00  0.18726384018E+02  0.00000000000E+00 0. -1.
         11    1    3    3    0    0 -0.78877168090E+01 -0.12813713577E+02  0.70695910003E+01  0.16624874414E+02  0.51100000000E-03 0. -1.
        -11    1    3    3    0    0 -0.68354167120E+00  0.53949732487E+01  0.21609549179E+02  0.22283302752E+02  0.51100000000E-03 0.  1.
        -12    1    3    3    0    0  0.15577831285E+02 -0.99345155106E+01 -0.28008388572E+02  0.33553438816E+02  0.00000000000E+00 0.  1.
</event>
<event>
 7    1  0.2972263E-013  0.7246165E+02  0.7816164E-02  0.1226708E+00
        -11   -1    0    0    0    0  0.00000000000E+00  0.00000000000E+00  0.45593999997E+02  0.45594000000E+02  0.51100000000E-03 0. -1.
         11   -1    0    0    0    0 -0.00000000000E+00 -0.00000000000E+00 -0.45593999997E+02  0.45594000000E+02  0.51100000000E-03 0.  1.
    9900012    2    1    2    0    0  0.10137881921E+02  0.15144399897E+02 -0.43065937901E+01  0.72461648296E+02  0.70000101611E+02 0.  0.
         12    1    1    2    0    0 -0.10137881921E+02 -0.15144399897E+02  0.43065937901E+01  0.18726351704E+02  0.00000000000E+00 0. -1.
         11    1    3    3    0    0  0.12599338197E+02  0.22269711097E+02  0.10778160772E+02  0.27764223476E+02  0.51100000000E-03 0. -1.
        -11    1    3    3    0    0  0.16355369062E+02 -0.21622062984E+01 -0.18664486011E+02  0.24910565460E+02  0.51100000000E-03 0.  1.
        -12    1    3    3    0    0 -0.18816825338E+02 -0.49631049017E+01  0.35797314485E+01  0.19786859360E+02  0.00000000000E+00 0.  1.
</event>
<event>
 7    1  0.2972263E-013  0.7246122E+02  0.7816164E-02  0.1226709E+00
        -11   -1    0    0    0    0  0.00000000000E+00  0.00000000000E+00  0.45593999997E+02  0.45594000000E+02  0.51100000000E-03 0.  1.
         11   -1    0    0    0    0 -0.00000000000E+00 -0.00000000000E+00 -0.45593999997E+02  0.45594000000E+02  0.51100000000E-03 0. -1.
    9900012    2    1    2    0    0  0.84666657713E-01 -0.14117326586E+02 -0.12303914361E+02  0.72461217389E+02  0.69999540274E+02 0.  0.
         12    1    1    2    0    0 -0.84666657713E-01  0.14117326586E+02  0.12303914361E+02  0.18726782611E+02  0.00000000000E+00 0. -1.
         11    1    3    3    0    0 -0.86186582179E+01 -0.16487339917E+02 -0.13064666634E+02  0.22733217139E+02  0.51100000000E-03 0. -1.
        -11    1    3    3    0    0 -0.66192637601E+01 -0.21368872187E+01  0.22045749303E+02  0.23117006776E+02  0.51100000000E-03 0.  1.
         12    1    3    3    0    0  0.15322588636E+02  0.45069005498E+01 -0.21284997030E+02  0.26610993473E+02  0.00000000000E+00 0. -1.
</event>
<event>
 7    1  0.2972263E-013  0.7246159E+02  0.7816164E-02  0.1226708E+00
        -11   -1    0    0    0    0  0.00000000000E+00  0.00000000000E+00  0.45593999997E+02  0.45594000000E+02  0.51100000000E-03 0.  1.
         11   -1    0    0    0    0 -0.00000000000E+00 -0.00000000000E+00 -0.45593999997E+02  0.45594000000E+02  0.51100000000E-03 0. -1.
    9900012    2    1    2    0    0  0.11401449826E+02  0.60587424484E+01  0.13563811571E+02  0.72461590773E+02  0.70000026678E+02 0.  0.
         12    1    1    2    0    0 -0.11401449826E+02 -0.60587424484E+01 -0.13563811571E+02  0.18726409227E+02  0.00000000000E+00 0. -1.
         11    1    3    3    0    0  0.21046145194E+01  0.51958375812E+01 -0.98669009754E+01  0.11348209796E+02  0.51100000000E-03 0. -1.
        -11    1    3    3    0    0  0.28200110715E+02  0.65165359484E+01 -0.18994703432E+01  0.29005507632E+02  0.51100000000E-03 0.  1.
        -12    1    3    3    0    0 -0.18903275409E+02 -0.56536310812E+01  0.25330182889E+02  0.32107873346E+02  0.00000000000E+00 0.  1.
</event>
<event>
 7    1  0.2972263E-013  0.7246076E+02  0.7816164E-02  0.1226710E+00
        -11   -1    0    0    0    0  0.00000000000E+00  0.00000000000E+00  0.45593999997E+02  0.45594000000E+02  0.51100000000E-03 0. -1.
         11   -1    0    0    0    0 -0.00000000000E+00 -0.00000000000E+00 -0.45593999997E+02  0.45594000000E+02  0.51100000000E-03 0.  1.
    9900012    2    1    2    0    0 -0.14990511244E+01 -0.10829344578E+02 -0.15204850565E+02  0.72460764780E+02  0.69998950660E+02 0.  0.
         12    1    1    2    0    0  0.14990511244E+01  0.10829344578E+02  0.15204850565E+02  0.18727235220E+02  0.00000000000E+00 0. -1.
         11    1    3    3    0    0  0.40473511646E+01 -0.76613825003E+01 -0.76392014401E+01  0.11551416890E+02  0.51100000000E-03 0. -1.
        -11    1    3    3    0    0  0.17848475373E+02 -0.10550789960E+01 -0.25648359399E+02  0.31265309929E+02  0.51100000000E-03 0.  1.
         12    1    3    3    0    0 -0.23394877662E+02 -0.21128830821E+01  0.18082710274E+02  0.29644037961E+02  0.00000000000E+00 0. -1.
</event>
<event>
 7    1  0.2972263E-013  0.7246146E+02  0.7816164E-02  0.1226708E+00
        -11   -1    0    0    0    0  0.00000000000E+00  0.00000000000E+00  0.45593999997E+02  0.45594000000E+02  0.51100000000E-03 0. -1.
         11   -1    0    0    0    0 -0.00000000000E+00 -0.00000000000E+00 -0.45593999997E+02  0.45594000000E+02  0.51100000000E-03 0.  1.
    9900012    2    1    2    0    0  0.40348940727E+01 -0.13331996765E+02 -0.12516426857E+02  0.72461456027E+02  0.69999851145E+02 0.  0.
         12    1    1    2    0    0 -0.40348940727E+01  0.13331996765E+02  0.12516426857E+02  0.18726543973E+02  0.00000000000E+00 0. -1.
         11    1    3    3    0    0  0.20772276649E+02 -0.11268704741E+02  0.81256402819E+00  0.23645960423E+02  0.51100000000E-03 0. -1.
        -11    1    3    3    0    0  0.17154786881E+01 -0.18614564697E+02 -0.15005048665E+02  0.23970739907E+02  0.51100000000E-03 0.  1.
         12    1    3    3    0    0 -0.18452861265E+02  0.16551272673E+02  0.16760577804E+01  0.24844755697E+02  0.00000000000E+00 0. -1.
</event>
<event>
 7    1  0.2972263E-013  0.7246183E+02  0.7816164E-02  0.1226707E+00
        -11   -1    0    0    0    0  0.00000000000E+00  0.00000000000E+00  0.45593999997E+02  0.45594000000E+02  0.51100000000E-03 0. -1.
         11   -1    0    0    0    0 -0.00000000000E+00 -0.00000000000E+00 -0.45593999997E+02  0.45594000000E+02  0.51100000000E-03 0.  1.
    9900012    2    1    2    0    0  0.12487396306E+02  0.92073817382E+01 -0.10486106819E+02  0.72461831647E+02  0.70000340460E+02 0.  0.
         12    1    1    2    0    0 -0.12487396306E+02 -0.92073817382E+01  0.10486106819E+02  0.18726168353E+02  0.00000000000E+00 0. -1.
         11    1    3    3    0    0 -0.18375961201E+02 -0.27324226672E+00  0.86385501941E+00  0.18398284082E+02  0.51100000000E-03 0. -1.
        -11    1    3    3    0    0 -0.28417840298E+01  0.17140022977E+01 -0.18456629307E+02  0.18752618643E+02  0.51100000000E-03 0.  1.
         12    1    3    3    0    0  0.33705141537E+02  0.77666217073E+01  0.71066674689E+01  0.35310928921E+02  0.00000000000E+00 0. -1.
</event>
<event>
 7    1  0.2972263E-013  0.7246157E+02  0.7816164E-02  0.1226708E+00
        -11   -1    0    0    0    0  0.00000000000E+00  0.00000000000E+00  0.45593999997E+02  0.45594000000E+02  0.51100000000E-03 0.  1.
         11   -1    0    0    0    0 -0.00000000000E+00 -0.00000000000E+00 -0.45593999997E+02  0.45594000000E+02  0.51100000000E-03 0. -1.
    9900012    2    1    2    0    0 -0.11711260668E+01 -0.44554268953E+01  0.18150942700E+02  0.72461572524E+02  0.70000002905E+02 0.  0.
         12    1    1    2    0    0  0.11711260668E+01  0.44554268953E+01 -0.18150942700E+02  0.18726427476E+02  0.00000000000E+00 0. -1.
         11    1    3    3    0    0  0.83959920508E+01  0.72809153264E+01  0.58695089470E+01  0.12568036682E+02  0.51100000000E-03 0. -1.
        -11    1    3    3    0    0 -0.20371641701E+02  0.14953412340E+02 -0.57542612507E+01  0.25917558701E+02  0.51100000000E-03 0.  1.
         12    1    3    3    0    0  0.10804523584E+02 -0.26689754562E+02  0.18035695004E+02  0.33975977141E+02  0.00000000000E+00 0. -1.
</event>
<event>
 7    1  0.2972263E-013  0.7246143E+02  0.7816164E-02  0.1226708E+00
        -11   -1    0    0    0    0  0.00000000000E+00  0.00000000000E+00  0.45593999997E+02  0.45594000000E+02  0.51100000000E-03 0.  1.
         11   -1    0    0    0    0 -0.00000000000E+00 -0.00000000000E+00 -0.45593999997E+02  0.45594000000E+02  0.51100000000E-03 0. -1.
    9900012    2    1    2    0    0 -0.19781660502E+01 -0.57730313694E+00  0.18612843172E+02  0.72461431954E+02  0.69999819786E+02 0.  0.
         12    1    1    2    0    0  0.19781660502E+01  0.57730313694E+00 -0.18612843172E+02  0.18726568046E+02  0.00000000000E+00 0. -1.
         11    1    3    3    0    0  0.61149355286E+01 -0.22826732437E+01  0.11596230414E+02  0.13306975378E+02  0.51100000000E-03 0. -1.
        -11    1    3    3    0    0  0.55401124934E+01  0.20144590402E+02  0.23098620287E+02  0.31145523408E+02  0.51100000000E-03 0.  1.
         12    1    3    3    0    0 -0.13633214072E+02 -0.18439220296E+02 -0.16082007528E+02  0.28008933168E+02  0.00000000000E+00 0. -1.
</event>
<event>
 7    1  0.2972263E-013  0.7246158E+02  0.7816164E-02  0.1226708E+00
        -11   -1    0    0    0    0  0.00000000000E+00  0.00000000000E+00  0.45593999997E+02  0.45594000000E+02  0.51100000000E-03 0.  1.
         11   -1    0    0    0    0 -0.00000000000E+00 -0.00000000000E+00 -0.45593999997E+02  0.45594000000E+02  0.51100000000E-03 0. -1.
    9900012    2    1    2    0    0  0.13003194752E+02 -0.62210097527E+01  0.11953855784E+02  0.72461582718E+02  0.70000016185E+02 0.  0.
         12    1    1    2    0    0 -0.13003194752E+02  0.62210097527E+01 -0.11953855784E+02  0.18726417282E+02  0.00000000000E+00 0. -1.
         11    1    3    3    0    0 -0.14206657798E+02 -0.23689950842E+02  0.17990295345E+02  0.32965036381E+02  0.51100000000E-03 0. -1.
        -11    1    3    3    0    0  0.18556178713E+01 -0.38478480270E+01 -0.46908818552E+01  0.63445744510E+01  0.51100000000E-03 0.  1.
        -12    1    3    3    0    0  0.25354234679E+02  0.21316789117E+02 -0.13455577066E+01  0.33151971887E+02  0.00000000000E+00 0.  1.
</event>
<event>
 7    1  0.2972263E-013  0.7246154E+02  0.7816164E-02  0.1226708E+00
        -11   -1    0    0    0    0  0.00000000000E+00  0.00000000000E+00  0.45593999997E+02  0.45594000000E+02  0.51100000000E-03 0.  1.
         11   -1    0    0    0    0 -0.00000000000E+00 -0.00000000000E+00 -0.45593999997E+02  0.45594000000E+02  0.51100000000E-03 0. -1.
    9900012    2    1    2    0    0 -0.12097123301E+02 -0.91287468192E+01  0.11000270092E+02  0.72461538702E+02  0.69999958846E+02 0.  0.
         12    1    1    2    0    0  0.12097123301E+02  0.91287468192E+01 -0.11000270092E+02  0.18726461298E+02  0.00000000000E+00 0. -1.
         11    1    3    3    0    0  0.13049135301E+02  0.17034163585E+02 -0.81159357542E+01  0.22941470628E+02  0.51100000000E-03 0. -1.
        -11    1    3    3    0    0  0.10264365236E+01 -0.18246163739E+02  0.89347616661E+01  0.20342222824E+02  0.51100000000E-03 0.  1.
        -12    1    3    3    0    0 -0.26172695125E+02 -0.79167466650E+01  0.10181444180E+02  0.29177845251E+02  0.00000000000E+00 0.  1.
</event>
<event>
 7    1  0.2972263E-013  0.7246113E+02  0.7816164E-02  0.1226709E+00
        -11   -1    0    0    0    0  0.00000000000E+00  0.00000000000E+00  0.45593999997E+02  0.45594000000E+02  0.51100000000E-03 0. -1.
         11   -1    0    0    0    0 -0.00000000000E+00 -0.00000000000E+00 -0.45593999997E+02  0.45594000000E+02  0.51100000000E-03 0.  1.
    9900012    2    1    2    0    0 -0.13720227870E+02 -0.31885695552E+00 -0.12741635233E+02  0.72461131843E+02  0.69999428833E+02 0.  0.
         12    1    1    2    0    0  0.13720227870E+02  0.31885695552E+00  0.12741635233E+02  0.18726868157E+02  0.00000000000E+00 0. -1.
         11    1    3    3    0    0 -0.19925412398E+02  0.30026533094E+02 -0.85029931481E+00  0.36046327941E+02  0.51100000000E-03 0. -1.
        -11    1    3    3    0    0  0.61125126692E+01 -0.33173306258E+01 -0.48675984807E+01  0.84888755935E+01  0.51100000000E-03 0.  1.
        -12    1    3    3    0    0  0.92671859263E-01 -0.27028059423E+02 -0.70237374378E+01  0.27925928308E+02  0.00000000000E+00 0.  1.
</event>
<event>
 7    1  0.2972263E-013  0.7246153E+02  0.7816164E-02  0.1226708E+00
        -11   -1    0    0    0    0  0.00000000000E+00  0.00000000000E+00  0.45593999997E+02  0.45594000000E+02  0.51100000000E-03 0.  1.
         11   -1    0    0    0    0 -0.00000000000E+00 -0.00000000000E+00 -0.45593999997E+02  0.45594000000E+02  0.51100000000E-03 0. -1.
    9900012    2    1    2    0    0  0.17497573796E+02 -0.66480629640E+01  0.56467693720E+00  0.72461529698E+02  0.69999947115E+02 0.  0.
         12    1    1    2    0    0 -0.17497573796E+02  0.66480629640E+01 -0.56467693720E+00  0.18726470302E+02  0.00000000000E+00 0. -1.
         11    1    3    3    0    0  0.29924626155E+02  0.12819526939E+02  0.98011277070E+01  0.33998317989E+02  0.51100000000E-03 0. -1.
        -11    1    3    3    0    0 -0.16042897397E+02  0.76820685946E+00 -0.78045542350E+01  0.17857092869E+02  0.51100000000E-03 0.  1.
         12    1    3    3    0    0  0.36158450384E+01 -0.20235796763E+02 -0.14318965348E+01  0.20606118840E+02  0.00000000000E+00 0. -1.
</event>
<event>
 7    1  0.2972263E-013  0.7246167E+02  0.7816164E-02  0.1226708E+00
        -11   -1    0    0    0    0  0.00000000000E+00  0.00000000000E+00  0.45593999997E+02  0.45594000000E+02  0.51100000000E-03 0.  1.
         11   -1    0    0    0    0 -0.00000000000E+00 -0.00000000000E+00 -0.45593999997E+02  0.45594000000E+02  0.51100000000E-03 0. -1.
    9900012    2    1    2    0    0 -0.50681105790E+01  0.16217575473E+02  0.78727449520E+01  0.72461665278E+02  0.70000123733E+02 0.  0.
         12    1    1    2    0    0  0.50681105790E+01 -0.16217575473E+02 -0.78727449520E+01  0.18726334722E+02  0.00000000000E+00 0. -1.
         11    1    3    3    0    0 -0.52759829221E+01  0.17715218019E+02  0.75253332104E+01  0.19957344148E+02  0.51100000000E-03 0. -1.
        -11    1    3    3    0    0 -0.24796028187E+02  0.51856896687E+01  0.59530054968E+01  0.26022541496E+02  0.51100000000E-03 0.  1.
         12    1    3    3    0    0  0.25003900530E+02 -0.66833322146E+01 -0.56055937552E+01  0.26481779634E+02  0.00000000000E+00 0. -1.
</event>
<event>
 7    1  0.2972263E-013  0.7246158E+02  0.7816164E-02  0.1226708E+00
        -11   -1    0    0    0    0  0.00000000000E+00  0.00000000000E+00  0.45593999997E+02  0.45594000000E+02  0.51100000000E-03 0. -1.
         11   -1    0    0    0    0 -0.00000000000E+00 -0.00000000000E+00 -0.45593999997E+02  0.45594000000E+02  0.51100000000E-03 0.  1.
    9900012    2    1    2    0    0  0.18394427543E+02  0.97136616834E+00  0.33734957690E+01  0.72461575073E+02  0.70000006225E+02 0.  0.
         12    1    1    2    0    0 -0.18394427543E+02 -0.97136616834E+00 -0.33734957690E+01  0.18726424927E+02  0.00000000000E+00 0. -1.
         11    1    3    3    0    0  0.96094989869E+01  0.21538513719E+02 -0.10726143954E+02  0.25909461755E+02  0.51100000000E-03 0. -1.
        -11    1    3    3    0    0 -0.31118858405E+01 -0.61806591873E+01 -0.12362667081E+02  0.14167565743E+02  0.51100000000E-03 0.  1.
        -12    1    3    3    0    0  0.11896814396E+02 -0.14386488364E+02  0.26462306804E+02  0.32384547575E+02  0.00000000000E+00 0.  1.
</event>
<event>
 7    1  0.2972263E-013  0.7246156E+02  0.7816164E-02  0.1226708E+00
        -11   -1    0    0    0    0  0.00000000000E+00  0.00000000000E+00  0.45593999997E+02  0.45594000000E+02  0.51100000000E-03 0.  1.
         11   -1    0    0    0    0 -0.00000000000E+00 -0.00000000000E+00 -0.45593999997E+02  0.45594000000E+02  0.51100000000E-03 0. -1.
    9900012    2    1    2    0    0 -0.12485489839E+02 -0.10307326349E+02  0.94101619050E+01  0.72461559333E+02  0.69999985720E+02 0.  0.
         12    1    1    2    0    0  0.12485489839E+02  0.10307326349E+02 -0.94101619050E+01  0.18726440667E+02  0.00000000000E+00 0. -1.
         11    1    3    3    0    0  0.20495423086E+01  0.19626978588E+02 -0.12698614502E+02  0.23466438219E+02  0.51100000000E-03 0. -1.
        -11    1    3    3    0    0 -0.11385919972E+02 -0.28460864050E+02  0.44235739312E+01  0.30971405565E+02  0.51100000000E-03 0.  1.
        -12    1    3    3    0    0 -0.31491121760E+01 -0.14734408872E+01  0.17685202476E+02  0.18023715548E+02  0.00000000000E+00 0.  1.
</event>
<event>
 7    1  0.2972263E-013  0.7246157E+02  0.7816164E-02  0.1226708E+00
        -11   -1    0    0    0    0  0.00000000000E+00  0.00000000000E+00  0.45593999997E+02  0.45594000000E+02  0.51100000000E-03 0.  1.
         11   -1    0    0    0    0 -0.00000000000E+00 -0.00000000000E+00 -0.45593999997E+02  0.45594000000E+02  0.51100000000E-03 0. -1.
    9900012    2    1    2    0    0 -0.72515745103E+01 -0.10513706478E+02  0.13695107859E+02  0.72461565848E+02  0.69999994207E+02 0.  0.
         12    1    1    2    0    0  0.72515745103E+01  0.10513706478E+02 -0.13695107859E+02  0.18726434152E+02  0.00000000000E+00 0. -1.
         11    1    3    3    0    0 -0.17157335633E+02 -0.20682428509E+01  0.88361074844E+00  0.17304119819E+02  0.51100000000E-03 0. -1.
        -11    1    3    3    0    0 -0.16557339793E+02  0.13387563017E-01  0.20480525045E+02  0.26336240936E+02  0.51100000000E-03 0.  1.
         12    1    3    3    0    0  0.26463100916E+02 -0.84588511905E+01 -0.76690279343E+01  0.28821205093E+02  0.00000000000E+00 0. -1.
</event>
<event>
 7    1  0.2972263E-013  0.7246156E+02  0.7816164E-02  0.1226708E+00
        -11   -1    0    0    0    0  0.00000000000E+00  0.00000000000E+00  0.45593999997E+02  0.45594000000E+02  0.51100000000E-03 0.  1.
         11   -1    0    0    0    0 -0.00000000000E+00 -0.00000000000E+00 -0.45593999997E+02  0.45594000000E+02  0.51100000000E-03 0. -1.
    9900012    2    1    2    0    0  0.18050021184E+02  0.44757155061E+01  0.22009922294E+01  0.72461557177E+02  0.69999982912E+02 0.  0.
         12    1    1    2    0    0 -0.18050021184E+02 -0.44757155061E+01 -0.22009922294E+01  0.18726442823E+02  0.00000000000E+00 0. -1.
         11    1    3    3    0    0  0.24024612164E+02  0.15460638698E+01  0.38100638600E+01  0.24373938746E+02  0.51100000000E-03 0. -1.
        -11    1    3    3    0    0  0.68987165966E+01  0.13441400824E+02  0.17262928517E+02  0.22940624404E+02  0.51100000000E-03 0.  1.
         12    1    3    3    0    0 -0.12873307577E+02 -0.10511749188E+02 -0.18872000148E+02  0.25146994026E+02  0.00000000000E+00 0. -1.
</event>
<event>
 7    1  0.2972263E-013  0.7246161E+02  0.7816164E-02  0.1226708E+00
        -11   -1    0    0    0    0  0.00000000000E+00  0.00000000000E+00  0.45593999997E+02  0.45594000000E+02  0.51100000000E-03 0.  1.
         11   -1    0    0    0    0 -0.00000000000E+00 -0.00000000000E+00 -0.45593999997E+02  0.45594000000E+02  0.51100000000E-03 0. -1.
    9900012    2    1    2    0    0  0.88883154929E+01  0.13924908588E+02  0.88188678250E+01  0.72461610567E+02  0.70000052462E+02 0.  0.
         12    1    1    2    0    0 -0.88883154929E+01 -0.13924908588E+02 -0.88188678250E+01  0.18726389433E+02  0.00000000000E+00 0. -1.
         11    1    3    3    0    0 -0.20135079957E+02 -0.90202698533E+01 -0.37123197293E+00  0.22066366410E+02  0.51100000000E-03 0. -1.
        -11    1    3    3    0    0  0.14462761678E+02  0.79657058702E+01  0.20751834034E+02  0.26519098050E+02  0.51100000000E-03 0.  1.
        -12    1    3    3    0    0  0.14560633772E+02  0.14979472571E+02 -0.11561734236E+02  0.23876146106E+02  0.00000000000E+00 0.  1.
</event>
<event>
 7    1  0.2972263E-013  0.7246154E+02  0.7816164E-02  0.1226708E+00
        -11   -1    0    0    0    0  0.00000000000E+00  0.00000000000E+00  0.45593999997E+02  0.45594000000E+02  0.51100000000E-03 0.  1.
         11   -1    0    0    0    0 -0.00000000000E+00 -0.00000000000E+00 -0.45593999997E+02  0.45594000000E+02  0.51100000000E-03 0. -1.
    9900012    2    1    2    0    0 -0.21303768474E+01 -0.69608867418E+01  0.17253637714E+02  0.72461535729E+02  0.69999954972E+02 0.  0.
         12    1    1    2    0    0  0.21303768474E+01  0.69608867418E+01 -0.17253637714E+02  0.18726464271E+02  0.00000000000E+00 0. -1.
         11    1    3    3    0    0 -0.86141521095E+01 -0.13211351130E+02 -0.16255803287E+01  0.15855154585E+02  0.51100000000E-03 0. -1.
        -11    1    3    3    0    0 -0.19622327061E+02 -0.10578461877E+02  0.85027058510E+01  0.23858658429E+02  0.51100000000E-03 0.  1.
        -12    1    3    3    0    0  0.26106102323E+02  0.16828926266E+02  0.10376512192E+02  0.32747722715E+02  0.00000000000E+00 0.  1.
</event>
<event>
 7    1  0.2972263E-013  0.7246162E+02  0.7816164E-02  0.1226708E+00
        -11   -1    0    0    0    0  0.00000000000E+00  0.00000000000E+00  0.45593999997E+02  0.45594000000E+02  0.51100000000E-03 0.  1.
         11   -1    0    0    0    0 -0.00000000000E+00 -0.00000000000E+00 -0.45593999997E+02  0.45594000000E+02  0.51100000000E-03 0. -1.
    9900012    2    1    2    0    0 -0.48383770998E+01  0.15794164170E+02  0.88210927629E+01  0.72461623086E+02  0.70000068771E+02 0.  0.
         12    1    1    2    0    0  0.48383770998E+01 -0.15794164170E+02 -0.88210927629E+01  0.18726376914E+02  0.00000000000E+00 0. -1.
         11    1    3    3    0    0 -0.12173791813E+02  0.17388630773E+02  0.22213704782E+02  0.30724816804E+02  0.51100000000E-03 0. -1.
        -11    1    3    3    0    0  0.60183628028E+01  0.44756707968E+01  0.12790340884E+02  0.14827175729E+02  0.51100000000E-03 0.  1.
         12    1    3    3    0    0  0.13170519100E+01 -0.60701373999E+01 -0.26182952903E+02  0.26909630553E+02  0.00000000000E+00 0. -1.
</event>
<event>
 7    1  0.2972263E-013  0.7246159E+02  0.7816164E-02  0.1226708E+00
        -11   -1    0    0    0    0  0.00000000000E+00  0.00000000000E+00  0.45593999997E+02  0.45594000000E+02  0.51100000000E-03 0. -1.
         11   -1    0    0    0    0 -0.00000000000E+00 -0.00000000000E+00 -0.45593999997E+02  0.45594000000E+02  0.51100000000E-03 0.  1.
    9900012    2    1    2    0    0  0.56872158370E+00  0.95932978960E+01 -0.16072454427E+02  0.72461585499E+02  0.70000019807E+02 0.  0.
         12    1    1    2    0    0 -0.56872158370E+00 -0.95932978960E+01  0.16072454427E+02  0.18726414501E+02  0.00000000000E+00 0. -1.
         11    1    3    3    0    0 -0.21067162727E+01  0.66699543294E+01 -0.16588546755E+02  0.18002956088E+02  0.51100000000E-03 0. -1.
        -11    1    3    3    0    0  0.45562991690E+01  0.28460845200E+02 -0.57084593173E+00  0.28828899336E+02  0.51100000000E-03 0.  1.
         12    1    3    3    0    0 -0.18808613127E+01 -0.25537501633E+02  0.10869382597E+01  0.25629730075E+02  0.00000000000E+00 0. -1.
</event>
<event>
 7    1  0.2972263E-013  0.7246159E+02  0.7816164E-02  0.1226708E+00
        -11   -1    0    0    0    0  0.00000000000E+00  0.00000000000E+00  0.45593999997E+02  0.45594000000E+02  0.51100000000E-03 0.  1.
         11   -1    0    0    0    0 -0.00000000000E+00 -0.00000000000E+00 -0.45593999997E+02  0.45594000000E+02  0.51100000000E-03 0. -1.
    9900012    2    1    2    0    0 -0.71226509133E+01  0.13280135829E+02  0.11116843562E+02  0.72461591523E+02  0.70000027655E+02 0.  0.
         12    1    1    2    0    0  0.71226509133E+01 -0.13280135829E+02 -0.11116843562E+02  0.18726408477E+02  0.00000000000E+00 0. -1.
         11    1    3    3    0    0  0.68362948891E+01 -0.16570294380E+02  0.60247645146E+01  0.18910509548E+02  0.51100000000E-03 0. -1.
        -11    1    3    3    0    0  0.12508115014E+02  0.18806186321E+02 -0.50282162593E+01  0.23138896779E+02  0.51100000000E-03 0.  1.
        -12    1    3    3    0    0 -0.26467060816E+02  0.11044243888E+02  0.10120295307E+02  0.30412185196E+02  0.00000000000E+00 0.  1.
</event>
<event>
 7    1  0.2972263E-013  0.7246166E+02  0.7816164E-02  0.1226708E+00
        -11   -1    0    0    0    0  0.00000000000E+00  0.00000000000E+00  0.45593999997E+02  0.45594000000E+02  0.51100000000E-03 0. -1.
         11   -1    0    0    0    0 -0.00000000000E+00 -0.00000000000E+00 -0.45593999997E+02  0.45594000000E+02  0.51100000000E-03 0.  1.
    9900012    2    1    2    0    0 -0.13013290371E+02  0.11826287203E+02  0.64396353228E+01  0.72461662975E+02  0.70000120733E+02 0.  0.
         12    1    1    2    0    0  0.13013290371E+02 -0.11826287203E+02 -0.64396353228E+01  0.18726337025E+02  0.00000000000E+00 0. -1.
         11    1    3    3    0    0 -0.13701027258E+02  0.12256745421E+02  0.15281610436E+02  0.23905513465E+02  0.51100000000E-03 0. -1.
        -11    1    3    3    0    0 -0.71203505821E+01 -0.22737185713E+02 -0.17922717465E+01  0.23893330551E+02  0.51100000000E-03 0.  1.
         12    1    3    3    0    0  0.78080874689E+01  0.22306727495E+02 -0.70497033671E+01  0.24662818959E+02  0.00000000000E+00 0. -1.
</event>
<event>
 7    1  0.2972263E-013  0.7246157E+02  0.7816164E-02  0.1226708E+00
        -11   -1    0    0    0    0  0.00000000000E+00  0.00000000000E+00  0.45593999997E+02  0.45594000000E+02  0.51100000000E-03 0.  1.
         11   -1    0    0    0    0 -0.00000000000E+00 -0.00000000000E+00 -0.45593999997E+02  0.45594000000E+02  0.51100000000E-03 0. -1.
    9900012    2    1    2    0    0 -0.41309990910E+01  0.13509700057E+02  0.12292359999E+02  0.72461567786E+02  0.69999996732E+02 0.  0.
         12    1    1    2    0    0  0.41309990910E+01 -0.13509700057E+02 -0.12292359999E+02  0.18726432214E+02  0.00000000000E+00 0. -1.
         11    1    3    3    0    0 -0.41122010479E+01 -0.55489805273E+01 -0.73560247616E+01  0.10090217188E+02  0.51100000000E-03 0. -1.
        -11    1    3    3    0    0  0.22566589435E+02  0.22594648274E+02  0.22878845879E+02  0.39283720271E+02  0.51100000000E-03 0.  1.
         12    1    3    3    0    0 -0.22585387478E+02 -0.35359676896E+01 -0.32304611180E+01  0.23087630326E+02  0.00000000000E+00 0. -1.
</event>
<event>
 7    1  0.2972263E-013  0.7246158E+02  0.7816164E-02  0.1226708E+00
        -11   -1    0    0    0    0  0.00000000000E+00  0.00000000000E+00  0.45593999997E+02  0.45594000000E+02  0.51100000000E-03 0. -1.
         11   -1    0    0    0    0 -0.00000000000E+00 -0.00000000000E+00 -0.45593999997E+02  0.45594000000E+02  0.51100000000E-03 0.  1.
    9900012    2    1    2    0    0  0.15493795499E+01 -0.59915805770E+01 -0.17674253460E+02  0.72461578821E+02  0.70000011108E+02 0.  0.
         12    1    1    2    0    0 -0.15493795499E+01  0.59915805770E+01  0.17674253460E+02  0.18726421179E+02  0.00000000000E+00 0. -1.
         11    1    3    3    0    0  0.11940187289E+02  0.82514750409E+00 -0.95904278848E+01  0.15337054742E+02  0.51100000000E-03 0. -1.
        -11    1    3    3    0    0  0.17937662827E+02 -0.20845640757E+01  0.12348903917E+02  0.21876941818E+02  0.51100000000E-03 0.  1.
         12    1    3    3    0    0 -0.28328470566E+02 -0.47321640054E+01 -0.20432729492E+02  0.35247582261E+02  0.00000000000E+00 0. -1.
</event>
<event>
 7    1  0.2972263E-013  0.7246157E+02  0.7816164E-02  0.1226708E+00
        -11   -1    0    0    0    0  0.00000000000E+00  0.00000000000E+00  0.45593999997E+02  0.45594000000E+02  0.51100000000E-03 0. -1.
         11   -1    0    0    0    0 -0.00000000000E+00 -0.00000000000E+00 -0.45593999997E+02  0.45594000000E+02  0.51100000000E-03 0.  1.
    9900012    2    1    2    0    0  0.17569685591E+02  0.37033907981E+01 -0.53169911355E+01  0.72461565478E+02  0.69999993726E+02 0.  0.
         12    1    1    2    0    0 -0.17569685591E+02 -0.37033907981E+01  0.53169911355E+01  0.18726434522E+02  0.00000000000E+00 0. -1.
         11    1    3    3    0    0 -0.28315046305E+01 -0.12725508261E+02  0.61876483913E+01  0.14430626177E+02  0.51100000000E-03 0.  1.
        -11    1    3    3    0    0 -0.42001430183E+01 -0.59236169350E+01  0.14241946377E+02  0.15986352799E+02  0.51100000000E-03 0. -1.
         12    1    3    3    0    0  0.24601333239E+02  0.22352515995E+02 -0.25746585904E+02  0.42044586502E+02  0.00000000000E+00 0. -1.
</event>
<event>
 7    1  0.2972263E-013  0.7246147E+02  0.7816164E-02  0.1226708E+00
        -11   -1    0    0    0    0  0.00000000000E+00  0.00000000000E+00  0.45593999997E+02  0.45594000000E+02  0.51100000000E-03 0. -1.
         11   -1    0    0    0    0 -0.00000000000E+00 -0.00000000000E+00 -0.45593999997E+02  0.45594000000E+02  0.51100000000E-03 0.  1.
    9900012    2    1    2    0    0 -0.17862216277E+02 -0.55417269161E+01  0.95571873262E+00  0.72461470534E+02  0.69999870044E+02 0.  0.
         12    1    1    2    0    0  0.17862216277E+02  0.55417269161E+01 -0.95571873262E+00  0.18726529466E+02  0.00000000000E+00 0. -1.
         11    1    3    3    0    0  0.15657292105E+01 -0.25485103556E+02  0.14252945628E+02  0.29241895810E+02  0.51100000000E-03 0. -1.
        -11    1    3    3    0    0 -0.62489154957E+01 -0.80451418035E+01 -0.32470572957E+01  0.10691895662E+02  0.51100000000E-03 0.  1.
         12    1    3    3    0    0 -0.13179029992E+02  0.27988518443E+02 -0.10050169599E+02  0.32527679062E+02  0.00000000000E+00 0. -1.
</event>
<event>
 7    1  0.2972263E-013  0.7246157E+02  0.7816164E-02  0.1226708E+00
        -11   -1    0    0    0    0  0.00000000000E+00  0.00000000000E+00  0.45593999997E+02  0.45594000000E+02  0.51100000000E-03 0.  1.
         11   -1    0    0    0    0 -0.00000000000E+00 -0.00000000000E+00 -0.45593999997E+02  0.45594000000E+02  0.51100000000E-03 0. -1.
    9900012    2    1    2    0    0  0.58170649736E+00  0.18224997628E+02 -0.42650068713E+01  0.72461569358E+02  0.69999998780E+02 0.  0.
         12    1    1    2    0    0 -0.58170649736E+00 -0.18224997628E+02  0.42650068713E+01  0.18726430642E+02  0.00000000000E+00 0. -1.
         11    1    3    3    0    0 -0.12498944888E+02  0.17247041425E+01  0.11147221485E+02  0.16836233984E+02  0.51100000000E-03 0. -1.
        -11    1    3    3    0    0 -0.62916378945E+01  0.14910277823E+02  0.13303523341E+02  0.20949578175E+02  0.51100000000E-03 0.  1.
         12    1    3    3    0    0  0.19372289279E+02  0.15900156625E+01 -0.28715751697E+02  0.34675757198E+02  0.00000000000E+00 0. -1.
</event>
<event>
 7    1  0.2972263E-013  0.7246151E+02  0.7816164E-02  0.1226708E+00
        -11   -1    0    0    0    0  0.00000000000E+00  0.00000000000E+00  0.45593999997E+02  0.45594000000E+02  0.51100000000E-03 0. -1.
         11   -1    0    0    0    0 -0.00000000000E+00 -0.00000000000E+00 -0.45593999997E+02  0.45594000000E+02  0.51100000000E-03 0.  1.
    9900012    2    1    2    0    0  0.14216026744E+02  0.35822971159E+01 -0.11651323676E+02  0.72461505069E+02  0.69999915031E+02 0.  0.
         12    1    1    2    0    0 -0.14216026744E+02 -0.35822971159E+01  0.11651323676E+02  0.18726494931E+02  0.00000000000E+00 0. -1.
         11    1    3    3    0    0 -0.27441496988E+01  0.26671568482E+02 -0.17659307848E+02  0.32105359004E+02  0.51100000000E-03 0. -1.
        -11    1    3    3    0    0  0.20007146862E+02 -0.39337659778E+01  0.46410518315E+01  0.20911714485E+02  0.51100000000E-03 0.  1.
        -12    1    3    3    0    0 -0.30469704193E+01 -0.19155505389E+02  0.13669323404E+01  0.19444431580E+02  0.00000000000E+00 0.  1.
</event>
<event>
 7    1  0.2972263E-013  0.7246166E+02  0.7816164E-02  0.1226708E+00
        -11   -1    0    0    0    0  0.00000000000E+00  0.00000000000E+00  0.45593999997E+02  0.45594000000E+02  0.51100000000E-03 0.  1.
         11   -1    0    0    0    0 -0.00000000000E+00 -0.00000000000E+00 -0.45593999997E+02  0.45594000000E+02  0.51100000000E-03 0. -1.
    9900012    2    1    2    0    0 -0.11014546069E+02 -0.70963336863E+01  0.13378992970E+02  0.72461664806E+02  0.70000123119E+02 0.  0.
         12    1    1    2    0    0  0.11014546069E+02  0.70963336863E+01 -0.13378992970E+02  0.18726335194E+02  0.00000000000E+00 0. -1.
         11    1    3    3    0    0 -0.10242951648E+02 -0.18993934853E+00  0.25250076793E+02  0.27249229599E+02  0.51100000000E-03 0. -1.
        -11    1    3    3    0    0  0.95646061964E-01 -0.53004180278E+01  0.16218856308E+02  0.17063261108E+02  0.51100000000E-03 0.  1.
         12    1    3    3    0    0 -0.86724048287E+00 -0.16059763099E+01 -0.28089940130E+02  0.28149174100E+02  0.00000000000E+00 0. -1.
</event>
<event>
 7    1  0.2972263E-013  0.7246161E+02  0.7816164E-02  0.1226708E+00
        -11   -1    0    0    0    0  0.00000000000E+00  0.00000000000E+00  0.45593999997E+02  0.45594000000E+02  0.51100000000E-03 0. -1.
         11   -1    0    0    0    0 -0.00000000000E+00 -0.00000000000E+00 -0.45593999997E+02  0.45594000000E+02  0.51100000000E-03 0.  1.
    9900012    2    1    2    0    0 -0.78405119531E+01  0.26589550527E+01 -0.16796846879E+02  0.72461608603E+02  0.70000049905E+02 0.  0.
         12    1    1    2    0    0  0.78405119531E+01 -0.26589550527E+01  0.16796846879E+02  0.18726391397E+02  0.00000000000E+00 0. -1.
         11    1    3    3    0    0 -0.10676889311E+02  0.15035593356E+02 -0.21332611302E+01  0.18563831400E+02  0.51100000000E-03 0. -1.
        -11    1    3    3    0    0  0.24786534310E+01 -0.11202547346E+02 -0.33299907400E+02  0.35221082082E+02  0.51100000000E-03 0.  1.
         12    1    3    3    0    0  0.35772392737E+00 -0.11740909571E+01  0.18636321651E+02  0.18676695122E+02  0.00000000000E+00 0. -1.
</event>
<event>
 7    1  0.2972263E-013  0.7246155E+02  0.7816164E-02  0.1226708E+00
        -11   -1    0    0    0    0  0.00000000000E+00  0.00000000000E+00  0.45593999997E+02  0.45594000000E+02  0.51100000000E-03 0. -1.
         11   -1    0    0    0    0 -0.00000000000E+00 -0.00000000000E+00 -0.45593999997E+02  0.45594000000E+02  0.51100000000E-03 0.  1.
    9900012    2    1    2    0    0  0.25141389689E+00  0.18559465355E+02  0.24825312597E+01  0.72461550132E+02  0.69999973735E+02 0.  0.
         12    1    1    2    0    0 -0.25141389689E+00 -0.18559465355E+02 -0.24825312597E+01  0.18726449868E+02  0.00000000000E+00 0. -1.
         11    1    3    3    0    0  0.84167534460E+01 -0.14295371771E+02  0.29980775454E+01  0.16857872401E+02  0.51100000000E-03 0. -1.
        -11    1    3    3    0    0 -0.49015711596E+01 -0.32808730708E+01 -0.15320429154E+02  0.16416609810E+02  0.51100000000E-03 0.  1.
        -12    1    3    3    0    0 -0.32637683895E+01  0.36135710197E+02  0.14804882868E+02  0.39187067921E+02  0.00000000000E+00 0.  1.
</event>
<event>
 7    1  0.2972263E-013  0.7246165E+02  0.7816164E-02  0.1226708E+00
        -11   -1    0    0    0    0  0.00000000000E+00  0.00000000000E+00  0.45593999997E+02  0.45594000000E+02  0.51100000000E-03 0. -1.
         11   -1    0    0    0    0 -0.00000000000E+00 -0.00000000000E+00 -0.45593999997E+02  0.45594000000E+02  0.51100000000E-03 0.  1.
    9900012    2    1    2    0    0  0.43764960371E+01 -0.18203576329E+02 -0.39015689297E+00  0.72461651420E+02  0.70000105681E+02 0.  0.
         12    1    1    2    0    0 -0.43764960371E+01  0.18203576329E+02  0.39015689297E+00  0.18726348580E+02  0.00000000000E+00 0. -1.
         11    1    3    3    0    0  0.13902468189E+02  0.10294916312E+02  0.21051088147E+02  0.27247242724E+02  0.51100000000E-03 0. -1.
        -11    1    3    3    0    0 -0.41569468595E+01  0.45044174263E+01 -0.16035633749E+01  0.63357240550E+01  0.51100000000E-03 0.  1.
        -12    1    3    3    0    0 -0.53690252925E+01 -0.33002910068E+02 -0.19837681665E+02  0.38878684641E+02  0.00000000000E+00 0.  1.
</event>
<event>
 7    1  0.2972263E-013  0.7246161E+02  0.7816164E-02  0.1226708E+00
        -11   -1    0    0    0    0  0.00000000000E+00  0.00000000000E+00  0.45593999997E+02  0.45594000000E+02  0.51100000000E-03 0. -1.
         11   -1    0    0    0    0 -0.00000000000E+00 -0.00000000000E+00 -0.45593999997E+02  0.45594000000E+02  0.51100000000E-03 0.  1.
    9900012    2    1    2    0    0 -0.15560531361E+02 -0.84817455018E+01 -0.60504176443E+01  0.72461609620E+02  0.70000051229E+02 0.  0.
         12    1    1    2    0    0  0.15560531361E+02  0.84817455018E+01  0.60504176443E+01  0.18726390380E+02  0.00000000000E+00 0. -1.
         11    1    3    3    0    0  0.12224716043E+02 -0.10363560740E+02 -0.17359247189E+02  0.23626056310E+02  0.51100000000E-03 0. -1.
        -11    1    3    3    0    0 -0.59969480226E+01  0.34044843260E+01 -0.13878393637E+02  0.15497216180E+02  0.51100000000E-03 0.  1.
        -12    1    3    3    0    0 -0.21788299380E+02 -0.15226690882E+01  0.25187223182E+02  0.33338337131E+02  0.00000000000E+00 0.  1.
</event>
<event>
 7    1  0.2972263E-013  0.7246169E+02  0.7816164E-02  0.1226708E+00
        -11   -1    0    0    0    0  0.00000000000E+00  0.00000000000E+00  0.45593999997E+02  0.45594000000E+02  0.51100000000E-03 0.  1.
         11   -1    0    0    0    0 -0.00000000000E+00 -0.00000000000E+00 -0.45593999997E+02  0.45594000000E+02  0.51100000000E-03 0. -1.
    9900012    2    1    2    0    0  0.11831997035E+02 -0.14019648806E+02  0.37587045118E+01  0.72461693207E+02  0.70000160117E+02 0.  0.
         12    1    1    2    0    0 -0.11831997035E+02  0.14019648806E+02 -0.37587045118E+01  0.18726306793E+02  0.00000000000E+00 0. -1.
         11    1    3    3    0    0 -0.15162725085E+02  0.66373021407E+01  0.26596964066E+02  0.31326674090E+02  0.51100000000E-03 0.  1.
        -11    1    3    3    0    0  0.15685483268E+01 -0.39126543579E+00 -0.17405170435E+01  0.23754646566E+01  0.51100000000E-03 0. -1.
        -12    1    3    3    0    0  0.25426173793E+02 -0.20265685511E+02 -0.21097742511E+02  0.38759554461E+02  0.00000000000E+00 0.  1.
</event>
<event>
 7    1  0.2972263E-013  0.7246154E+02  0.7816164E-02  0.1226708E+00
        -11   -1    0    0    0    0  0.00000000000E+00  0.00000000000E+00  0.45593999997E+02  0.45594000000E+02  0.51100000000E-03 0.  1.
         11   -1    0    0    0    0 -0.00000000000E+00 -0.00000000000E+00 -0.45593999997E+02  0.45594000000E+02  0.51100000000E-03 0. -1.
    9900012    2    1    2    0    0 -0.83767680607E+01 -0.37220848461E+01  0.16329614180E+02  0.72461535891E+02  0.69999955183E+02 0.  0.
         12    1    1    2    0    0  0.83767680607E+01  0.37220848461E+01 -0.16329614180E+02  0.18726464109E+02  0.00000000000E+00 0. -1.
         11    1    3    3    0    0  0.80205224865E+01 -0.49329375641E+01  0.10752881636E+02  0.14292904453E+02  0.51100000000E-03 0. -1.
        -11    1    3    3    0    0 -0.19945036565E+02 -0.16410640876E+02  0.21918660050E+02  0.33875378613E+02  0.51100000000E-03 0.  1.
         12    1    3    3    0    0  0.35477460173E+01  0.17621493594E+02 -0.16341927505E+02  0.24293252826E+02  0.00000000000E+00 0. -1.
</event>
<event>
 7    1  0.2972263E-013  0.7246155E+02  0.7816164E-02  0.1226708E+00
        -11   -1    0    0    0    0  0.00000000000E+00  0.00000000000E+00  0.45593999997E+02  0.45594000000E+02  0.51100000000E-03 0.  1.
         11   -1    0    0    0    0 -0.00000000000E+00 -0.00000000000E+00 -0.45593999997E+02  0.45594000000E+02  0.51100000000E-03 0. -1.
    9900012    2    1    2    0    0 -0.14019232780E+02 -0.10932151862E+02 -0.58846471157E+01  0.72461550690E+02  0.69999974462E+02 0.  0.
         12    1    1    2    0    0  0.14019232780E+02  0.10932151862E+02  0.58846471157E+01  0.18726449310E+02  0.00000000000E+00 0. -1.
         11    1    3    3    0    0 -0.18796110188E+02 -0.30147639005E+02 -0.13818856378E+02  0.38120003772E+02  0.51100000000E-03 0. -1.
        -11    1    3    3    0    0  0.47894326757E+01 -0.62653377833E+01  0.26410698677E+01  0.83167525635E+01  0.51100000000E-03 0.  1.
        -12    1    3    3    0    0 -0.12555267725E-01  0.25480824926E+02  0.52931393948E+01  0.26024794355E+02  0.00000000000E+00 0.  1.
</event>
<event>
 7    1  0.2972263E-013  0.7246162E+02  0.7816164E-02  0.1226708E+00
        -11   -1    0    0    0    0  0.00000000000E+00  0.00000000000E+00  0.45593999997E+02  0.45594000000E+02  0.51100000000E-03 0.  1.
         11   -1    0    0    0    0 -0.00000000000E+00 -0.00000000000E+00 -0.45593999997E+02  0.45594000000E+02  0.51100000000E-03 0. -1.
    9900012    2    1    2    0    0  0.16994795283E+02 -0.72518120244E+01  0.30439227846E+01  0.72461619937E+02  0.70000064669E+02 0.  0.
         12    1    1    2    0    0 -0.16994795283E+02  0.72518120244E+01 -0.30439227846E+01  0.18726380063E+02  0.00000000000E+00 0. -1.
         11    1    3    3    0    0  0.16356035602E+02  0.37794242686E+01  0.12099287282E+00  0.16787453289E+02  0.51100000000E-03 0. -1.
        -11    1    3    3    0    0 -0.18689672519E+02  0.65508710205E+01  0.16905952280E+02  0.26038989857E+02  0.51100000000E-03 0.  1.
         12    1    3    3    0    0  0.19328432200E+02 -0.17582107313E+02 -0.13983022368E+02  0.29635176791E+02  0.00000000000E+00 0. -1.
</event>
<event>
 7    1  0.2972263E-013  0.7246162E+02  0.7816164E-02  0.1226708E+00
        -11   -1    0    0    0    0  0.00000000000E+00  0.00000000000E+00  0.45593999997E+02  0.45594000000E+02  0.51100000000E-03 0.  1.
         11   -1    0    0    0    0 -0.00000000000E+00 -0.00000000000E+00 -0.45593999997E+02  0.45594000000E+02  0.51100000000E-03 0. -1.
    9900012    2    1    2    0    0 -0.29986721743E+01  0.18136871226E+02  0.35692119488E+01  0.72461617365E+02  0.70000061318E+02 0.  0.
         12    1    1    2    0    0  0.29986721743E+01 -0.18136871226E+02 -0.35692119488E+01  0.18726382635E+02  0.00000000000E+00 0. -1.
         11    1    3    3    0    0  0.51233270281E+01  0.11476061460E+01 -0.16078607359E+02  0.16914109334E+02  0.51100000000E-03 0. -1.
        -11    1    3    3    0    0 -0.70592401886E+01  0.22420158761E+02 -0.98860787001E+01  0.25499626335E+02  0.51100000000E-03 0.  1.
        -12    1    3    3    0    0 -0.10627590139E+01 -0.54308936811E+01  0.29533898008E+02  0.30047881696E+02  0.00000000000E+00 0.  1.
</event>
<event>
 7    1  0.2972263E-013  0.7246157E+02  0.7816164E-02  0.1226708E+00
        -11   -1    0    0    0    0  0.00000000000E+00  0.00000000000E+00  0.45593999997E+02  0.45594000000E+02  0.51100000000E-03 0. -1.
         11   -1    0    0    0    0 -0.00000000000E+00 -0.00000000000E+00 -0.45593999997E+02  0.45594000000E+02  0.51100000000E-03 0.  1.
    9900012    2    1    2    0    0 -0.10264953144E+02 -0.15278417087E+02 -0.34467395300E+01  0.72461566674E+02  0.69999995284E+02 0.  0.
         12    1    1    2    0    0  0.10264953144E+02  0.15278417087E+02  0.34467395300E+01  0.18726433326E+02  0.00000000000E+00 0. -1.
         11    1    3    3    0    0 -0.45166546987E+01 -0.25859350561E+02  0.25590063979E+02  0.36660026676E+02  0.51100000000E-03 0. -1.
        -11    1    3    3    0    0 -0.53203443267E+01  0.84510883992E+01 -0.41405650061E+01  0.10810700149E+02  0.51100000000E-03 0.  1.
        -12    1    3    3    0    0 -0.42795411846E+00  0.21298450755E+01 -0.24896238503E+02  0.24990839850E+02  0.00000000000E+00 0.  1.
</event>
<event>
 7    1  0.2972263E-013  0.7246147E+02  0.7816164E-02  0.1226708E+00
        -11   -1    0    0    0    0  0.00000000000E+00  0.00000000000E+00  0.45593999997E+02  0.45594000000E+02  0.51100000000E-03 0.  1.
         11   -1    0    0    0    0 -0.00000000000E+00 -0.00000000000E+00 -0.45593999997E+02  0.45594000000E+02  0.51100000000E-03 0. -1.
    9900012    2    1    2    0    0  0.85499396798E+01  0.30972117356E+01  0.16370365582E+02  0.72461466462E+02  0.69999864739E+02 0.  0.
         12    1    1    2    0    0 -0.85499396798E+01 -0.30972117356E+01 -0.16370365582E+02  0.18726533538E+02  0.00000000000E+00 0. -1.
         11    1    3    3    0    0 -0.31255191705E+01 -0.63924505985E+01 -0.11378776598E+01  0.72060433366E+01  0.51100000000E-03 0. -1.
        -11    1    3    3    0    0 -0.24263108503E+02 -0.37073603622E+01  0.78743933859E+01  0.25776908786E+02  0.51100000000E-03 0.  1.
        -12    1    3    3    0    0  0.35938567353E+02  0.13197022696E+02  0.96338498556E+01  0.39478514340E+02  0.00000000000E+00 0.  1.
</event>
<event>
 7    1  0.2972263E-013  0.7246160E+02  0.7816164E-02  0.1226708E+00
        -11   -1    0    0    0    0  0.00000000000E+00  0.00000000000E+00  0.45593999997E+02  0.45594000000E+02  0.51100000000E-03 0.  1.
         11   -1    0    0    0    0 -0.00000000000E+00 -0.00000000000E+00 -0.45593999997E+02  0.45594000000E+02  0.51100000000E-03 0. -1.
    9900012    2    1    2    0    0  0.58993839004E+01  0.15236312245E+02  0.91504199646E+01  0.72461598137E+02  0.70000036270E+02 0.  0.
         12    1    1    2    0    0 -0.58993839004E+01 -0.15236312245E+02 -0.91504199646E+01  0.18726401863E+02  0.00000000000E+00 0. -1.
         11    1    3    3    0    0  0.11490299205E+02 -0.63932769770E+01  0.46674264966E+01  0.13952986659E+02  0.51100000000E-03 0. -1.
        -11    1    3    3    0    0  0.16866503877E+02  0.29779765525E+02  0.51439402231E+01  0.34608864602E+02  0.51100000000E-03 0.  1.
         12    1    3    3    0    0 -0.22457419182E+02 -0.81501763039E+01 -0.66094675516E+00  0.23899746876E+02  0.00000000000E+00 0. -1.
</event>
<event>
 7    1  0.2972263E-013  0.7246159E+02  0.7816164E-02  0.1226708E+00
        -11   -1    0    0    0    0  0.00000000000E+00  0.00000000000E+00  0.45593999997E+02  0.45594000000E+02  0.51100000000E-03 0. -1.
         11   -1    0    0    0    0 -0.00000000000E+00 -0.00000000000E+00 -0.45593999997E+02  0.45594000000E+02  0.51100000000E-03 0.  1.
    9900012    2    1    2    0    0 -0.83812420151E+01 -0.75417562265E+01  0.14951758274E+02  0.72461591370E+02  0.70000027455E+02 0.  0.
         12    1    1    2    0    0  0.83812420151E+01  0.75417562265E+01 -0.14951758274E+02  0.18726408630E+02  0.00000000000E+00 0. -1.
         11    1    3    3    0    0 -0.23100307461E+01  0.65250018881E+01  0.41302230077E+01  0.80604363431E+01  0.51100000000E-03 0. -1.
        -11    1    3    3    0    0 -0.29009720954E+02  0.44824056138E+01  0.17472755844E+02  0.34160694767E+02  0.51100000000E-03 0.  1.
         12    1    3    3    0    0  0.22938509684E+02 -0.18549163728E+02 -0.66512205778E+01  0.30240460260E+02  0.00000000000E+00 0. -1.
</event>
<event>
 7    1  0.2972263E-013  0.7246160E+02  0.7816164E-02  0.1226708E+00
        -11   -1    0    0    0    0  0.00000000000E+00  0.00000000000E+00  0.45593999997E+02  0.45594000000E+02  0.51100000000E-03 0.  1.
         11   -1    0    0    0    0 -0.00000000000E+00 -0.00000000000E+00 -0.45593999997E+02  0.45594000000E+02  0.51100000000E-03 0. -1.
    9900012    2    1    2    0    0 -0.10147492387E+02 -0.65437369031E+01  0.14313835743E+02  0.72461601839E+02  0.70000041093E+02 0.  0.
         12    1    1    2    0    0  0.10147492387E+02  0.65437369031E+01 -0.14313835743E+02  0.18726398161E+02  0.00000000000E+00 0. -1.
         11    1    3    3    0    0  0.10921021668E+02 -0.14446009009E+02  0.10249801058E+02  0.20808995953E+02  0.51100000000E-03 0. -1.
        -11    1    3    3    0    0 -0.42669220954E+00 -0.17934269852E+02  0.48149563178E+01  0.18574280766E+02  0.51100000000E-03 0.  1.
         12    1    3    3    0    0 -0.20641821846E+02  0.25836541958E+02 -0.75092163321E+00  0.33078325120E+02  0.00000000000E+00 0. -1.
</event>
<event>
 7    1  0.2972263E-013  0.7246155E+02  0.7816164E-02  0.1226708E+00
        -11   -1    0    0    0    0  0.00000000000E+00  0.00000000000E+00  0.45593999997E+02  0.45594000000E+02  0.51100000000E-03 0.  1.
         11   -1    0    0    0    0 -0.00000000000E+00 -0.00000000000E+00 -0.45593999997E+02  0.45594000000E+02  0.51100000000E-03 0. -1.
    9900012    2    1    2    0    0 -0.98855083304E+01  0.10867368430E+02  0.11612794861E+02  0.72461548760E+02  0.69999971948E+02 0.  0.
         12    1    1    2    0    0  0.98855083304E+01 -0.10867368430E+02 -0.11612794861E+02  0.18726451240E+02  0.00000000000E+00 0. -1.
         11    1    3    3    0    0  0.24587651796E+02  0.17884002393E+01  0.95216882290E+01  0.26427514890E+02  0.51100000000E-03 0. -1.
        -11    1    3    3    0    0 -0.20437180324E+01  0.68078654454E+01  0.10290830730E+02  0.12506998549E+02  0.51100000000E-03 0.  1.
        -12    1    3    3    0    0 -0.32429442094E+02  0.22711027454E+01 -0.81997240982E+01  0.33527035322E+02  0.00000000000E+00 0.  1.
</event>
<event>
 7    1  0.2972263E-013  0.7246159E+02  0.7816164E-02  0.1226708E+00
        -11   -1    0    0    0    0  0.00000000000E+00  0.00000000000E+00  0.45593999997E+02  0.45594000000E+02  0.51100000000E-03 0. -1.
         11   -1    0    0    0    0 -0.00000000000E+00 -0.00000000000E+00 -0.45593999997E+02  0.45594000000E+02  0.51100000000E-03 0.  1.
    9900012    2    1    2    0    0  0.11115886510E+02  0.35761712432E+01 -0.14639892110E+02  0.72461591517E+02  0.70000027647E+02 0.  0.
         12    1    1    2    0    0 -0.11115886510E+02 -0.35761712432E+01  0.14639892110E+02  0.18726408483E+02  0.00000000000E+00 0. -1.
         11    1    3    3    0    0  0.11804893509E+02  0.61494548728E+01 -0.14299895815E+01  0.13387164616E+02  0.51100000000E-03 0. -1.
        -11    1    3    3    0    0  0.23649070586E+02 -0.17045498784E+02 -0.48686811764E+01  0.29555568427E+02  0.51100000000E-03 0.  1.
         12    1    3    3    0    0 -0.24338077585E+02  0.14472215154E+02 -0.83412213519E+01  0.29518858474E+02  0.00000000000E+00 0. -1.
</event>
<event>
 7    1  0.2972263E-013  0.7246157E+02  0.7816164E-02  0.1226708E+00
        -11   -1    0    0    0    0  0.00000000000E+00  0.00000000000E+00  0.45593999997E+02  0.45594000000E+02  0.51100000000E-03 0.  1.
         11   -1    0    0    0    0 -0.00000000000E+00 -0.00000000000E+00 -0.45593999997E+02  0.45594000000E+02  0.51100000000E-03 0. -1.
    9900012    2    1    2    0    0 -0.19185919638E+01 -0.18601223576E+02  0.99639475467E+00  0.72461566379E+02  0.69999994900E+02 0.  0.
         12    1    1    2    0    0  0.19185919638E+01  0.18601223576E+02 -0.99639475467E+00  0.18726433621E+02  0.00000000000E+00 0. -1.
         11    1    3    3    0    0 -0.18571522956E+01  0.63187647630E+01 -0.20416412684E+01  0.68952231370E+01  0.51100000000E-03 0. -1.
        -11    1    3    3    0    0  0.12631765709E+02 -0.83551302721E+01 -0.25831479979E+02  0.29943865230E+02  0.51100000000E-03 0.  1.
        -12    1    3    3    0    0 -0.12693205377E+02 -0.16564858067E+02  0.28869516002E+02  0.35622478012E+02  0.00000000000E+00 0.  1.
</event>
<event>
 7    1  0.4955025E-013  0.7246158E+02  0.7816164E-02  0.1226708E+00
        -11   -1    0    0    0    0  0.00000000000E+00  0.00000000000E+00  0.45593999997E+02  0.45594000000E+02  0.51100000000E-03 0. -1.
         11   -1    0    0    0    0 -0.00000000000E+00 -0.00000000000E+00 -0.45593999997E+02  0.45594000000E+02  0.51100000000E-03 0.  1.
    9900012    2    1    2    0    0  0.22443996566E+01 -0.70946361269E+01 -0.17184518967E+02  0.72461577925E+02  0.70000009941E+02 0.  0.
         12    1    1    2    0    0 -0.22443996566E+01  0.70946361269E+01  0.17184518967E+02  0.18726422075E+02  0.00000000000E+00 0. -1.
         11    1    3    3    0    0 -0.42552968849E+01 -0.23370797968E+02  0.12444864915E+02  0.26817464687E+02  0.51100000000E-03 0. -1.
        -11    1    3    3    0    0  0.98866714553E+01  0.13061868581E+01  0.22848498077E+01  0.10230979204E+02  0.51100000000E-03 0.  1.
        -12    1    3    3    0    0 -0.33869749138E+01  0.14969974983E+02 -0.31914233690E+02  0.35413134034E+02  0.00000000000E+00 0.  1.
</event>
<event>
 7    1  0.2972263E-013  0.7246156E+02  0.7816164E-02  0.1226708E+00
        -11   -1    0    0    0    0  0.00000000000E+00  0.00000000000E+00  0.45593999997E+02  0.45594000000E+02  0.51100000000E-03 0.  1.
         11   -1    0    0    0    0 -0.00000000000E+00 -0.00000000000E+00 -0.45593999997E+02  0.45594000000E+02  0.51100000000E-03 0. -1.
    9900012    2    1    2    0    0  0.10826963892E+02 -0.14769460671E+02  0.39140034996E+01  0.72461560428E+02  0.69999987147E+02 0.  0.
         12    1    1    2    0    0 -0.10826963892E+02  0.14769460671E+02 -0.39140034996E+01  0.18726439572E+02  0.00000000000E+00 0. -1.
         11    1    3    3    0    0  0.16787748691E+02 -0.88791055907E+01  0.90864011376E+01  0.21053021353E+02  0.51100000000E-03 0. -1.
        -11    1    3    3    0    0 -0.23394018136E+01 -0.14397253920E+02  0.19907234642E+02  0.24678973087E+02  0.51100000000E-03 0.  1.
         12    1    3    3    0    0 -0.36213829845E+01  0.85068988392E+01 -0.25079632280E+02  0.26729565988E+02  0.00000000000E+00 0. -1.
</event>
<event>
 7    1  0.2972263E-013  0.7246158E+02  0.7816164E-02  0.1226708E+00
        -11   -1    0    0    0    0  0.00000000000E+00  0.00000000000E+00  0.45593999997E+02  0.45594000000E+02  0.51100000000E-03 0.  1.
         11   -1    0    0    0    0 -0.00000000000E+00 -0.00000000000E+00 -0.45593999997E+02  0.45594000000E+02  0.51100000000E-03 0. -1.
    9900012    2    1    2    0    0  0.53402332613E+01 -0.11471300283E+02  0.13804713833E+02  0.72461576276E+02  0.70000007792E+02 0.  0.
         12    1    1    2    0    0 -0.53402332613E+01  0.11471300283E+02 -0.13804713833E+02  0.18726423724E+02  0.00000000000E+00 0. -1.
         11    1    3    3    0    0  0.16864125901E+01 -0.26585466366E+00 -0.16288040566E+01  0.23595908633E+01  0.51100000000E-03 0. -1.
        -11    1    3    3    0    0  0.25680177336E+02 -0.23385079630E+01 -0.16271860011E+02  0.30491204567E+02  0.51100000000E-03 0.  1.
         12    1    3    3    0    0 -0.22026356665E+02 -0.88669376568E+01  0.31705377901E+02  0.39610780845E+02  0.00000000000E+00 0. -1.
</event>
<event>
 7    1  0.2972263E-013  0.7246156E+02  0.7816164E-02  0.1226708E+00
        -11   -1    0    0    0    0  0.00000000000E+00  0.00000000000E+00  0.45593999997E+02  0.45594000000E+02  0.51100000000E-03 0.  1.
         11   -1    0    0    0    0 -0.00000000000E+00 -0.00000000000E+00 -0.45593999997E+02  0.45594000000E+02  0.51100000000E-03 0. -1.
    9900012    2    1    2    0    0 -0.10503554881E+02 -0.16813889350E+01  0.15411933280E+02  0.72461563571E+02  0.69999991242E+02 0.  0.
         12    1    1    2    0    0  0.10503554881E+02  0.16813889350E+01 -0.15411933280E+02  0.18726436429E+02  0.00000000000E+00 0. -1.
         11    1    3    3    0    0  0.78242328641E+01  0.92138625953E+01  0.79386519022E+01  0.14461537889E+02  0.51100000000E-03 0. -1.
        -11    1    3    3    0    0 -0.61938408992E+01 -0.39773777959E+01  0.30331658937E+02  0.31212060703E+02  0.51100000000E-03 0.  1.
         12    1    3    3    0    0 -0.12133946846E+02 -0.69178737344E+01 -0.22858377559E+02  0.26787964979E+02  0.00000000000E+00 0. -1.
</event>
<event>
 7    1  0.2972263E-013  0.7246158E+02  0.7816164E-02  0.1226708E+00
        -11   -1    0    0    0    0  0.00000000000E+00  0.00000000000E+00  0.45593999997E+02  0.45594000000E+02  0.51100000000E-03 0.  1.
         11   -1    0    0    0    0 -0.00000000000E+00 -0.00000000000E+00 -0.45593999997E+02  0.45594000000E+02  0.51100000000E-03 0. -1.
    9900012    2    1    2    0    0 -0.12853423205E+00  0.18272063394E+02 -0.40980328183E+01  0.72461582973E+02  0.70000016516E+02 0.  0.
         12    1    1    2    0    0  0.12853423205E+00 -0.18272063394E+02  0.40980328183E+01  0.18726417027E+02  0.00000000000E+00 0. -1.
         11    1    3    3    0    0 -0.19070651499E+02  0.13047930951E+02  0.63493123512E+01  0.23963556044E+02  0.51100000000E-03 0. -1.
        -11    1    3    3    0    0 -0.98639275914E+01  0.14746390761E+01  0.90864835730E+01  0.13492064776E+02  0.51100000000E-03 0.  1.
        -12    1    3    3    0    0  0.28806044858E+02  0.37494933663E+01 -0.19533828743E+02  0.35005962152E+02  0.00000000000E+00 0.  1.
</event>
<event>
 7    1  0.2972263E-013  0.7246155E+02  0.7816164E-02  0.1226708E+00
        -11   -1    0    0    0    0  0.00000000000E+00  0.00000000000E+00  0.45593999997E+02  0.45594000000E+02  0.51100000000E-03 0.  1.
         11   -1    0    0    0    0 -0.00000000000E+00 -0.00000000000E+00 -0.45593999997E+02  0.45594000000E+02  0.51100000000E-03 0. -1.
    9900012    2    1    2    0    0  0.29891687360E+01 -0.72886342764E+01  0.16988833632E+02  0.72461553793E+02  0.69999978504E+02 0.  0.
         12    1    1    2    0    0 -0.29891687360E+01  0.72886342764E+01 -0.16988833632E+02  0.18726446207E+02  0.00000000000E+00 0. -1.
         11    1    3    3    0    0 -0.49864502785E+01  0.14658635845E+02 -0.75724277548E+01  0.17236065490E+02  0.51100000000E-03 0. -1.
        -11    1    3    3    0    0  0.94404908239E+01  0.10885471721E+02  0.36450729036E+00  0.14413508504E+02  0.51100000000E-03 0.  1.
        -12    1    3    3    0    0 -0.14648718095E+01 -0.32832741842E+02  0.24196754097E+02  0.40811979799E+02  0.00000000000E+00 0.  1.
</event>
<event>
 7    1  0.2972263E-013  0.7246152E+02  0.7816164E-02  0.1226708E+00
        -11   -1    0    0    0    0  0.00000000000E+00  0.00000000000E+00  0.45593999997E+02  0.45594000000E+02  0.51100000000E-03 0.  1.
         11   -1    0    0    0    0 -0.00000000000E+00 -0.00000000000E+00 -0.45593999997E+02  0.45594000000E+02  0.51100000000E-03 0. -1.
    9900012    2    1    2    0    0 -0.12483908042E+02 -0.90324085698E+01  0.10641842705E+02  0.72461516594E+02  0.69999930046E+02 0.  0.
         12    1    1    2    0    0  0.12483908042E+02  0.90324085698E+01 -0.10641842705E+02  0.18726483406E+02  0.00000000000E+00 0. -1.
         11    1    3    3    0    0  0.70171453236E+01  0.19515735016E+02 -0.24943815161E+00  0.20740454704E+02  0.51100000000E-03 0. -1.
        -11    1    3    3    0    0 -0.34591330498E+01  0.82053795452E+01 -0.28189089620E+01  0.93402410533E+01  0.51100000000E-03 0.  1.
        -12    1    3    3    0    0 -0.16041920316E+02 -0.36753523131E+02  0.13710189819E+02  0.42380820837E+02  0.00000000000E+00 0.  1.
</event>
<event>
 7    1  0.2972263E-013  0.7246176E+02  0.7816164E-02  0.1226708E+00
        -11   -1    0    0    0    0  0.00000000000E+00  0.00000000000E+00  0.45593999997E+02  0.45594000000E+02  0.51100000000E-03 0.  1.
         11   -1    0    0    0    0 -0.00000000000E+00 -0.00000000000E+00 -0.45593999997E+02  0.45594000000E+02  0.51100000000E-03 0. -1.
    9900012    2    1    2    0    0 -0.80495335425E+01  0.15099576934E+02  0.76078796191E+01  0.72461760491E+02  0.70000247766E+02 0.  0.
         12    1    1    2    0    0  0.80495335425E+01 -0.15099576934E+02 -0.76078796191E+01  0.18726239509E+02  0.00000000000E+00 0. -1.
         11    1    3    3    0    0 -0.26248065145E+02 -0.53612125339E-01  0.13468733910E+01  0.26282653334E+02  0.51100000000E-03 0. -1.
        -11    1    3    3    0    0  0.52129310659E+01 -0.84128375139E+00  0.20477905479E+02  0.21147742710E+02  0.51100000000E-03 0.  1.
        -12    1    3    3    0    0  0.12985600536E+02  0.15994472811E+02 -0.14216899251E+02  0.25031364447E+02  0.00000000000E+00 0.  1.
</event>
<event>
 7    1  0.2972263E-013  0.7246090E+02  0.7816164E-02  0.1226710E+00
        -11   -1    0    0    0    0  0.00000000000E+00  0.00000000000E+00  0.45593999997E+02  0.45594000000E+02  0.51100000000E-03 0.  1.
         11   -1    0    0    0    0 -0.00000000000E+00 -0.00000000000E+00 -0.45593999997E+02  0.45594000000E+02  0.51100000000E-03 0. -1.
    9900012    2    1    2    0    0  0.56550684443E+01 -0.66701588818E+01  0.16559998139E+02  0.72460897795E+02  0.69999123939E+02 0.  0.
         12    1    1    2    0    0 -0.56550684443E+01  0.66701588818E+01 -0.16559998139E+02  0.18727102205E+02  0.00000000000E+00 0. -1.
         11    1    3    3    0    0  0.10236933658E+02  0.13176591322E+02 -0.10511202697E+00  0.16686174468E+02  0.51100000000E-03 0. -1.
        -11    1    3    3    0    0 -0.94939048145E+01  0.89529979870E+01 -0.98273822285E+01  0.16336090209E+02  0.51100000000E-03 0.  1.
         12    1    3    3    0    0  0.49120396011E+01 -0.28799748191E+02  0.26492492395E+02  0.39438633118E+02  0.00000000000E+00 0. -1.
</event>
<event>
 7    1  0.2972263E-013  0.7246157E+02  0.7816164E-02  0.1226708E+00
        -11   -1    0    0    0    0  0.00000000000E+00  0.00000000000E+00  0.45593999997E+02  0.45594000000E+02  0.51100000000E-03 0. -1.
         11   -1    0    0    0    0 -0.00000000000E+00 -0.00000000000E+00 -0.45593999997E+02  0.45594000000E+02  0.51100000000E-03 0.  1.
    9900012    2    1    2    0    0  0.18155071174E+02  0.37931296169E+01 -0.25855163947E+01  0.72461565832E+02  0.69999994186E+02 0.  0.
         12    1    1    2    0    0 -0.18155071174E+02 -0.37931296169E+01  0.25855163947E+01  0.18726434168E+02  0.00000000000E+00 0. -1.
         11    1    3    3    0    0 -0.42058698556E+00 -0.10057363770E+02 -0.66978622986E+00  0.10088412822E+02  0.51100000000E-03 0. -1.
        -11    1    3    3    0    0  0.32616392423E+02 -0.96828801198E+01  0.42402372945E+01  0.34286540138E+02  0.51100000000E-03 0.  1.
         12    1    3    3    0    0 -0.14040734263E+02  0.23533373506E+02 -0.61559674594E+01  0.28086612871E+02  0.00000000000E+00 0. -1.
</event>
<event>
 7    1  0.3629182E-013  0.7246170E+02  0.7816164E-02  0.1226708E+00
        -11   -1    0    0    0    0  0.00000000000E+00  0.00000000000E+00  0.45593999997E+02  0.45594000000E+02  0.51100000000E-03 0.  1.
         11   -1    0    0    0    0 -0.00000000000E+00 -0.00000000000E+00 -0.45593999997E+02  0.45594000000E+02  0.51100000000E-03 0. -1.
    9900012    2    1    2    0    0  0.86721709078E+01 -0.10794562060E+02 -0.12607350903E+02  0.72461697239E+02  0.70000165369E+02 0.  0.
         12    1    1    2    0    0 -0.86721709078E+01  0.10794562060E+02  0.12607350903E+02  0.18726302761E+02  0.00000000000E+00 0. -1.
         11    1    3    3    0    0 -0.16811792413E+02  0.11655862613E+02  0.35755616584E+01  0.20767285303E+02  0.51100000000E-03 0. -1.
        -11    1    3    3    0    0 -0.23585765948E+01  0.76732779683E+01 -0.35095661650E+01  0.87612289811E+01  0.51100000000E-03 0.  1.
        -12    1    3    3    0    0  0.27842539916E+02 -0.30123702641E+02 -0.12673346396E+02  0.42933182955E+02  0.00000000000E+00 0.  1.
</event>
<event>
 7    1  0.2972263E-013  0.7246161E+02  0.7816164E-02  0.1226708E+00
        -11   -1    0    0    0    0  0.00000000000E+00  0.00000000000E+00  0.45593999997E+02  0.45594000000E+02  0.51100000000E-03 0.  1.
         11   -1    0    0    0    0 -0.00000000000E+00 -0.00000000000E+00 -0.45593999997E+02  0.45594000000E+02  0.51100000000E-03 0. -1.
    9900012    2    1    2    0    0  0.11138184524E+02  0.10472166010E+02  0.10814441058E+02  0.72461613514E+02  0.70000056302E+02 0.  0.
         12    1    1    2    0    0 -0.11138184524E+02 -0.10472166010E+02 -0.10814441058E+02  0.18726386486E+02  0.00000000000E+00 0. -1.
         11    1    3    3    0    0 -0.98359256978E+01  0.88874232267E+01 -0.77363529025E+01  0.15348709471E+02  0.51100000000E-03 0. -1.
        -11    1    3    3    0    0  0.17061503322E+01  0.14811851141E+01 -0.16746873775E+02  0.16898598752E+02  0.51100000000E-03 0.  1.
        -12    1    3    3    0    0  0.19267959890E+02  0.10355766936E+00  0.35297667735E+02  0.40214305291E+02  0.00000000000E+00 0.  1.
</event>
<event>
 7    1  0.2972263E-013  0.7246158E+02  0.7816164E-02  0.1226708E+00
        -11   -1    0    0    0    0  0.00000000000E+00  0.00000000000E+00  0.45593999997E+02  0.45594000000E+02  0.51100000000E-03 0.  1.
         11   -1    0    0    0    0 -0.00000000000E+00 -0.00000000000E+00 -0.45593999997E+02  0.45594000000E+02  0.51100000000E-03 0. -1.
    9900012    2    1    2    0    0  0.78990083349E+00 -0.16088420769E+02  0.95507862576E+01  0.72461581648E+02  0.70000014790E+02 0.  0.
         12    1    1    2    0    0 -0.78990083349E+00  0.16088420769E+02 -0.95507862576E+01  0.18726418352E+02  0.00000000000E+00 0. -1.
         11    1    3    3    0    0  0.12006406558E+02 -0.96043570200E+01 -0.20108323498E+02  0.25312884987E+02  0.51100000000E-03 0. -1.
        -11    1    3    3    0    0 -0.23921468219E+01  0.92120892373E+01 -0.28935129257E+01  0.99477319950E+01  0.51100000000E-03 0.  1.
        -12    1    3    3    0    0 -0.88243589025E+01 -0.15696152986E+02  0.32552622682E+02  0.37200964666E+02  0.00000000000E+00 0.  1.
</event>
<event>
 7    1  0.2972263E-013  0.7246124E+02  0.7816164E-02  0.1226709E+00
        -11   -1    0    0    0    0  0.00000000000E+00  0.00000000000E+00  0.45593999997E+02  0.45594000000E+02  0.51100000000E-03 0.  1.
         11   -1    0    0    0    0 -0.00000000000E+00 -0.00000000000E+00 -0.45593999997E+02  0.45594000000E+02  0.51100000000E-03 0. -1.
    9900012    2    1    2    0    0  0.28378750816E+01  0.10619087346E+02  0.15161565333E+02  0.72461238016E+02  0.69999567145E+02 0.  0.
         12    1    1    2    0    0 -0.28378750816E+01 -0.10619087346E+02 -0.15161565333E+02  0.18726761984E+02  0.00000000000E+00 0. -1.
         11    1    3    3    0    0 -0.11202590886E+02  0.29790815108E+02  0.90352063285E+01  0.33085127490E+02  0.51100000000E-03 0. -1.
        -11    1    3    3    0    0 -0.67468913318E+01  0.31381535491E+01 -0.22127605859E+01  0.77630445066E+01  0.51100000000E-03 0.  1.
        -12    1    3    3    0    0  0.20787357300E+02 -0.22309881311E+02  0.83391195906E+01  0.31613066020E+02  0.00000000000E+00 0.  1.
</event>
<event>
 7    1  0.3383829E-013  0.7246157E+02  0.7816164E-02  0.1226708E+00
        -11   -1    0    0    0    0  0.00000000000E+00  0.00000000000E+00  0.45593999997E+02  0.45594000000E+02  0.51100000000E-03 0. -1.
         11   -1    0    0    0    0 -0.00000000000E+00 -0.00000000000E+00 -0.45593999997E+02  0.45594000000E+02  0.51100000000E-03 0.  1.
    9900012    2    1    2    0    0  0.15184044883E+02  0.18645625545E+01 -0.10800339845E+02  0.72461570727E+02  0.70000000564E+02 0.  0.
         12    1    1    2    0    0 -0.15184044883E+02 -0.18645625545E+01  0.10800339845E+02  0.18726429273E+02  0.00000000000E+00 0. -1.
         11    1    3    3    0    0 -0.22320759402E+02  0.53719530172E+01 -0.54041757012E+01  0.23585573870E+02  0.51100000000E-03 0. -1.
        -11    1    3    3    0    0  0.43451373861E+01 -0.10926363917E+02  0.57843713901E+01  0.13104373315E+02  0.51100000000E-03 0.  1.
        -12    1    3    3    0    0  0.33159666899E+02  0.74189734543E+01 -0.11180535534E+02  0.35771623542E+02  0.00000000000E+00 0.  1.
</event>
<event>
 7    1  0.2972263E-013  0.7246158E+02  0.7816164E-02  0.1226708E+00
        -11   -1    0    0    0    0  0.00000000000E+00  0.00000000000E+00  0.45593999997E+02  0.45594000000E+02  0.51100000000E-03 0. -1.
         11   -1    0    0    0    0 -0.00000000000E+00 -0.00000000000E+00 -0.45593999997E+02  0.45594000000E+02  0.51100000000E-03 0.  1.
    9900012    2    1    2    0    0  0.10252250312E+01 -0.17407686280E+02 -0.68264371956E+01  0.72461578218E+02  0.70000010321E+02 0.  0.
         12    1    1    2    0    0 -0.10252250312E+01  0.17407686280E+02  0.68264371956E+01  0.18726421782E+02  0.00000000000E+00 0. -1.
         11    1    3    3    0    0  0.66779343766E+01  0.45727179140E+01 -0.30573380261E+00  0.80992610823E+01  0.51100000000E-03 0. -1.
        -11    1    3    3    0    0 -0.21407387329E+02  0.80030331808E+01 -0.17469097160E+02  0.28766197666E+02  0.51100000000E-03 0.  1.
         12    1    3    3    0    0  0.15754677983E+02 -0.29983437375E+02  0.10948393767E+02  0.35596119469E+02  0.00000000000E+00 0. -1.
</event>
<event>
 7    1  0.2972263E-013  0.7246151E+02  0.7816164E-02  0.1226708E+00
        -11   -1    0    0    0    0  0.00000000000E+00  0.00000000000E+00  0.45593999997E+02  0.45594000000E+02  0.51100000000E-03 0.  1.
         11   -1    0    0    0    0 -0.00000000000E+00 -0.00000000000E+00 -0.45593999997E+02  0.45594000000E+02  0.51100000000E-03 0. -1.
    9900012    2    1    2    0    0 -0.57826547161E+01 -0.16876843199E+02  0.56933763013E+01  0.72461508988E+02  0.69999920137E+02 0.  0.
         12    1    1    2    0    0  0.57826547161E+01  0.16876843199E+02 -0.56933763013E+01  0.18726491012E+02  0.00000000000E+00 0. -1.
         11    1    3    3    0    0 -0.63271900527E+01  0.10865020229E+02  0.25361033535E+01  0.12826294048E+02  0.51100000000E-03 0. -1.
        -11    1    3    3    0    0 -0.87365040277E+01 -0.55451212898E+01 -0.22314789277E+02  0.24597249714E+02  0.51100000000E-03 0.  1.
        -12    1    3    3    0    0  0.92810393643E+01 -0.22196742137E+02  0.25472062225E+02  0.35037965226E+02  0.00000000000E+00 0.  1.
</event>
<event>
 7    1  0.2972263E-013  0.7246157E+02  0.7816164E-02  0.1226708E+00
        -11   -1    0    0    0    0  0.00000000000E+00  0.00000000000E+00  0.45593999997E+02  0.45594000000E+02  0.51100000000E-03 0. -1.
         11   -1    0    0    0    0 -0.00000000000E+00 -0.00000000000E+00 -0.45593999997E+02  0.45594000000E+02  0.51100000000E-03 0.  1.
    9900012    2    1    2    0    0  0.14134669068E+02  0.12246589863E+02 -0.95464695543E+00  0.72461569915E+02  0.69999999506E+02 0.  0.
         12    1    1    2    0    0 -0.14134669068E+02 -0.12246589863E+02  0.95464695543E+00  0.18726430085E+02  0.00000000000E+00 0. -1.
         11    1    3    3    0    0  0.16342513893E+02 -0.20536206975E+02 -0.14603496379E+02  0.30034574477E+02  0.51100000000E-03 0. -1.
        -11    1    3    3    0    0  0.73733463549E+01  0.16875576064E+01  0.16104830725E+01  0.77335466077E+01  0.51100000000E-03 0.  1.
        -12    1    3    3    0    0 -0.95811911799E+01  0.31095239232E+02  0.12038366351E+02  0.34693448830E+02  0.00000000000E+00 0.  1.
</event>
<event>
 7    1  0.2972263E-013  0.7246152E+02  0.7816164E-02  0.1226708E+00
        -11   -1    0    0    0    0  0.00000000000E+00  0.00000000000E+00  0.45593999997E+02  0.45594000000E+02  0.51100000000E-03 0. -1.
         11   -1    0    0    0    0 -0.00000000000E+00 -0.00000000000E+00 -0.45593999997E+02  0.45594000000E+02  0.51100000000E-03 0.  1.
    9900012    2    1    2    0    0 -0.62587049300E+00 -0.11279320308E+02 -0.14935403830E+02  0.72461519603E+02  0.69999933965E+02 0.  0.
         12    1    1    2    0    0  0.62587049300E+00  0.11279320308E+02  0.14935403830E+02  0.18726480397E+02  0.00000000000E+00 0. -1.
         11    1    3    3    0    0 -0.14200962750E+02 -0.51384640036E+01 -0.14984816264E+02  0.21274770834E+02  0.51100000000E-03 0. -1.
        -11    1    3    3    0    0 -0.12438421412E+02 -0.17197685014E+02 -0.64509899501E+01  0.22183100970E+02  0.51100000000E-03 0.  1.
         12    1    3    3    0    0  0.26013513668E+02  0.11056828709E+02  0.65004023840E+01  0.29003647799E+02  0.00000000000E+00 0. -1.
</event>
<event>
 7    1  0.2972263E-013  0.7246160E+02  0.7816164E-02  0.1226708E+00
        -11   -1    0    0    0    0  0.00000000000E+00  0.00000000000E+00  0.45593999997E+02  0.45594000000E+02  0.51100000000E-03 0.  1.
         11   -1    0    0    0    0 -0.00000000000E+00 -0.00000000000E+00 -0.45593999997E+02  0.45594000000E+02  0.51100000000E-03 0. -1.
    9900012    2    1    2    0    0  0.94074107755E+01 -0.16047614658E+02 -0.21569878591E+01  0.72461603915E+02  0.70000043797E+02 0.  0.
         12    1    1    2    0    0 -0.94074107755E+01  0.16047614658E+02  0.21569878591E+01  0.18726396085E+02  0.00000000000E+00 0. -1.
         11    1    3    3    0    0  0.52319170265E+01  0.95086634012E+01  0.17121628751E+01  0.10987226102E+02  0.51100000000E-03 0. -1.
        -11    1    3    3    0    0  0.18448066214E+02 -0.37542932283E+02 -0.74673523391E+01  0.42491931736E+02  0.51100000000E-03 0.  1.
         12    1    3    3    0    0 -0.14272572465E+02  0.11986654224E+02  0.35982016049E+01  0.18982446076E+02  0.00000000000E+00 0. -1.
</event>
<event>
 7    1  0.3108283E-013  0.7246157E+02  0.7816164E-02  0.1226708E+00
        -11   -1    0    0    0    0  0.00000000000E+00  0.00000000000E+00  0.45593999997E+02  0.45594000000E+02  0.51100000000E-03 0. -1.
         11   -1    0    0    0    0 -0.00000000000E+00 -0.00000000000E+00 -0.45593999997E+02  0.45594000000E+02  0.51100000000E-03 0.  1.
    9900012    2    1    2    0    0  0.48027791278E+01 -0.13870336631E+02 -0.11628688832E+02  0.72461566021E+02  0.69999994434E+02 0.  0.
         12    1    1    2    0    0 -0.48027791278E+01  0.13870336631E+02  0.11628688832E+02  0.18726433979E+02  0.00000000000E+00 0. -1.
         11    1    3    3    0    0 -0.13005936578E+02 -0.28955640840E+02 -0.30742092225E+01  0.31890974982E+02  0.51100000000E-03 0. -1.
        -11    1    3    3    0    0  0.84156787539E+01 -0.92503866078E+01  0.15396141700E+01  0.12600147354E+02  0.51100000000E-03 0.  1.
        -12    1    3    3    0    0  0.93930369517E+01  0.24335690817E+02 -0.10094093780E+02  0.27970443685E+02  0.00000000000E+00 0.  1.
</event>
<event>
 7    1  0.2972263E-013  0.7246157E+02  0.7816164E-02  0.1226708E+00
        -11   -1    0    0    0    0  0.00000000000E+00  0.00000000000E+00  0.45593999997E+02  0.45594000000E+02  0.51100000000E-03 0.  1.
         11   -1    0    0    0    0 -0.00000000000E+00 -0.00000000000E+00 -0.45593999997E+02  0.45594000000E+02  0.51100000000E-03 0. -1.
    9900012    2    1    2    0    0 -0.13277493066E+02  0.13204225036E+02  0.18918402066E+00  0.72461570241E+02  0.69999999930E+02 0.  0.
         12    1    1    2    0    0  0.13277493066E+02 -0.13204225036E+02 -0.18918402066E+00  0.18726429759E+02  0.00000000000E+00 0. -1.
         11    1    3    3    0    0 -0.17790643246E+02 -0.10338316554E+02  0.95411144305E+01  0.22680843042E+02  0.51100000000E-03 0. -1.
        -11    1    3    3    0    0 -0.61400330502E+01  0.13684057844E+02  0.15139682013E+02  0.21311110169E+02  0.51100000000E-03 0.  1.
         12    1    3    3    0    0  0.10653183229E+02  0.98584837466E+01 -0.24491612423E+02  0.28469617029E+02  0.00000000000E+00 0. -1.
</event>
<event>
 7    1  0.2972263E-013  0.7246167E+02  0.7816164E-02  0.1226708E+00
        -11   -1    0    0    0    0  0.00000000000E+00  0.00000000000E+00  0.45593999997E+02  0.45594000000E+02  0.51100000000E-03 0. -1.
         11   -1    0    0    0    0 -0.00000000000E+00 -0.00000000000E+00 -0.45593999997E+02  0.45594000000E+02  0.51100000000E-03 0.  1.
    9900012    2    1    2    0    0  0.11335555505E+02 -0.14799289192E+02 -0.17781328062E+01  0.72461667324E+02  0.70000126399E+02 0.  0.
         12    1    1    2    0    0 -0.11335555505E+02  0.14799289192E+02  0.17781328062E+01  0.18726332676E+02  0.00000000000E+00 0. -1.
         11    1    3    3    0    0  0.35829739871E+01 -0.87073907187E+01 -0.21452772609E+01  0.96570477118E+01  0.51100000000E-03 0. -1.
        -11    1    3    3    0    0 -0.68033478188E+01 -0.72515903640E+01 -0.28646790826E+02  0.30323418825E+02  0.51100000000E-03 0.  1.
         12    1    3    3    0    0  0.14555929337E+02  0.11596918905E+01  0.29013935280E+02  0.32481200788E+02  0.00000000000E+00 0. -1.
</event>
<event>
 7    1  0.2972263E-013  0.7246158E+02  0.7816164E-02  0.1226708E+00
        -11   -1    0    0    0    0  0.00000000000E+00  0.00000000000E+00  0.45593999997E+02  0.45594000000E+02  0.51100000000E-03 0.  1.
         11   -1    0    0    0    0 -0.00000000000E+00 -0.00000000000E+00 -0.45593999997E+02  0.45594000000E+02  0.51100000000E-03 0. -1.
    9900012    2    1    2    0    0  0.24195433560E+01  0.82794227931E+01  0.16621549419E+02  0.72461576504E+02  0.70000008090E+02 0.  0.
         12    1    1    2    0    0 -0.24195433560E+01 -0.82794227931E+01 -0.16621549419E+02  0.18726423496E+02  0.00000000000E+00 0. -1.
         11    1    3    3    0    0 -0.11870877350E+02 -0.21257374353E+02  0.23564063620E+02  0.33883016217E+02  0.51100000000E-03 0. -1.
        -11    1    3    3    0    0  0.72481175796E+01 -0.31904759638E+00 -0.18031403472E+01  0.74758487939E+01  0.51100000000E-03 0.  1.
        -12    1    3    3    0    0  0.70423031259E+01  0.29855844743E+02 -0.51393738535E+01  0.31102711493E+02  0.00000000000E+00 0.  1.
</event>
<event>
 7    1  0.2972263E-013  0.7246156E+02  0.7816164E-02  0.1226708E+00
        -11   -1    0    0    0    0  0.00000000000E+00  0.00000000000E+00  0.45593999997E+02  0.45594000000E+02  0.51100000000E-03 0.  1.
         11   -1    0    0    0    0 -0.00000000000E+00 -0.00000000000E+00 -0.45593999997E+02  0.45594000000E+02  0.51100000000E-03 0. -1.
    9900012    2    1    2    0    0  0.12974339527E+02 -0.11935197680E+02 -0.63164221871E+01  0.72461558291E+02  0.69999984364E+02 0.  0.
         12    1    1    2    0    0 -0.12974339527E+02  0.11935197680E+02  0.63164221871E+01  0.18726441709E+02  0.00000000000E+00 0. -1.
         11    1    3    3    0    0  0.16959470525E+02 -0.18399700685E+02 -0.19913523908E+02  0.31980010326E+02  0.51100000000E-03 0. -1.
        -11    1    3    3    0    0  0.64127568677E+01 -0.10500244479E+02  0.16277299191E+02  0.20404143059E+02  0.51100000000E-03 0.  1.
        -12    1    3    3    0    0 -0.10397887866E+02  0.16964747484E+02 -0.26801974702E+01  0.20077404906E+02  0.00000000000E+00 0.  1.
</event>
<event>
 7    1  0.2972263E-013  0.7246220E+02  0.7816164E-02  0.1226706E+00
        -11   -1    0    0    0    0  0.00000000000E+00  0.00000000000E+00  0.45593999997E+02  0.45594000000E+02  0.51100000000E-03 0. -1.
         11   -1    0    0    0    0 -0.00000000000E+00 -0.00000000000E+00 -0.45593999997E+02  0.45594000000E+02  0.51100000000E-03 0.  1.
    9900012    2    1    2    0    0  0.34222887135E+01  0.65908562734E+01 -0.17190237901E+02  0.72462196265E+02  0.70000815438E+02 0.  0.
         12    1    1    2    0    0 -0.34222887135E+01 -0.65908562734E+01  0.17190237901E+02  0.18725803735E+02  0.00000000000E+00 0. -1.
         11    1    3    3    0    0  0.65036471439E+01 -0.38007580213E+01 -0.13652298451E-01  0.75328198144E+01  0.51100000000E-03 0. -1.
        -11    1    3    3    0    0 -0.45708381984E+01 -0.52579756148E+01  0.21808382906E+02  0.22894200896E+02  0.51100000000E-03 0.  1.
        -12    1    3    3    0    0  0.14894797679E+01  0.15649589910E+02 -0.38984968508E+02  0.42035175555E+02  0.00000000000E+00 0.  1.
</event>
<event>
 7    1  0.2972263E-013  0.7246157E+02  0.7816164E-02  0.1226708E+00
        -11   -1    0    0    0    0  0.00000000000E+00  0.00000000000E+00  0.45593999997E+02  0.45594000000E+02  0.51100000000E-03 0.  1.
         11   -1    0    0    0    0 -0.00000000000E+00 -0.00000000000E+00 -0.45593999997E+02  0.45594000000E+02  0.51100000000E-03 0. -1.
    9900012    2    1    2    0    0  0.16917433528E+02 -0.31257127704E+01  0.73965799443E+01  0.72461573957E+02  0.70000004771E+02 0.  0.
         12    1    1    2    0    0 -0.16917433528E+02  0.31257127704E+01 -0.73965799443E+01  0.18726426043E+02  0.00000000000E+00 0. -1.
         11    1    3    3    0    0 -0.73523755020E+01  0.10385603250E+02 -0.89442632091E+01  0.15553714187E+02  0.51100000000E-03 0. -1.
        -11    1    3    3    0    0 -0.33381452889E+01 -0.21002034658E+02  0.18546220365E+02  0.28216856023E+02  0.51100000000E-03 0.  1.
         12    1    3    3    0    0  0.27607954319E+02  0.74907186376E+01 -0.22053772115E+01  0.28691003747E+02  0.00000000000E+00 0. -1.
</event>
<event>
 7    1  0.2972263E-013  0.7246160E+02  0.7816164E-02  0.1226708E+00
        -11   -1    0    0    0    0  0.00000000000E+00  0.00000000000E+00  0.45593999997E+02  0.45594000000E+02  0.51100000000E-03 0.  1.
         11   -1    0    0    0    0 -0.00000000000E+00 -0.00000000000E+00 -0.45593999997E+02  0.45594000000E+02  0.51100000000E-03 0. -1.
    9900012    2    1    2    0    0 -0.17468096507E+02  0.31094384406E+01  0.59895865702E+01  0.72461597509E+02  0.70000035452E+02 0.  0.
         12    1    1    2    0    0  0.17468096507E+02 -0.31094384406E+01 -0.59895865702E+01  0.18726402491E+02  0.00000000000E+00 0. -1.
         11    1    3    3    0    0 -0.32843720034E+02 -0.31802220826E+01 -0.10486225254E+02  0.34623470053E+02  0.51100000000E-03 0. -1.
        -11    1    3    3    0    0  0.31771004813E+01 -0.78276098623E+01  0.17204271252E+02  0.19166439242E+02  0.51100000000E-03 0.  1.
        -12    1    3    3    0    0  0.12198523046E+02  0.14117270385E+02 -0.72845942801E+00  0.18671688214E+02  0.00000000000E+00 0.  1.
</event>
<event>
 7    1  0.2972263E-013  0.7246156E+02  0.7816164E-02  0.1226708E+00
        -11   -1    0    0    0    0  0.00000000000E+00  0.00000000000E+00  0.45593999997E+02  0.45594000000E+02  0.51100000000E-03 0. -1.
         11   -1    0    0    0    0 -0.00000000000E+00 -0.00000000000E+00 -0.45593999997E+02  0.45594000000E+02  0.51100000000E-03 0.  1.
    9900012    2    1    2    0    0  0.79522171655E+01  0.15506037898E+02 -0.68560008881E+01  0.72461555668E+02  0.69999980946E+02 0.  0.
         12    1    1    2    0    0 -0.79522171655E+01 -0.15506037898E+02  0.68560008881E+01  0.18726444332E+02  0.00000000000E+00 0. -1.
         11    1    3    3    0    0  0.46759718238E+01 -0.83419177306E+01 -0.20250813434E+01  0.97751347116E+01  0.51100000000E-03 0. -1.
        -11    1    3    3    0    0 -0.10767167691E+01 -0.76154838297E+01 -0.24261507133E+02  0.25451436926E+02  0.51100000000E-03 0.  1.
         12    1    3    3    0    0  0.43529621108E+01  0.31463439459E+02  0.19430587588E+02  0.37234984030E+02  0.00000000000E+00 0. -1.
</event>
<event>
 7    1  0.4318807E-013  0.7246156E+02  0.7816164E-02  0.1226708E+00
        -11   -1    0    0    0    0  0.00000000000E+00  0.00000000000E+00  0.45593999997E+02  0.45594000000E+02  0.51100000000E-03 0.  1.
         11   -1    0    0    0    0 -0.00000000000E+00 -0.00000000000E+00 -0.45593999997E+02  0.45594000000E+02  0.51100000000E-03 0. -1.
    9900012    2    1    2    0    0  0.76743506257E+01 -0.92490029961E+01 -0.14361048123E+02  0.72461563683E+02  0.69999991388E+02 0.  0.
         12    1    1    2    0    0 -0.76743506257E+01  0.92490029961E+01  0.14361048123E+02  0.18726436317E+02  0.00000000000E+00 0. -1.
         11    1    3    3    0    0  0.12407943656E+02  0.20138401520E+02  0.85637673785E+01  0.25156517914E+02  0.51100000000E-03 0. -1.
        -11    1    3    3    0    0 -0.10056976412E+02  0.10040528120E+01 -0.28723073224E+01  0.10507190215E+02  0.51100000000E-03 0.  1.
        -12    1    3    3    0    0  0.53233833812E+01 -0.30391457328E+02 -0.20052508179E+02  0.36797855555E+02  0.00000000000E+00 0.  1.
</event>
<event>
 7    1  0.2972263E-013  0.7246123E+02  0.7816164E-02  0.1226709E+00
        -11   -1    0    0    0    0  0.00000000000E+00  0.00000000000E+00  0.45593999997E+02  0.45594000000E+02  0.51100000000E-03 0. -1.
         11   -1    0    0    0    0 -0.00000000000E+00 -0.00000000000E+00 -0.45593999997E+02  0.45594000000E+02  0.51100000000E-03 0.  1.
    9900012    2    1    2    0    0 -0.16460742211E+02  0.27546142514E+01 -0.84939992861E+01  0.72461228851E+02  0.69999555205E+02 0.  0.
         12    1    1    2    0    0  0.16460742211E+02 -0.27546142514E+01  0.84939992861E+01  0.18726771149E+02  0.00000000000E+00 0. -1.
         11    1    3    3    0    0 -0.16417827285E+02  0.51130811067E+01  0.25798283211E+02  0.31003871824E+02  0.51100000000E-03 0. -1.
        -11    1    3    3    0    0  0.65712897744E+01  0.50645673479E+01 -0.33332539065E+01  0.89410443231E+01  0.51100000000E-03 0.  1.
        -12    1    3    3    0    0 -0.66142046996E+01 -0.74230342031E+01 -0.30959028591E+02  0.32516312704E+02  0.00000000000E+00 0.  1.
</event>
<event>
 7    1  0.2972263E-013  0.7246158E+02  0.7816164E-02  0.1226708E+00
        -11   -1    0    0    0    0  0.00000000000E+00  0.00000000000E+00  0.45593999997E+02  0.45594000000E+02  0.51100000000E-03 0. -1.
         11   -1    0    0    0    0 -0.00000000000E+00 -0.00000000000E+00 -0.45593999997E+02  0.45594000000E+02  0.51100000000E-03 0.  1.
    9900012    2    1    2    0    0  0.13614481275E+02  0.12502421531E+02 -0.30023498613E+01  0.72461581516E+02  0.70000014618E+02 0.  0.
         12    1    1    2    0    0 -0.13614481275E+02 -0.12502421531E+02  0.30023498613E+01  0.18726418484E+02  0.00000000000E+00 0. -1.
         11    1    3    3    0    0  0.70212421542E+01  0.30135870809E+01  0.14286476033E+01  0.77730677804E+01  0.51100000000E-03 0. -1.
        -11    1    3    3    0    0  0.25763389044E+01  0.28915241774E+02 -0.23365728905E+02  0.37265077708E+02  0.51100000000E-03 0.  1.
         12    1    3    3    0    0  0.40169002167E+01 -0.19426407324E+02  0.18934731441E+02  0.27423436028E+02  0.00000000000E+00 0. -1.
</event>
<event>
 7    1  0.2972263E-013  0.7246155E+02  0.7816164E-02  0.1226708E+00
        -11   -1    0    0    0    0  0.00000000000E+00  0.00000000000E+00  0.45593999997E+02  0.45594000000E+02  0.51100000000E-03 0. -1.
         11   -1    0    0    0    0 -0.00000000000E+00 -0.00000000000E+00 -0.45593999997E+02  0.45594000000E+02  0.51100000000E-03 0.  1.
    9900012    2    1    2    0    0  0.13861477073E+02 -0.12590411836E+02 -0.14500577446E+00  0.72461546958E+02  0.69999969601E+02 0.  0.
         12    1    1    2    0    0 -0.13861477073E+02  0.12590411836E+02  0.14500577446E+00  0.18726453042E+02  0.00000000000E+00 0. -1.
         11    1    3    3    0    0 -0.58920295750E+01 -0.44723623036E+01  0.22342586315E+02  0.23535275665E+02  0.51100000000E-03 0. -1.
        -11    1    3    3    0    0 -0.55369304046E+01 -0.15600524409E+02 -0.50434690357E+01  0.17305217141E+02  0.51100000000E-03 0.  1.
        -12    1    3    3    0    0  0.25290437052E+02  0.74824748761E+01 -0.17444123054E+02  0.31621054152E+02  0.00000000000E+00 0.  1.
</event>
<event>
 7    1  0.2972263E-013  0.7246154E+02  0.7816164E-02  0.1226708E+00
        -11   -1    0    0    0    0  0.00000000000E+00  0.00000000000E+00  0.45593999997E+02  0.45594000000E+02  0.51100000000E-03 0.  1.
         11   -1    0    0    0    0 -0.00000000000E+00 -0.00000000000E+00 -0.45593999997E+02  0.45594000000E+02  0.51100000000E-03 0. -1.
    9900012    2    1    2    0    0 -0.66393579145E+01 -0.17352752054E+02  0.23411952342E+01  0.72461540845E+02  0.69999961637E+02 0.  0.
         12    1    1    2    0    0  0.66393579145E+01  0.17352752054E+02 -0.23411952342E+01  0.18726459155E+02  0.00000000000E+00 0. -1.
         11    1    3    3    0    0 -0.16448825705E+02 -0.44150148512E+01 -0.19990671875E+02  0.26261819919E+02  0.51100000000E-03 0.  1.
        -11    1    3    3    0    0 -0.14185391323E+02 -0.46714142452E+01  0.65025129950E+01  0.16288956797E+02  0.51100000000E-03 0. -1.
        -12    1    3    3    0    0  0.23994859113E+02 -0.82663229577E+01  0.15829354114E+02  0.29910764129E+02  0.00000000000E+00 0.  1.
</event>
<event>
 7    1  0.2972263E-013  0.7246150E+02  0.7816164E-02  0.1226708E+00
        -11   -1    0    0    0    0  0.00000000000E+00  0.00000000000E+00  0.45593999997E+02  0.45594000000E+02  0.51100000000E-03 0. -1.
         11   -1    0    0    0    0 -0.00000000000E+00 -0.00000000000E+00 -0.45593999997E+02  0.45594000000E+02  0.51100000000E-03 0.  1.
    9900012    2    1    2    0    0  0.17775389266E+02  0.52637064300E+01 -0.26477441882E+01  0.72461504913E+02  0.69999914829E+02 0.  0.
         12    1    1    2    0    0 -0.17775389266E+02 -0.52637064300E+01  0.26477441882E+01  0.18726495087E+02  0.00000000000E+00 0. -1.
         11    1    3    3    0    0 -0.12354067544E+02  0.19641301807E+00  0.18206498237E+02  0.22003139351E+02  0.51100000000E-03 0. -1.
        -11    1    3    3    0    0  0.25383092636E+02  0.59482399829E+00  0.31493316015E+01  0.25584634005E+02  0.51100000000E-03 0.  1.
        -12    1    3    3    0    0  0.47463641746E+01  0.44724694137E+01 -0.24003574027E+02  0.24873731558E+02  0.00000000000E+00 0.  1.
</event>
<event>
 7    1  0.2972263E-013  0.7246166E+02  0.7816164E-02  0.1226708E+00
        -11   -1    0    0    0    0  0.00000000000E+00  0.00000000000E+00  0.45593999997E+02  0.45594000000E+02  0.51100000000E-03 0.  1.
         11   -1    0    0    0    0 -0.00000000000E+00 -0.00000000000E+00 -0.45593999997E+02  0.45594000000E+02  0.51100000000E-03 0. -1.
    9900012    2    1    2    0    0  0.61702925047E+01 -0.12220664040E+02  0.12777271427E+02  0.72461660147E+02  0.70000117050E+02 0.  0.
         12    1    1    2    0    0 -0.61702925047E+01  0.12220664040E+02 -0.12777271427E+02  0.18726339853E+02  0.00000000000E+00 0. -1.
         11    1    3    3    0    0 -0.95587056660E+01  0.91316768278E+01  0.14109998322E+01  0.13294634124E+02  0.51100000000E-03 0. -1.
        -11    1    3    3    0    0  0.39143816024E+01  0.17617404838E+01  0.28006075663E+02  0.28333132322E+02  0.51100000000E-03 0.  1.
         12    1    3    3    0    0  0.11814616568E+02 -0.23114081352E+02 -0.16639804068E+02  0.30833893702E+02  0.00000000000E+00 0. -1.
</event>
<event>
 7    1  0.2972263E-013  0.7246158E+02  0.7816164E-02  0.1226708E+00
        -11   -1    0    0    0    0  0.00000000000E+00  0.00000000000E+00  0.45593999997E+02  0.45594000000E+02  0.51100000000E-03 0.  1.
         11   -1    0    0    0    0 -0.00000000000E+00 -0.00000000000E+00 -0.45593999997E+02  0.45594000000E+02  0.51100000000E-03 0. -1.
    9900012    2    1    2    0    0  0.51879234140E+01  0.34959869161E+01  0.17650565959E+02  0.72461576088E+02  0.70000007547E+02 0.  0.
         12    1    1    2    0    0 -0.51879234140E+01 -0.34959869161E+01 -0.17650565959E+02  0.18726423912E+02  0.00000000000E+00 0. -1.
         11    1    3    3    0    0  0.10805329560E+02  0.93927939690E+01 -0.12494801448E+02  0.19002625843E+02  0.51100000000E-03 0. -1.
        -11    1    3    3    0    0  0.11432888226E+02  0.13074432244E+02  0.61098585008E+01  0.18411466070E+02  0.51100000000E-03 0.  1.
        -12    1    3    3    0    0 -0.17050294372E+02 -0.18971239297E+02  0.24035508906E+02  0.35047484175E+02  0.00000000000E+00 0.  1.
</event>
<event>
 7    1  0.2972263E-013  0.7246167E+02  0.7816164E-02  0.1226708E+00
        -11   -1    0    0    0    0  0.00000000000E+00  0.00000000000E+00  0.45593999997E+02  0.45594000000E+02  0.51100000000E-03 0. -1.
         11   -1    0    0    0    0 -0.00000000000E+00 -0.00000000000E+00 -0.45593999997E+02  0.45594000000E+02  0.51100000000E-03 0.  1.
    9900012    2    1    2    0    0 -0.58875423518E+01 -0.15588904092E+02 -0.85439010800E+01  0.72461672773E+02  0.70000133497E+02 0.  0.
         12    1    1    2    0    0  0.58875423518E+01  0.15588904092E+02  0.85439010800E+01  0.18726327227E+02  0.00000000000E+00 0. -1.
         11    1    3    3    0    0 -0.87253808518E+01 -0.11385590607E+02 -0.87049443627E+01  0.16779153766E+02  0.51100000000E-03 0.  1.
        -11    1    3    3    0    0  0.11986145403E+02  0.23567908059E+02 -0.17613871099E+00  0.26441350136E+02  0.51100000000E-03 0. -1.
         12    1    3    3    0    0 -0.91483069033E+01 -0.27771221544E+02  0.33718199365E+00  0.29241168871E+02  0.00000000000E+00 0. -1.
</event>
<event>
 7    1  0.2972263E-013  0.7246154E+02  0.7816164E-02  0.1226708E+00
        -11   -1    0    0    0    0  0.00000000000E+00  0.00000000000E+00  0.45593999997E+02  0.45594000000E+02  0.51100000000E-03 0.  1.
         11   -1    0    0    0    0 -0.00000000000E+00 -0.00000000000E+00 -0.45593999997E+02  0.45594000000E+02  0.51100000000E-03 0. -1.
    9900012    2    1    2    0    0  0.10789364872E+02 -0.98570312094E+01  0.11709344369E+02  0.72461542670E+02  0.69999964014E+02 0.  0.
         12    1    1    2    0    0 -0.10789364872E+02  0.98570312094E+01 -0.11709344369E+02  0.18726457330E+02  0.00000000000E+00 0. -1.
         11    1    3    3    0    0  0.35811328970E+02 -0.10587174440E+01  0.13290582045E+02  0.38212716948E+02  0.51100000000E-03 0. -1.
        -11    1    3    3    0    0  0.15935921935E+01 -0.73678706317E+01 -0.83584259061E+00  0.75844371460E+01  0.51100000000E-03 0.  1.
        -12    1    3    3    0    0 -0.26615556292E+02 -0.14304431337E+01 -0.74539508576E+00  0.26664388575E+02  0.00000000000E+00 0.  1.
</event>
<event>
 7    1  0.2972263E-013  0.7246154E+02  0.7816164E-02  0.1226708E+00
        -11   -1    0    0    0    0  0.00000000000E+00  0.00000000000E+00  0.45593999997E+02  0.45594000000E+02  0.51100000000E-03 0. -1.
         11   -1    0    0    0    0 -0.00000000000E+00 -0.00000000000E+00 -0.45593999997E+02  0.45594000000E+02  0.51100000000E-03 0.  1.
    9900012    2    1    2    0    0  0.54315167142E+01 -0.17875455560E+02 -0.12833507541E+01  0.72461540792E+02  0.69999961568E+02 0.  0.
         12    1    1    2    0    0 -0.54315167142E+01  0.17875455560E+02  0.12833507541E+01  0.18726459208E+02  0.00000000000E+00 0. -1.
         11    1    3    3    0    0 -0.15142696788E+02 -0.23278104729E+01  0.10021968472E+02  0.18307370645E+02  0.51100000000E-03 0. -1.
        -11    1    3    3    0    0 -0.94483746115E+01 -0.20396200194E+02 -0.61930605391E+01  0.23315890810E+02  0.51100000000E-03 0.  1.
        -12    1    3    3    0    0  0.30022588113E+02  0.48485551066E+01 -0.51122586869E+01  0.30838279338E+02  0.00000000000E+00 0.  1.
</event>
<event>
 7    1  0.2972263E-013  0.7246158E+02  0.7816164E-02  0.1226708E+00
        -11   -1    0    0    0    0  0.00000000000E+00  0.00000000000E+00  0.45593999997E+02  0.45594000000E+02  0.51100000000E-03 0.  1.
         11   -1    0    0    0    0 -0.00000000000E+00 -0.00000000000E+00 -0.45593999997E+02  0.45594000000E+02  0.51100000000E-03 0. -1.
    9900012    2    1    2    0    0  0.23791408534E+01 -0.82701570916E+01  0.16631982431E+02  0.72461584190E+02  0.70000018101E+02 0.  0.
         12    1    1    2    0    0 -0.23791408534E+01  0.82701570916E+01 -0.16631982431E+02  0.18726415810E+02  0.00000000000E+00 0. -1.
         11    1    3    3    0    0  0.64242404929E+01  0.73703134747E+01 -0.36972491975E+00  0.97841240489E+01  0.51100000000E-03 0. -1.
        -11    1    3    3    0    0 -0.12686806183E+02  0.14468660745E+02 -0.96698659912E+01  0.21536097684E+02  0.51100000000E-03 0.  1.
        -12    1    3    3    0    0  0.86417065437E+01 -0.30109131312E+02  0.26671573342E+02  0.41141362457E+02  0.00000000000E+00 0.  1.
</event>
<event>
 7    1  0.2972263E-013  0.7246159E+02  0.7816164E-02  0.1226708E+00
        -11   -1    0    0    0    0  0.00000000000E+00  0.00000000000E+00  0.45593999997E+02  0.45594000000E+02  0.51100000000E-03 0. -1.
         11   -1    0    0    0    0 -0.00000000000E+00 -0.00000000000E+00 -0.45593999997E+02  0.45594000000E+02  0.51100000000E-03 0.  1.
    9900012    2    1    2    0    0  0.18075218742E+02  0.21118949632E+01 -0.44164252678E+01  0.72461589638E+02  0.70000025198E+02 0.  0.
         12    1    1    2    0    0 -0.18075218742E+02 -0.21118949632E+01  0.44164252678E+01  0.18726410362E+02  0.00000000000E+00 0. -1.
         11    1    3    3    0    0 -0.17913507832E+01  0.25278285067E+01  0.48737186669E+01  0.57751180501E+01  0.51100000000E-03 0. -1.
        -11    1    3    3    0    0 -0.19121339780E+02  0.13552548346E+02 -0.94525264616E+01  0.25271475193E+02  0.51100000000E-03 0.  1.
         12    1    3    3    0    0  0.38987909305E+02 -0.13968481889E+02  0.16238252693E+00  0.41414996395E+02  0.00000000000E+00 0. -1.
</event>
<event>
 7    1  0.2972263E-013  0.7246158E+02  0.7816164E-02  0.1226708E+00
        -11   -1    0    0    0    0  0.00000000000E+00  0.00000000000E+00  0.45593999997E+02  0.45594000000E+02  0.51100000000E-03 0. -1.
         11   -1    0    0    0    0 -0.00000000000E+00 -0.00000000000E+00 -0.45593999997E+02  0.45594000000E+02  0.51100000000E-03 0.  1.
    9900012    2    1    2    0    0 -0.90182757907E+01 -0.14379267938E+02 -0.79111468559E+01  0.72461577778E+02  0.70000009748E+02 0.  0.
         12    1    1    2    0    0  0.90182757907E+01  0.14379267938E+02  0.79111468559E+01  0.18726422222E+02  0.00000000000E+00 0. -1.
         11    1    3    3    0    0 -0.22965856992E+02 -0.23366387856E+01 -0.31092763072E+02  0.38725319675E+02  0.51100000000E-03 0. -1.
        -11    1    3    3    0    0  0.32209647135E+01 -0.35464328983E+01 -0.19087390213E+01  0.51570422628E+01  0.51100000000E-03 0.  1.
        -12    1    3    3    0    0  0.10726616488E+02 -0.84961962543E+01  0.25090355238E+02  0.28579215840E+02  0.00000000000E+00 0.  1.
</event>
<event>
 7    1  0.2972263E-013  0.7246163E+02  0.7816164E-02  0.1226708E+00
        -11   -1    0    0    0    0  0.00000000000E+00  0.00000000000E+00  0.45593999997E+02  0.45594000000E+02  0.51100000000E-03 0. -1.
         11   -1    0    0    0    0 -0.00000000000E+00 -0.00000000000E+00 -0.45593999997E+02  0.45594000000E+02  0.51100000000E-03 0.  1.
    9900012    2    1    2    0    0 -0.62273406244E+01 -0.37193866492E+01 -0.17264507429E+02  0.72461632892E+02  0.70000081546E+02 0.  0.
         12    1    1    2    0    0  0.62273406244E+01  0.37193866492E+01  0.17264507429E+02  0.18726367108E+02  0.00000000000E+00 0. -1.
         11    1    3    3    0    0  0.32882418776E+01 -0.17104461579E+01 -0.15746385557E+02  0.16176736973E+02  0.51100000000E-03 0. -1.
        -11    1    3    3    0    0 -0.21391575472E+02  0.11945563110E+01 -0.23061090471E+02  0.31477616809E+02  0.51100000000E-03 0.  1.
         12    1    3    3    0    0  0.11875992970E+02 -0.32034968023E+01  0.21542968600E+02  0.24807279111E+02  0.00000000000E+00 0. -1.
</event>
<event>
 7    1  0.4291324E-013  0.7246164E+02  0.7816164E-02  0.1226708E+00
        -11   -1    0    0    0    0  0.00000000000E+00  0.00000000000E+00  0.45593999997E+02  0.45594000000E+02  0.51100000000E-03 0. -1.
         11   -1    0    0    0    0 -0.00000000000E+00 -0.00000000000E+00 -0.45593999997E+02  0.45594000000E+02  0.51100000000E-03 0.  1.
    9900012    2    1    2    0    0 -0.65722581571E+01 -0.21600047327E+01 -0.17401619561E+02  0.72461639940E+02  0.70000090727E+02 0.  0.
         12    1    1    2    0    0  0.65722581571E+01  0.21600047327E+01  0.17401619561E+02  0.18726360060E+02  0.00000000000E+00 0. -1.
         11    1    3    3    0    0 -0.42455557256E+01 -0.13268745208E+02  0.14957642698E+02  0.20440533706E+02  0.51100000000E-03 0. -1.
        -11    1    3    3    0    0 -0.11491693196E+02 -0.84590135329E+01 -0.14985530184E+01  0.14347807633E+02  0.51100000000E-03 0.  1.
        -12    1    3    3    0    0  0.91649907645E+01  0.19567754008E+02 -0.30860709241E+02  0.37673298602E+02  0.00000000000E+00 0.  1.
</event>
<event>
 7    1  0.2972263E-013  0.7246158E+02  0.7816164E-02  0.1226708E+00
        -11   -1    0    0    0    0  0.00000000000E+00  0.00000000000E+00  0.45593999997E+02  0.45594000000E+02  0.51100000000E-03 0.  1.
         11   -1    0    0    0    0 -0.00000000000E+00 -0.00000000000E+00 -0.45593999997E+02  0.45594000000E+02  0.51100000000E-03 0. -1.
    9900012    2    1    2    0    0 -0.86240377581E+01  0.24223499081E+01  0.16444967360E+02  0.72461581288E+02  0.70000014321E+02 0.  0.
         12    1    1    2    0    0  0.86240377581E+01 -0.24223499081E+01 -0.16444967360E+02  0.18726418712E+02  0.00000000000E+00 0. -1.
         11    1    3    3    0    0  0.12936593722E+01 -0.13164198127E+01 -0.18236580649E+02  0.18329740579E+02  0.51100000000E-03 0. -1.
        -11    1    3    3    0    0 -0.11899342802E+02  0.18562778828E+02  0.32117552857E+02  0.38957776101E+02  0.51100000000E-03 0.  1.
         12    1    3    3    0    0  0.19816456716E+01 -0.14824009107E+02  0.25639951516E+01  0.15174064608E+02  0.00000000000E+00 0. -1.
</event>
<event>
 7    1  0.4192765E-013  0.7246157E+02  0.7816164E-02  0.1226708E+00
        -11   -1    0    0    0    0  0.00000000000E+00  0.00000000000E+00  0.45593999997E+02  0.45594000000E+02  0.51100000000E-03 0. -1.
         11   -1    0    0    0    0 -0.00000000000E+00 -0.00000000000E+00 -0.45593999997E+02  0.45594000000E+02  0.51100000000E-03 0.  1.
    9900012    2    1    2    0    0  0.11330368677E+02 -0.10716533218E+02 -0.10366180128E+02  0.72461574046E+02  0.70000004887E+02 0.  0.
         12    1    1    2    0    0 -0.11330368677E+02  0.10716533218E+02  0.10366180128E+02  0.18726425954E+02  0.00000000000E+00 0. -1.
         11    1    3    3    0    0 -0.26778319434E+00 -0.12810480678E+02  0.20023600824E+02  0.23772351866E+02  0.51100000000E-03 0. -1.
        -11    1    3    3    0    0 -0.57840113907E+01 -0.10509097840E+02 -0.23075457935E+02  0.26007166019E+02  0.51100000000E-03 0.  1.
        -12    1    3    3    0    0  0.17382163262E+02  0.12603045299E+02 -0.73143230166E+01  0.22682056160E+02  0.00000000000E+00 0.  1.
</event>
<event>
 7    1  0.2972263E-013  0.7246151E+02  0.7816164E-02  0.1226708E+00
        -11   -1    0    0    0    0  0.00000000000E+00  0.00000000000E+00  0.45593999997E+02  0.45594000000E+02  0.51100000000E-03 0.  1.
         11   -1    0    0    0    0 -0.00000000000E+00 -0.00000000000E+00 -0.45593999997E+02  0.45594000000E+02  0.51100000000E-03 0. -1.
    9900012    2    1    2    0    0 -0.11537509077E+02  0.84209256933E+01 -0.12110138754E+02  0.72461506312E+02  0.69999916651E+02 0.  0.
         12    1    1    2    0    0  0.11537509077E+02 -0.84209256933E+01  0.12110138754E+02  0.18726493688E+02  0.00000000000E+00 0. -1.
         11    1    3    3    0    0  0.20268149089E+01  0.29158003529E+01 -0.17601167341E+02  0.17955805813E+02  0.51100000000E-03 0. -1.
        -11    1    3    3    0    0  0.32499441596E+01  0.26544173909E+02 -0.11477874810E+01  0.26767008087E+02  0.51100000000E-03 0.  1.
        -12    1    3    3    0    0 -0.16814268145E+02 -0.21039048569E+02  0.66388160685E+01  0.27738692412E+02  0.00000000000E+00 0.  1.
</event>
<event>
 7    1  0.2972263E-013  0.7246158E+02  0.7816164E-02  0.1226708E+00
        -11   -1    0    0    0    0  0.00000000000E+00  0.00000000000E+00  0.45593999997E+02  0.45594000000E+02  0.51100000000E-03 0.  1.
         11   -1    0    0    0    0 -0.00000000000E+00 -0.00000000000E+00 -0.45593999997E+02  0.45594000000E+02  0.51100000000E-03 0. -1.
    9900012    2    1    2    0    0 -0.61958106259E+01  0.14601035904E+02  0.99549285811E+01  0.72461576907E+02  0.70000008615E+02 0.  0.
         12    1    1    2    0    0  0.61958106259E+01 -0.14601035904E+02 -0.99549285811E+01  0.18726423093E+02  0.00000000000E+00 0. -1.
         11    1    3    3    0    0 -0.20053150743E+02 -0.68411114373E+01  0.17428405062E+02  0.27434995237E+02  0.51100000000E-03 0. -1.
        -11    1    3    3    0    0  0.79500094548E+01 -0.71511018622E+01  0.66507408661E+01  0.12592587602E+02  0.51100000000E-03 0.  1.
         12    1    3    3    0    0  0.59073306620E+01  0.28593249204E+02 -0.14124217347E+02  0.32433994069E+02  0.00000000000E+00 0. -1.
</event>
<event>
 7    1  0.2972263E-013  0.7246164E+02  0.7816164E-02  0.1226708E+00
        -11   -1    0    0    0    0  0.00000000000E+00  0.00000000000E+00  0.45593999997E+02  0.45594000000E+02  0.51100000000E-03 0. -1.
         11   -1    0    0    0    0 -0.00000000000E+00 -0.00000000000E+00 -0.45593999997E+02  0.45594000000E+02  0.51100000000E-03 0.  1.
    9900012    2    1    2    0    0  0.40313688587E+01  0.14727189317E+02 -0.10841331364E+02  0.72461641417E+02  0.70000092650E+02 0.  0.
         12    1    1    2    0    0 -0.40313688587E+01 -0.14727189317E+02  0.10841331364E+02  0.18726358583E+02  0.00000000000E+00 0. -1.
         11    1    3    3    0    0 -0.17862859180E+02  0.10825570394E+01 -0.48526162468E+01  0.18541886434E+02  0.51100000000E-03 0. -1.
        -11    1    3    3    0    0  0.32376678868E+01 -0.17173053074E+02 -0.33886341953E+01  0.17801097921E+02  0.51100000000E-03 0.  1.
         12    1    3    3    0    0  0.18656560152E+02  0.30817685351E+02 -0.26000809223E+01  0.36118657061E+02  0.00000000000E+00 0. -1.
</event>
<event>
 7    1  0.2972263E-013  0.7246154E+02  0.7816164E-02  0.1226708E+00
        -11   -1    0    0    0    0  0.00000000000E+00  0.00000000000E+00  0.45593999997E+02  0.45594000000E+02  0.51100000000E-03 0. -1.
         11   -1    0    0    0    0 -0.00000000000E+00 -0.00000000000E+00 -0.45593999997E+02  0.45594000000E+02  0.51100000000E-03 0.  1.
    9900012    2    1    2    0    0 -0.45170689787E+01 -0.17583616403E+02 -0.45927083355E+01  0.72461536164E+02  0.69999955538E+02 0.  0.
         12    1    1    2    0    0  0.45170689787E+01  0.17583616403E+02  0.45927083355E+01  0.18726463836E+02  0.00000000000E+00 0. -1.
         11    1    3    3    0    0 -0.23139284142E+02 -0.49053232933E+01  0.13345274476E+00  0.23653889260E+02  0.51100000000E-03 0. -1.
        -11    1    3    3    0    0 -0.38512522289E+01  0.13402111364E+02 -0.34087200984E+01  0.14355072473E+02  0.51100000000E-03 0.  1.
        -12    1    3    3    0    0  0.22473467392E+02 -0.26080404473E+02 -0.13174409819E+01  0.34452574430E+02  0.00000000000E+00 0.  1.
</event>
<event>
 7    1  0.2972263E-013  0.7246136E+02  0.7816164E-02  0.1226709E+00
        -11   -1    0    0    0    0  0.00000000000E+00  0.00000000000E+00  0.45593999997E+02  0.45594000000E+02  0.51100000000E-03 0.  1.
         11   -1    0    0    0    0 -0.00000000000E+00 -0.00000000000E+00 -0.45593999997E+02  0.45594000000E+02  0.51100000000E-03 0. -1.
    9900012    2    1    2    0    0 -0.97262081055E+01  0.76334383296E+01  0.14064797680E+02  0.72461360189E+02  0.69999726298E+02 0.  0.
         12    1    1    2    0    0  0.97262081055E+01 -0.76334383296E+01 -0.14064797680E+02  0.18726639811E+02  0.00000000000E+00 0. -1.
         11    1    3    3    0    0  0.14817994610E+02 -0.23611851866E+01 -0.63714049466E+01  0.16301624490E+02  0.51100000000E-03 0. -1.
        -11    1    3    3    0    0  0.10521966069E+02 -0.74372794736E+01  0.26735531561E+01  0.13159513010E+02  0.51100000000E-03 0.  1.
        -12    1    3    3    0    0 -0.35066168785E+02  0.17431902990E+02  0.17762649470E+02  0.43000222689E+02  0.00000000000E+00 0.  1.
</event>
<event>
 7    1  0.2972263E-013  0.7246159E+02  0.7816164E-02  0.1226708E+00
        -11   -1    0    0    0    0  0.00000000000E+00  0.00000000000E+00  0.45593999997E+02  0.45594000000E+02  0.51100000000E-03 0. -1.
         11   -1    0    0    0    0 -0.00000000000E+00 -0.00000000000E+00 -0.45593999997E+02  0.45594000000E+02  0.51100000000E-03 0.  1.
    9900012    2    1    2    0    0 -0.94113485082E+00 -0.16515621616E+02  0.87764974781E+01  0.72461590836E+02  0.70000026760E+02 0.  0.
         12    1    1    2    0    0  0.94113485082E+00  0.16515621616E+02 -0.87764974781E+01  0.18726409164E+02  0.00000000000E+00 0. -1.
         11    1    3    3    0    0  0.21489668657E+02 -0.22940293744E+02 -0.26126217013E+01  0.31541856769E+02  0.51100000000E-03 0. -1.
        -11    1    3    3    0    0  0.36381420736E+01  0.15873684395E+01 -0.74177393181E+01  0.84130061906E+01  0.51100000000E-03 0.  1.
        -12    1    3    3    0    0 -0.26068945581E+02  0.48373036882E+01  0.18806858498E+02  0.32506727877E+02  0.00000000000E+00 0.  1.
</event>
<event>
 7    1  0.2972263E-013  0.7246156E+02  0.7816164E-02  0.1226708E+00
        -11   -1    0    0    0    0  0.00000000000E+00  0.00000000000E+00  0.45593999997E+02  0.45594000000E+02  0.51100000000E-03 0.  1.
         11   -1    0    0    0    0 -0.00000000000E+00 -0.00000000000E+00 -0.45593999997E+02  0.45594000000E+02  0.51100000000E-03 0. -1.
    9900012    2    1    2    0    0  0.43185972182E+01 -0.81446388197E+01  0.16300131084E+02  0.72461556216E+02  0.69999981661E+02 0.  0.
         12    1    1    2    0    0 -0.43185972182E+01  0.81446388197E+01 -0.16300131084E+02  0.18726443784E+02  0.00000000000E+00 0. -1.
         11    1    3    3    0    0  0.77548497132E+01 -0.15567619812E+02  0.27547898673E-01  0.17392217795E+02  0.51100000000E-03 0. -1.
        -11    1    3    3    0    0 -0.20347756082E+02 -0.29835557974E+01  0.25842435081E+02  0.33026720000E+02  0.51100000000E-03 0.  1.
        -12    1    3    3    0    0  0.16911503587E+02  0.10406536790E+02 -0.95698518960E+01  0.22042618421E+02  0.00000000000E+00 0.  1.
</event>
<event>
 7    1  0.2972263E-013  0.7246157E+02  0.7816164E-02  0.1226708E+00
        -11   -1    0    0    0    0  0.00000000000E+00  0.00000000000E+00  0.45593999997E+02  0.45594000000E+02  0.51100000000E-03 0. -1.
         11   -1    0    0    0    0 -0.00000000000E+00 -0.00000000000E+00 -0.45593999997E+02  0.45594000000E+02  0.51100000000E-03 0.  1.
    9900012    2    1    2    0    0  0.18069033413E+02 -0.25667673121E+01 -0.41953307392E+01  0.72461573140E+02  0.70000003707E+02 0.  0.
         12    1    1    2    0    0 -0.18069033413E+02  0.25667673121E+01  0.41953307392E+01  0.18726426860E+02  0.00000000000E+00 0. -1.
         11    1    3    3    0    0  0.66278939275E+01 -0.68504224612E+00 -0.16691294029E+02  0.17972132801E+02  0.51100000000E-03 0. -1.
        -11    1    3    3    0    0  0.22251144977E+02  0.64639307940E+01 -0.12261377380E+02  0.26215209891E+02  0.51100000000E-03 0.  1.
         12    1    3    3    0    0 -0.10810005491E+02 -0.83456558599E+01  0.24757340670E+02  0.28274230449E+02  0.00000000000E+00 0. -1.
</event>
<event>
 7    1  0.2972263E-013  0.7246153E+02  0.7816164E-02  0.1226708E+00
        -11   -1    0    0    0    0  0.00000000000E+00  0.00000000000E+00  0.45593999997E+02  0.45594000000E+02  0.51100000000E-03 0. -1.
         11   -1    0    0    0    0 -0.00000000000E+00 -0.00000000000E+00 -0.45593999997E+02  0.45594000000E+02  0.51100000000E-03 0.  1.
    9900012    2    1    2    0    0  0.15345959673E+02 -0.10589979213E+02  0.17420331285E+01  0.72461526295E+02  0.69999942682E+02 0.  0.
         12    1    1    2    0    0 -0.15345959673E+02  0.10589979213E+02 -0.17420331285E+01  0.18726473705E+02  0.00000000000E+00 0. -1.
         11    1    3    3    0    0  0.21927188103E+02  0.38163018608E+01  0.24026617014E+02  0.32751245219E+02  0.51100000000E-03 0. -1.
        -11    1    3    3    0    0  0.59221366466E+01 -0.55663700783E+01  0.41766195534E+01  0.91378514687E+01  0.51100000000E-03 0.  1.
         12    1    3    3    0    0 -0.12503365076E+02 -0.88399109955E+01 -0.26461203439E+02  0.30572429607E+02  0.00000000000E+00 0. -1.
</event>
<event>
 7    1  0.2972263E-013  0.7246159E+02  0.7816164E-02  0.1226708E+00
        -11   -1    0    0    0    0  0.00000000000E+00  0.00000000000E+00  0.45593999997E+02  0.45594000000E+02  0.51100000000E-03 0. -1.
         11   -1    0    0    0    0 -0.00000000000E+00 -0.00000000000E+00 -0.45593999997E+02  0.45594000000E+02  0.51100000000E-03 0.  1.
    9900012    2    1    2    0    0  0.11762981965E+01 -0.29304270014E+01 -0.18458261257E+02  0.72461588478E+02  0.70000023688E+02 0.  0.
         12    1    1    2    0    0 -0.11762981965E+01  0.29304270014E+01  0.18458261257E+02  0.18726411522E+02  0.00000000000E+00 0. -1.
         11    1    3    3    0    0 -0.17273579749E+02  0.30026976817E+01  0.19126387754E+02  0.25946318804E+02  0.51100000000E-03 0. -1.
        -11    1    3    3    0    0  0.15591983457E+02  0.36180372007E+01 -0.15483949437E+02  0.22269998468E+02  0.51100000000E-03 0.  1.
        -12    1    3    3    0    0  0.28578944881E+01 -0.95511618838E+01 -0.22100699574E+02  0.24245271207E+02  0.00000000000E+00 0.  1.
</event>
<event>
 7    1  0.2972263E-013  0.7246157E+02  0.7816164E-02  0.1226708E+00
        -11   -1    0    0    0    0  0.00000000000E+00  0.00000000000E+00  0.45593999997E+02  0.45594000000E+02  0.51100000000E-03 0.  1.
         11   -1    0    0    0    0 -0.00000000000E+00 -0.00000000000E+00 -0.45593999997E+02  0.45594000000E+02  0.51100000000E-03 0. -1.
    9900012    2    1    2    0    0  0.12818881558E+02 -0.64310415295E+01  0.12041478662E+02  0.72461568735E+02  0.69999997969E+02 0.  0.
         12    1    1    2    0    0 -0.12818881558E+02  0.64310415295E+01 -0.12041478662E+02  0.18726431265E+02  0.00000000000E+00 0. -1.
         11    1    3    3    0    0 -0.11873296085E+02 -0.12684715668E+02 -0.16799599587E+02  0.24168237794E+02  0.51100000000E-03 0. -1.
        -11    1    3    3    0    0  0.12786980030E+02  0.13285482216E+02  0.25858393010E+01  0.18619813671E+02  0.51100000000E-03 0.  1.
        -12    1    3    3    0    0  0.11905197613E+02 -0.70318080771E+01  0.26255238948E+02  0.29673517271E+02  0.00000000000E+00 0.  1.
</event>
<event>
 7    1  0.2972263E-013  0.7246145E+02  0.7816164E-02  0.1226708E+00
        -11   -1    0    0    0    0  0.00000000000E+00  0.00000000000E+00  0.45593999997E+02  0.45594000000E+02  0.51100000000E-03 0. -1.
         11   -1    0    0    0    0 -0.00000000000E+00 -0.00000000000E+00 -0.45593999997E+02  0.45594000000E+02  0.51100000000E-03 0.  1.
    9900012    2    1    2    0    0 -0.12877602631E+02 -0.14624694760E+01 -0.13517106609E+02  0.72461450997E+02  0.69999844593E+02 0.  0.
         12    1    1    2    0    0  0.12877602631E+02  0.14624694760E+01  0.13517106609E+02  0.18726549003E+02  0.00000000000E+00 0. -1.
         11    1    3    3    0    0  0.39239078063E+01  0.72480651242E+01 -0.15928671535E+02  0.17934717105E+02  0.51100000000E-03 0. -1.
        -11    1    3    3    0    0 -0.33330219167E+02  0.31099022289E+01 -0.26676159954E+01  0.33581113397E+02  0.51100000000E-03 0.  1.
         12    1    3    3    0    0  0.16528708729E+02 -0.11820436829E+02  0.50791809217E+01  0.20945620495E+02  0.00000000000E+00 0. -1.
</event>
<event>
 7    1  0.2972263E-013  0.7246131E+02  0.7816164E-02  0.1226709E+00
        -11   -1    0    0    0    0  0.00000000000E+00  0.00000000000E+00  0.45593999997E+02  0.45594000000E+02  0.51100000000E-03 0.  1.
         11   -1    0    0    0    0 -0.00000000000E+00 -0.00000000000E+00 -0.45593999997E+02  0.45594000000E+02  0.51100000000E-03 0. -1.
    9900012    2    1    2    0    0 -0.18115213334E+02 -0.11089758750E+01  0.46150098817E+01  0.72461305208E+02  0.69999654675E+02 0.  0.
         12    1    1    2    0    0  0.18115213334E+02  0.11089758750E+01 -0.46150098817E+01  0.18726694792E+02  0.00000000000E+00 0. -1.
         11    1    3    3    0    0  0.11741264234E+02 -0.49645972680E+01 -0.13105015914E+01  0.12814910320E+02  0.51100000000E-03 0. -1.
        -11    1    3    3    0    0  0.68808259543E+01 -0.79642685593E+01  0.16554922686E+02  0.19617359784E+02  0.51100000000E-03 0.  1.
        -12    1    3    3    0    0 -0.36737303522E+02  0.11819889952E+02 -0.10629411213E+02  0.40029035103E+02  0.00000000000E+00 0.  1.
</event>
<event>
 7    1  0.4505587E-013  0.7246156E+02  0.7816164E-02  0.1226708E+00
        -11   -1    0    0    0    0  0.00000000000E+00  0.00000000000E+00  0.45593999997E+02  0.45594000000E+02  0.51100000000E-03 0. -1.
         11   -1    0    0    0    0 -0.00000000000E+00 -0.00000000000E+00 -0.45593999997E+02  0.45594000000E+02  0.51100000000E-03 0.  1.
    9900012    2    1    2    0    0  0.12846777953E+02  0.66232495529E+01 -0.11906815464E+02  0.72461564330E+02  0.69999992230E+02 0.  0.
         12    1    1    2    0    0 -0.12846777953E+02 -0.66232495529E+01  0.11906815464E+02  0.18726435670E+02  0.00000000000E+00 0. -1.
         11    1    3    3    0    0 -0.32588542849E+01  0.75465295174E+01  0.18875231036E+02  0.20587486149E+02  0.51100000000E-03 0. -1.
        -11    1    3    3    0    0 -0.17564088624E+01  0.13404731452E+02 -0.12854201817E-01  0.13519318137E+02  0.51100000000E-03 0.  1.
        -12    1    3    3    0    0  0.17862041100E+02 -0.14328011416E+02 -0.30769192298E+02  0.38354760045E+02  0.00000000000E+00 0.  1.
</event>
<event>
 7    1  0.2972263E-013  0.7246153E+02  0.7816164E-02  0.1226708E+00
        -11   -1    0    0    0    0  0.00000000000E+00  0.00000000000E+00  0.45593999997E+02  0.45594000000E+02  0.51100000000E-03 0.  1.
         11   -1    0    0    0    0 -0.00000000000E+00 -0.00000000000E+00 -0.45593999997E+02  0.45594000000E+02  0.51100000000E-03 0. -1.
    9900012    2    1    2    0    0 -0.12002916857E+01  0.46407413114E+01  0.18102580262E+02  0.72461532309E+02  0.69999950516E+02 0.  0.
         12    1    1    2    0    0  0.12002916857E+01 -0.46407413114E+01 -0.18102580262E+02  0.18726467691E+02  0.00000000000E+00 0. -1.
         11    1    3    3    0    0  0.11427924142E+02 -0.18359342264E+02  0.39090389368E+01  0.21975975159E+02  0.51100000000E-03 0. -1.
        -11    1    3    3    0    0  0.11661760048E+02  0.43344813343E+01  0.15437623466E+02  0.19826865471E+02  0.51100000000E-03 0.  1.
        -12    1    3    3    0    0 -0.24289975876E+02  0.18665602241E+02 -0.12440821404E+01  0.30658691678E+02  0.00000000000E+00 0.  1.
</event>
<event>
 7    1  0.2972263E-013  0.7246152E+02  0.7816164E-02  0.1226708E+00
        -11   -1    0    0    0    0  0.00000000000E+00  0.00000000000E+00  0.45593999997E+02  0.45594000000E+02  0.51100000000E-03 0. -1.
         11   -1    0    0    0    0 -0.00000000000E+00 -0.00000000000E+00 -0.45593999997E+02  0.45594000000E+02  0.51100000000E-03 0.  1.
    9900012    2    1    2    0    0  0.14283699789E+02 -0.59860071244E+00 -0.12095394658E+02  0.72461522104E+02  0.69999937223E+02 0.  0.
         12    1    1    2    0    0 -0.14283699789E+02  0.59860071244E+00  0.12095394658E+02  0.18726477896E+02  0.00000000000E+00 0. -1.
         11    1    3    3    0    0  0.23608332799E+02 -0.20857345996E+02 -0.15116469766E+02  0.34941235210E+02  0.51100000000E-03 0.  1.
        -11    1    3    3    0    0  0.50907914194E+01  0.16569302972E+00  0.10512318640E+02  0.11681286526E+02  0.51100000000E-03 0. -1.
         12    1    3    3    0    0 -0.14415424430E+02  0.20093052253E+02 -0.74912435317E+01  0.25839000368E+02  0.00000000000E+00 0. -1.
</event>
<event>
 7    1  0.2972263E-013  0.7246156E+02  0.7816164E-02  0.1226708E+00
        -11   -1    0    0    0    0  0.00000000000E+00  0.00000000000E+00  0.45593999997E+02  0.45594000000E+02  0.51100000000E-03 0.  1.
         11   -1    0    0    0    0 -0.00000000000E+00 -0.00000000000E+00 -0.45593999997E+02  0.45594000000E+02  0.51100000000E-03 0. -1.
    9900012    2    1    2    0    0  0.10012379040E+02 -0.80716695431E+01  0.13611753495E+02  0.72461563701E+02  0.69999991411E+02 0.  0.
         12    1    1    2    0    0 -0.10012379040E+02  0.80716695431E+01 -0.13611753495E+02  0.18726436299E+02  0.00000000000E+00 0. -1.
         11    1    3    3    0    0  0.12474568957E+02  0.93050165496E+01  0.13011366348E+02  0.20285311389E+02  0.51100000000E-03 0. -1.
        -11    1    3    3    0    0  0.84841337641E+01 -0.33159923694E+01  0.22305359065E+02  0.24093679138E+02  0.51100000000E-03 0.  1.
         12    1    3    3    0    0 -0.10946323681E+02 -0.14060693723E+02 -0.21704971918E+02  0.28082573174E+02  0.00000000000E+00 0. -1.
</event>
<event>
 7    1  0.2972263E-013  0.7246155E+02  0.7816164E-02  0.1226708E+00
        -11   -1    0    0    0    0  0.00000000000E+00  0.00000000000E+00  0.45593999997E+02  0.45594000000E+02  0.51100000000E-03 0.  1.
         11   -1    0    0    0    0 -0.00000000000E+00 -0.00000000000E+00 -0.45593999997E+02  0.45594000000E+02  0.51100000000E-03 0. -1.
    9900012    2    1    2    0    0 -0.13700953218E+02  0.10249115062E+02  0.76104888348E+01  0.72461547614E+02  0.69999970455E+02 0.  0.
         12    1    1    2    0    0  0.13700953218E+02 -0.10249115062E+02 -0.76104888348E+01  0.18726452386E+02  0.00000000000E+00 0. -1.
         11    1    3    3    0    0 -0.10769697064E+02  0.16347575313E+02 -0.11554151133E+02  0.22731651989E+02  0.51100000000E-03 0. -1.
        -11    1    3    3    0    0  0.64002569449E+01  0.18237123357E+02  0.11804144077E+02  0.22647158209E+02  0.51100000000E-03 0.  1.
         12    1    3    3    0    0 -0.93315130986E+01 -0.24335583608E+02  0.73604958904E+01  0.27082737417E+02  0.00000000000E+00 0. -1.
</event>
<event>
 7    1  0.2972263E-013  0.7246162E+02  0.7816164E-02  0.1226708E+00
        -11   -1    0    0    0    0  0.00000000000E+00  0.00000000000E+00  0.45593999997E+02  0.45594000000E+02  0.51100000000E-03 0.  1.
         11   -1    0    0    0    0 -0.00000000000E+00 -0.00000000000E+00 -0.45593999997E+02  0.45594000000E+02  0.51100000000E-03 0. -1.
    9900012    2    1    2    0    0 -0.33116181808E+01  0.69191760008E+01  0.17083197572E+02  0.72461616185E+02  0.70000059781E+02 0.  0.
         12    1    1    2    0    0  0.33116181808E+01 -0.69191760008E+01 -0.17083197572E+02  0.18726383815E+02  0.00000000000E+00 0. -1.
         11    1    3    3    0    0  0.23900374930E+02  0.46058745217E+01  0.18442271906E+02  0.30537835470E+02  0.51100000000E-03 0. -1.
        -11    1    3    3    0    0  0.28295679157E+00  0.12476700816E+02  0.97378532815E+00  0.12517842702E+02  0.51100000000E-03 0.  1.
         12    1    3    3    0    0 -0.27494949902E+02 -0.10163399337E+02 -0.23328596624E+01  0.29405938012E+02  0.00000000000E+00 0. -1.
</event>
<event>
 7    1  0.2972263E-013  0.7246158E+02  0.7816164E-02  0.1226708E+00
        -11   -1    0    0    0    0  0.00000000000E+00  0.00000000000E+00  0.45593999997E+02  0.45594000000E+02  0.51100000000E-03 0.  1.
         11   -1    0    0    0    0 -0.00000000000E+00 -0.00000000000E+00 -0.45593999997E+02  0.45594000000E+02  0.51100000000E-03 0. -1.
    9900012    2    1    2    0    0  0.11791373781E+02  0.13237609602E+02 -0.60338893288E+01  0.72461584858E+02  0.70000018972E+02 0.  0.
         12    1    1    2    0    0 -0.11791373781E+02 -0.13237609602E+02  0.60338893288E+01  0.18726415142E+02  0.00000000000E+00 0. -1.
         11    1    3    3    0    0  0.87308327213E+01  0.65437290477E+01 -0.32814043199E+02  0.34580475144E+02  0.51100000000E-03 0. -1.
        -11    1    3    3    0    0  0.48612202187E+01 -0.16918064827E+01 -0.36209891061E+01  0.62932689087E+01  0.51100000000E-03 0.  1.
        -12    1    3    3    0    0 -0.18006791586E+01  0.83856870373E+01  0.30401142976E+02  0.31587840806E+02  0.00000000000E+00 0.  1.
</event>
<event>
 7    1  0.2972263E-013  0.7246130E+02  0.7816164E-02  0.1226709E+00
        -11   -1    0    0    0    0  0.00000000000E+00  0.00000000000E+00  0.45593999997E+02  0.45594000000E+02  0.51100000000E-03 0.  1.
         11   -1    0    0    0    0 -0.00000000000E+00 -0.00000000000E+00 -0.45593999997E+02  0.45594000000E+02  0.51100000000E-03 0. -1.
    9900012    2    1    2    0    0 -0.10958969017E+01 -0.13152006675E+02 -0.13285819139E+02  0.72461300884E+02  0.69999649042E+02 0.  0.
         12    1    1    2    0    0  0.10958969017E+01  0.13152006675E+02  0.13285819139E+02  0.18726699116E+02  0.00000000000E+00 0. -1.
         11    1    3    3    0    0  0.24939040374E+02  0.78119721198E+01 -0.16517063769E+02  0.30915951206E+02  0.51100000000E-03 0. -1.
        -11    1    3    3    0    0 -0.37246697256E+01 -0.59776306552E+01 -0.94837967219E+01  0.11813028119E+02  0.51100000000E-03 0.  1.
        -12    1    3    3    0    0 -0.22310267550E+02 -0.14986348140E+02  0.12715041352E+02  0.29732321559E+02  0.00000000000E+00 0.  1.
</event>
<event>
 7    1  0.2972263E-013  0.7246158E+02  0.7816164E-02  0.1226708E+00
        -11   -1    0    0    0    0  0.00000000000E+00  0.00000000000E+00  0.45593999997E+02  0.45594000000E+02  0.51100000000E-03 0.  1.
         11   -1    0    0    0    0 -0.00000000000E+00 -0.00000000000E+00 -0.45593999997E+02  0.45594000000E+02  0.51100000000E-03 0. -1.
    9900012    2    1    2    0    0 -0.30861454177E+01  0.56563811378E+01  0.17582938449E+02  0.72461583749E+02  0.70000017527E+02 0.  0.
         12    1    1    2    0    0  0.30861454177E+01 -0.56563811378E+01 -0.17582938449E+02  0.18726416251E+02  0.00000000000E+00 0. -1.
         11    1    3    3    0    0  0.10296417919E+02  0.14936312924E+02 -0.18899295835E+01  0.18239558652E+02  0.51100000000E-03 0. -1.
        -11    1    3    3    0    0  0.10937328011E+02  0.58240510793E+01 -0.78329634256E+01  0.14659468997E+02  0.51100000000E-03 0.  1.
        -12    1    3    3    0    0 -0.24319891348E+02 -0.15103982866E+02  0.27305831458E+02  0.39562556100E+02  0.00000000000E+00 0.  1.
</event>
<event>
 7    1  0.2972263E-013  0.7246159E+02  0.7816164E-02  0.1226708E+00
        -11   -1    0    0    0    0  0.00000000000E+00  0.00000000000E+00  0.45593999997E+02  0.45594000000E+02  0.51100000000E-03 0. -1.
         11   -1    0    0    0    0 -0.00000000000E+00 -0.00000000000E+00 -0.45593999997E+02  0.45594000000E+02  0.51100000000E-03 0.  1.
    9900012    2    1    2    0    0  0.14761333731E+02  0.16892424573E+01 -0.11398600626E+02  0.72461585238E+02  0.70000019467E+02 0.  0.
         12    1    1    2    0    0 -0.14761333731E+02 -0.16892424573E+01  0.11398600626E+02  0.18726414762E+02  0.00000000000E+00 0. -1.
         11    1    3    3    0    0  0.39274353517E+02 -0.55833496697E+00 -0.43776134188E+01  0.39521514162E+02  0.51100000000E-03 0. -1.
        -11    1    3    3    0    0 -0.77588194483E+01 -0.90506942260E+01 -0.16850043669E+01  0.12039667154E+02  0.51100000000E-03 0.  1.
        -12    1    3    3    0    0 -0.16754200338E+02  0.11298271650E+02 -0.53359828407E+01  0.20900403922E+02  0.00000000000E+00 0.  1.
</event>
<event>
 7    1  0.2972263E-013  0.7246152E+02  0.7816164E-02  0.1226708E+00
        -11   -1    0    0    0    0  0.00000000000E+00  0.00000000000E+00  0.45593999997E+02  0.45594000000E+02  0.51100000000E-03 0.  1.
         11   -1    0    0    0    0 -0.00000000000E+00 -0.00000000000E+00 -0.45593999997E+02  0.45594000000E+02  0.51100000000E-03 0. -1.
    9900012    2    1    2    0    0  0.70397053830E+01  0.90811079331E+01  0.14787057475E+02  0.72461520300E+02  0.69999934874E+02 0.  0.
         12    1    1    2    0    0 -0.70397053830E+01 -0.90811079331E+01 -0.14787057475E+02  0.18726479700E+02  0.00000000000E+00 0. -1.
         11    1    3    3    0    0  0.12659203099E+02 -0.27353673016E+01  0.11043191568E+01  0.12998352913E+02  0.51100000000E-03 0. -1.
        -11    1    3    3    0    0  0.22157044719E+02  0.62894636442E+01 -0.73605770521E+01  0.24179951994E+02  0.51100000000E-03 0.  1.
        -12    1    3    3    0    0 -0.27776542435E+02  0.55270115905E+01  0.21043315370E+02  0.35283215394E+02  0.00000000000E+00 0.  1.
</event>
<event>
 7    1  0.5415703E-013  0.7246157E+02  0.7816164E-02  0.1226708E+00
        -11   -1    0    0    0    0  0.00000000000E+00  0.00000000000E+00  0.45593999997E+02  0.45594000000E+02  0.51100000000E-03 0. -1.
         11   -1    0    0    0    0 -0.00000000000E+00 -0.00000000000E+00 -0.45593999997E+02  0.45594000000E+02  0.51100000000E-03 0.  1.
    9900012    2    1    2    0    0 -0.10888341880E+02 -0.50590058099E+01 -0.14371137730E+02  0.72461571394E+02  0.70000001432E+02 0.  0.
         12    1    1    2    0    0  0.10888341880E+02  0.50590058099E+01  0.14371137730E+02  0.18726428606E+02  0.00000000000E+00 0. -1.
         11    1    3    3    0    0 -0.35017067276E+01  0.21139646047E+01  0.17774000275E+02  0.18238582247E+02  0.51100000000E-03 0. -1.
        -11    1    3    3    0    0 -0.10570278345E+02  0.12392422016E+02  0.19714836031E+00  0.16289314763E+02  0.51100000000E-03 0.  1.
        -12    1    3    3    0    0  0.31836431925E+01 -0.19565392431E+02 -0.32342286365E+02  0.37933674384E+02  0.00000000000E+00 0.  1.
</event>
<event>
 7    1  0.2972263E-013  0.7246153E+02  0.7816164E-02  0.1226708E+00
        -11   -1    0    0    0    0  0.00000000000E+00  0.00000000000E+00  0.45593999997E+02  0.45594000000E+02  0.51100000000E-03 0.  1.
         11   -1    0    0    0    0 -0.00000000000E+00 -0.00000000000E+00 -0.45593999997E+02  0.45594000000E+02  0.51100000000E-03 0. -1.
    9900012    2    1    2    0    0 -0.43275222269E+01 -0.10259594913E+02  0.15056354183E+02  0.72461533764E+02  0.69999952413E+02 0.  0.
         12    1    1    2    0    0  0.43275222269E+01  0.10259594913E+02 -0.15056354183E+02  0.18726466236E+02  0.00000000000E+00 0. -1.
         11    1    3    3    0    0  0.11319334003E+02 -0.22794492333E+02  0.13221028260E+02  0.28679466374E+02  0.51100000000E-03 0.  1.
        -11    1    3    3    0    0  0.73020396980E+01  0.53961905890E+01 -0.12762360511E+02  0.15662582887E+02  0.51100000000E-03 0. -1.
        -12    1    3    3    0    0 -0.22948895928E+02  0.71387068308E+01  0.14597686434E+02  0.28119484503E+02  0.00000000000E+00 0.  1.
</event>
<event>
 7    1  0.3841610E-013  0.7246156E+02  0.7816164E-02  0.1226708E+00
        -11   -1    0    0    0    0  0.00000000000E+00  0.00000000000E+00  0.45593999997E+02  0.45594000000E+02  0.51100000000E-03 0. -1.
         11   -1    0    0    0    0 -0.00000000000E+00 -0.00000000000E+00 -0.45593999997E+02  0.45594000000E+02  0.51100000000E-03 0.  1.
    9900012    2    1    2    0    0 -0.12716419025E+02 -0.46134900838E+00 -0.13738972543E+02  0.72461560876E+02  0.69999987731E+02 0.  0.
         12    1    1    2    0    0  0.12716419025E+02  0.46134900838E+00  0.13738972543E+02  0.18726439124E+02  0.00000000000E+00 0. -1.
         11    1    3    3    0    0  0.73481947778E+01 -0.37898393588E+01  0.18901386268E+02  0.20630590199E+02  0.51100000000E-03 0. -1.
        -11    1    3    3    0    0 -0.26525645554E+01 -0.14355038829E+02 -0.71498439378E+01  0.16254953310E+02  0.51100000000E-03 0.  1.
        -12    1    3    3    0    0 -0.17412049247E+02  0.17683529180E+02 -0.25490514873E+02  0.35576017367E+02  0.00000000000E+00 0.  1.
</event>
<event>
 7    1  0.2972263E-013  0.7246146E+02  0.7816164E-02  0.1226708E+00
        -11   -1    0    0    0    0  0.00000000000E+00  0.00000000000E+00  0.45593999997E+02  0.45594000000E+02  0.51100000000E-03 0.  1.
         11   -1    0    0    0    0 -0.00000000000E+00 -0.00000000000E+00 -0.45593999997E+02  0.45594000000E+02  0.51100000000E-03 0. -1.
    9900012    2    1    2    0    0  0.95892537963E+01  0.84611797854E+01  0.13679832138E+02  0.72461463773E+02  0.69999861236E+02 0.  0.
         12    1    1    2    0    0 -0.95892537963E+01 -0.84611797854E+01 -0.13679832138E+02  0.18726536227E+02  0.00000000000E+00 0. -1.
         11    1    3    3    0    0 -0.90298035231E+01  0.23257386966E+02  0.10939229084E+02  0.27241698430E+02  0.51100000000E-03 0. -1.
        -11    1    3    3    0    0  0.16005026318E+02  0.84631042650E+01 -0.75952584344E+01  0.19633465109E+02  0.51100000000E-03 0.  1.
        -12    1    3    3    0    0  0.26140310017E+01 -0.23259311445E+02  0.10335861488E+02  0.25586300235E+02  0.00000000000E+00 0.  1.
</event>
<event>
 7    1  0.2972263E-013  0.7246139E+02  0.7816164E-02  0.1226709E+00
        -11   -1    0    0    0    0  0.00000000000E+00  0.00000000000E+00  0.45593999997E+02  0.45594000000E+02  0.51100000000E-03 0.  1.
         11   -1    0    0    0    0 -0.00000000000E+00 -0.00000000000E+00 -0.45593999997E+02  0.45594000000E+02  0.51100000000E-03 0. -1.
    9900012    2    1    2    0    0  0.97405610106E+00  0.15862897847E+01  0.18633867034E+02  0.72461385218E+02  0.69999758903E+02 0.  0.
         12    1    1    2    0    0 -0.97405610106E+00 -0.15862897847E+01 -0.18633867034E+02  0.18726614782E+02  0.00000000000E+00 0. -1.
         11    1    3    3    0    0 -0.34828920522E+01 -0.54404108531E+00  0.20463729374E+02  0.20765132745E+02  0.51100000000E-03 0. -1.
        -11    1    3    3    0    0  0.35860327237E+01  0.26690046392E+02  0.10666539268E+01  0.26950991781E+02  0.51100000000E-03 0.  1.
         12    1    3    3    0    0  0.87091542959E+00 -0.24559715522E+02 -0.28965162668E+01  0.24745260692E+02  0.00000000000E+00 0. -1.
</event>
<event>
 7    1  0.2972263E-013  0.7246162E+02  0.7816164E-02  0.1226708E+00
        -11   -1    0    0    0    0  0.00000000000E+00  0.00000000000E+00  0.45593999997E+02  0.45594000000E+02  0.51100000000E-03 0.  1.
         11   -1    0    0    0    0 -0.00000000000E+00 -0.00000000000E+00 -0.45593999997E+02  0.45594000000E+02  0.51100000000E-03 0. -1.
    9900012    2    1    2    0    0 -0.36018439123E+01 -0.62004605815E+01  0.17299082021E+02  0.72461622086E+02  0.70000067468E+02 0.  0.
         12    1    1    2    0    0  0.36018439123E+01  0.62004605815E+01 -0.17299082021E+02  0.18726377914E+02  0.00000000000E+00 0. -1.
         11    1    3    3    0    0  0.11824063416E+02  0.20382381808E+02  0.52879361116E+01  0.24149787420E+02  0.51100000000E-03 0. -1.
        -11    1    3    3    0    0  0.49421212263E+01  0.35229575612E+01 -0.52943750419E+01  0.80539555213E+01  0.51100000000E-03 0.  1.
        -12    1    3    3    0    0 -0.20368028555E+02 -0.30105799951E+02  0.17305520952E+02  0.40257879145E+02  0.00000000000E+00 0.  1.
</event>
<event>
 7    1  0.2972263E-013  0.7246160E+02  0.7816164E-02  0.1226708E+00
        -11   -1    0    0    0    0  0.00000000000E+00  0.00000000000E+00  0.45593999997E+02  0.45594000000E+02  0.51100000000E-03 0.  1.
         11   -1    0    0    0    0 -0.00000000000E+00 -0.00000000000E+00 -0.45593999997E+02  0.45594000000E+02  0.51100000000E-03 0. -1.
    9900012    2    1    2    0    0  0.17165007741E+01 -0.18643852167E+02 -0.37224164978E+00  0.72461597185E+02  0.70000035031E+02 0.  0.
         12    1    1    2    0    0 -0.17165007741E+01  0.18643852167E+02  0.37224164978E+00  0.18726402815E+02  0.00000000000E+00 0. -1.
         11    1    3    3    0    0 -0.43833928638E+01  0.10348615479E+01 -0.26031306776E+02  0.26418062082E+02  0.51100000000E-03 0. -1.
        -11    1    3    3    0    0  0.98544488551E+01  0.64268005217E+01  0.64632963496E+01  0.13423417119E+02  0.51100000000E-03 0.  1.
        -12    1    3    3    0    0 -0.37545552172E+01 -0.26105514236E+02  0.19195768777E+02  0.32620117985E+02  0.00000000000E+00 0.  1.
</event>
<event>
 7    1  0.2972263E-013  0.7246165E+02  0.7816164E-02  0.1226708E+00
        -11   -1    0    0    0    0  0.00000000000E+00  0.00000000000E+00  0.45593999997E+02  0.45594000000E+02  0.51100000000E-03 0. -1.
         11   -1    0    0    0    0 -0.00000000000E+00 -0.00000000000E+00 -0.45593999997E+02  0.45594000000E+02  0.51100000000E-03 0.  1.
    9900012    2    1    2    0    0  0.11480015567E+02 -0.76376309992E+00 -0.14775049145E+02  0.72461650416E+02  0.70000104374E+02 0.  0.
         12    1    1    2    0    0 -0.11480015567E+02  0.76376309992E+00  0.14775049145E+02  0.18726349584E+02  0.00000000000E+00 0. -1.
         11    1    3    3    0    0  0.12157965964E+02 -0.72462572607E+01  0.78064774532E+01  0.16163708459E+02  0.51100000000E-03 0. -1.
        -11    1    3    3    0    0 -0.14340739146E+01 -0.17953877663E+02 -0.25982253805E+02  0.31614487252E+02  0.51100000000E-03 0.  1.
         12    1    3    3    0    0  0.75612351759E+00  0.24436371823E+02  0.34007272072E+01  0.24683454706E+02  0.00000000000E+00 0. -1.
</event>
<event>
 7    1  0.2972263E-013  0.7246158E+02  0.7816164E-02  0.1226708E+00
        -11   -1    0    0    0    0  0.00000000000E+00  0.00000000000E+00  0.45593999997E+02  0.45594000000E+02  0.51100000000E-03 0. -1.
         11   -1    0    0    0    0 -0.00000000000E+00 -0.00000000000E+00 -0.45593999997E+02  0.45594000000E+02  0.51100000000E-03 0.  1.
    9900012    2    1    2    0    0  0.14955395106E+02  0.26736016542E+01 -0.10948367420E+02  0.72461581823E+02  0.70000015018E+02 0.  0.
         12    1    1    2    0    0 -0.14955395106E+02 -0.26736016542E+01  0.10948367420E+02  0.18726418177E+02  0.00000000000E+00 0. -1.
         11    1    3    3    0    0  0.27310419307E+02 -0.53192470420E+01 -0.14698581349E+00  0.27824000375E+02  0.51100000000E-03 0. -1.
        -11    1    3    3    0    0  0.73206947720E+01 -0.10775764679E+02 -0.11586618502E+02  0.17434431592E+02  0.51100000000E-03 0.  1.
        -12    1    3    3    0    0 -0.19675718972E+02  0.18768613375E+02  0.78523689581E+00  0.27203149856E+02  0.00000000000E+00 0.  1.
</event>
<event>
 7    1  0.2972263E-013  0.7246156E+02  0.7816164E-02  0.1226708E+00
        -11   -1    0    0    0    0  0.00000000000E+00  0.00000000000E+00  0.45593999997E+02  0.45594000000E+02  0.51100000000E-03 0.  1.
         11   -1    0    0    0    0 -0.00000000000E+00 -0.00000000000E+00 -0.45593999997E+02  0.45594000000E+02  0.51100000000E-03 0. -1.
    9900012    2    1    2    0    0 -0.83539317656E+01 -0.81203135219E+01  0.14661234901E+02  0.72461562099E+02  0.69999989324E+02 0.  0.
         12    1    1    2    0    0  0.83539317656E+01  0.81203135219E+01 -0.14661234901E+02  0.18726437901E+02  0.00000000000E+00 0. -1.
         11    1    3    3    0    0 -0.12584124002E+02  0.58889313414E+01 -0.86624611941E+01  0.16373085337E+02  0.51100000000E-03 0. -1.
        -11    1    3    3    0    0  0.47222262829E+01  0.13640518481E+02  0.24470340158E+02  0.28410573968E+02  0.51100000000E-03 0.  1.
        -12    1    3    3    0    0 -0.49203404675E+00 -0.27649763344E+02 -0.11466440625E+01  0.27677902794E+02  0.00000000000E+00 0.  1.
</event>
<event>
 7    1  0.2972263E-013  0.7246155E+02  0.7816164E-02  0.1226708E+00
        -11   -1    0    0    0    0  0.00000000000E+00  0.00000000000E+00  0.45593999997E+02  0.45594000000E+02  0.51100000000E-03 0. -1.
         11   -1    0    0    0    0 -0.00000000000E+00 -0.00000000000E+00 -0.45593999997E+02  0.45594000000E+02  0.51100000000E-03 0.  1.
    9900012    2    1    2    0    0 -0.41718906702E+01  0.10080806739E+01 -0.18227978240E+02  0.72461545741E+02  0.69999968014E+02 0.  0.
         12    1    1    2    0    0  0.41718906702E+01 -0.10080806739E+01  0.18227978240E+02  0.18726454259E+02  0.00000000000E+00 0. -1.
         11    1    3    3    0    0  0.12400056900E+01 -0.30082791415E+02 -0.41292397563E+01  0.30390172337E+02  0.51100000000E-03 0. -1.
        -11    1    3    3    0    0  0.79413960693E+01  0.70990394240E+01  0.10648336831E+01  0.10704952280E+02  0.51100000000E-03 0.  1.
        -12    1    3    3    0    0 -0.13353292429E+02  0.23991832665E+02 -0.15163572167E+02  0.31366421125E+02  0.00000000000E+00 0.  1.
</event>
<event>
 7    1  0.2972263E-013  0.7246161E+02  0.7816164E-02  0.1226708E+00
        -11   -1    0    0    0    0  0.00000000000E+00  0.00000000000E+00  0.45593999997E+02  0.45594000000E+02  0.51100000000E-03 0.  1.
         11   -1    0    0    0    0 -0.00000000000E+00 -0.00000000000E+00 -0.45593999997E+02  0.45594000000E+02  0.51100000000E-03 0. -1.
    9900012    2    1    2    0    0 -0.99966659820E+01 -0.11100929264E+02 -0.11292199452E+02  0.72461608737E+02  0.70000050078E+02 0.  0.
         12    1    1    2    0    0  0.99966659820E+01  0.11100929264E+02  0.11292199452E+02  0.18726391263E+02  0.00000000000E+00 0. -1.
         11    1    3    3    0    0  0.17325919322E+02 -0.27599963256E+01  0.61949595994E+01  0.18605982499E+02  0.51100000000E-03 0. -1.
        -11    1    3    3    0    0 -0.92944648586E+01 -0.77299008058E+01  0.13424753452E+02  0.18065504393E+02  0.51100000000E-03 0.  1.
        -12    1    3    3    0    0 -0.18028120445E+02 -0.61103213253E+00 -0.30911912503E+02  0.35790121845E+02  0.00000000000E+00 0.  1.
</event>
<event>
 7    1  0.2972263E-013  0.7246149E+02  0.7816164E-02  0.1226708E+00
        -11   -1    0    0    0    0  0.00000000000E+00  0.00000000000E+00  0.45593999997E+02  0.45594000000E+02  0.51100000000E-03 0. -1.
         11   -1    0    0    0    0 -0.00000000000E+00 -0.00000000000E+00 -0.45593999997E+02  0.45594000000E+02  0.51100000000E-03 0.  1.
    9900012    2    1    2    0    0 -0.11392007557E+02 -0.11346884439E+02 -0.95996131077E+01  0.72461489528E+02  0.69999894787E+02 0.  0.
         12    1    1    2    0    0  0.11392007557E+02  0.11346884439E+02  0.95996131077E+01  0.18726510472E+02  0.00000000000E+00 0. -1.
         11    1    3    3    0    0 -0.11274944500E+02 -0.82697562325E+00 -0.84740829962E+01  0.14128635640E+02  0.51100000000E-03 0. -1.
        -11    1    3    3    0    0  0.70841782493E+01 -0.25936142485E+02 -0.19558147902E+02  0.33247409194E+02  0.51100000000E-03 0.  1.
         12    1    3    3    0    0 -0.72012413061E+01  0.15416233670E+02  0.18432617790E+02  0.25085444694E+02  0.00000000000E+00 0. -1.
</event>
<event>
 7    1  0.2972263E-013  0.7246154E+02  0.7816164E-02  0.1226708E+00
        -11   -1    0    0    0    0  0.00000000000E+00  0.00000000000E+00  0.45593999997E+02  0.45594000000E+02  0.51100000000E-03 0. -1.
         11   -1    0    0    0    0 -0.00000000000E+00 -0.00000000000E+00 -0.45593999997E+02  0.45594000000E+02  0.51100000000E-03 0.  1.
    9900012    2    1    2    0    0 -0.50591224353E+01  0.59414974843E+01 -0.17023046803E+02  0.72461541856E+02  0.69999962953E+02 0.  0.
         12    1    1    2    0    0  0.50591224353E+01 -0.59414974843E+01  0.17023046803E+02  0.18726458144E+02  0.00000000000E+00 0. -1.
         11    1    3    3    0    0 -0.63757332970E+01  0.54254959146E+01 -0.39790439067E+01  0.92692379226E+01  0.51100000000E-03 0. -1.
        -11    1    3    3    0    0 -0.13465770460E+02 -0.14894708212E+02 -0.29879575879E+02  0.35999560578E+02  0.51100000000E-03 0.  1.
         12    1    3    3    0    0  0.14782381321E+02  0.15410709782E+02  0.16835572983E+02  0.27192743355E+02  0.00000000000E+00 0. -1.
</event>
<event>
 7    1  0.2972263E-013  0.7246154E+02  0.7816164E-02  0.1226708E+00
        -11   -1    0    0    0    0  0.00000000000E+00  0.00000000000E+00  0.45593999997E+02  0.45594000000E+02  0.51100000000E-03 0. -1.
         11   -1    0    0    0    0 -0.00000000000E+00 -0.00000000000E+00 -0.45593999997E+02  0.45594000000E+02  0.51100000000E-03 0.  1.
    9900012    2    1    2    0    0 -0.72415257018E+00  0.18578462712E+02  0.22353026509E+01  0.72461541402E+02  0.69999962363E+02 0.  0.
         12    1    1    2    0    0  0.72415257018E+00 -0.18578462712E+02 -0.22353026509E+01  0.18726458598E+02  0.00000000000E+00 0. -1.
         11    1    3    3    0    0 -0.94290443878E+01 -0.10145319096E+01  0.11867017716E+02  0.15190861161E+02  0.51100000000E-03 0. -1.
        -11    1    3    3    0    0 -0.53694296050E+01  0.11388272997E+02  0.19897043268E+02  0.23546037187E+02  0.51100000000E-03 0.  1.
        -12    1    3    3    0    0  0.14074321423E+02  0.82047216239E+01 -0.29528758333E+02  0.33724643054E+02  0.00000000000E+00 0.  1.
</event>
<event>
 7    1  0.2972263E-013  0.7246154E+02  0.7816164E-02  0.1226708E+00
        -11   -1    0    0    0    0  0.00000000000E+00  0.00000000000E+00  0.45593999997E+02  0.45594000000E+02  0.51100000000E-03 0.  1.
         11   -1    0    0    0    0 -0.00000000000E+00 -0.00000000000E+00 -0.45593999997E+02  0.45594000000E+02  0.51100000000E-03 0. -1.
    9900012    2    1    2    0    0 -0.74481605033E+01  0.45450110296E+01  0.16569487251E+02  0.72461544705E+02  0.69999966665E+02 0.  0.
         12    1    1    2    0    0  0.74481605033E+01 -0.45450110296E+01 -0.16569487251E+02  0.18726455295E+02  0.00000000000E+00 0. -1.
         11    1    3    3    0    0 -0.12672773923E+02 -0.14609167102E+02  0.18024167680E+01  0.19423585374E+02  0.51100000000E-03 0. -1.
        -11    1    3    3    0    0  0.72878585719E+00  0.27168576652E+01 -0.16870193511E+02  0.17103095443E+02  0.51100000000E-03 0.  1.
        -12    1    3    3    0    0  0.44958275623E+01  0.16437320467E+02  0.31637263994E+02  0.35934863888E+02  0.00000000000E+00 0.  1.
</event>
<event>
 7    1  0.2972263E-013  0.7246167E+02  0.7816164E-02  0.1226708E+00
        -11   -1    0    0    0    0  0.00000000000E+00  0.00000000000E+00  0.45593999997E+02  0.45594000000E+02  0.51100000000E-03 0. -1.
         11   -1    0    0    0    0 -0.00000000000E+00 -0.00000000000E+00 -0.45593999997E+02  0.45594000000E+02  0.51100000000E-03 0.  1.
    9900012    2    1    2    0    0 -0.15173320470E+02 -0.69210705516E+01 -0.85173007520E+01  0.72461674045E+02  0.70000135154E+02 0.  0.
         12    1    1    2    0    0  0.15173320470E+02  0.69210705516E+01  0.85173007520E+01  0.18726325955E+02  0.00000000000E+00 0. -1.
         11    1    3    3    0    0  0.45155063596E+01  0.16331253048E+02  0.42520789503E+01  0.17469396082E+02  0.51100000000E-03 0. -1.
        -11    1    3    3    0    0 -0.24860906637E+02 -0.11579785666E+01 -0.19170370562E+02  0.31415103070E+02  0.51100000000E-03 0.  1.
         12    1    3    3    0    0  0.51720798074E+01 -0.22094345033E+02  0.64009908594E+01  0.23577174893E+02  0.00000000000E+00 0. -1.
</event>
<event>
 7    1  0.2972263E-013  0.7246161E+02  0.7816164E-02  0.1226708E+00
        -11   -1    0    0    0    0  0.00000000000E+00  0.00000000000E+00  0.45593999997E+02  0.45594000000E+02  0.51100000000E-03 0.  1.
         11   -1    0    0    0    0 -0.00000000000E+00 -0.00000000000E+00 -0.45593999997E+02  0.45594000000E+02  0.51100000000E-03 0. -1.
    9900012    2    1    2    0    0  0.15431407658E+02 -0.85335664315E+01  0.63029874022E+01  0.72461608235E+02  0.70000049424E+02 0.  0.
         12    1    1    2    0    0 -0.15431407658E+02  0.85335664315E+01 -0.63029874022E+01  0.18726391765E+02  0.00000000000E+00 0. -1.
         11    1    3    3    0    0  0.34915019337E+01 -0.75771015379E+01 -0.15221540073E+02  0.17357947342E+02  0.51100000000E-03 0. -1.
        -11    1    3    3    0    0  0.15668970251E+02  0.15347004622E+01 -0.12921117208E+02  0.20367307245E+02  0.51100000000E-03 0.  1.
        -12    1    3    3    0    0 -0.37290645265E+01 -0.24911653559E+01  0.34445644684E+02  0.34736353648E+02  0.00000000000E+00 0.  1.
</event>
<event>
 7    1  0.2972263E-013  0.7246154E+02  0.7816164E-02  0.1226708E+00
        -11   -1    0    0    0    0  0.00000000000E+00  0.00000000000E+00  0.45593999997E+02  0.45594000000E+02  0.51100000000E-03 0. -1.
         11   -1    0    0    0    0 -0.00000000000E+00 -0.00000000000E+00 -0.45593999997E+02  0.45594000000E+02  0.51100000000E-03 0.  1.
    9900012    2    1    2    0    0 -0.26670380497E+01 -0.27004443066E+01 -0.18337793998E+02  0.72461543311E+02  0.69999964849E+02 0.  0.
         12    1    1    2    0    0  0.26670380497E+01  0.27004443066E+01  0.18337793998E+02  0.18726456689E+02  0.00000000000E+00 0. -1.
         11    1    3    3    0    0 -0.56318982062E+01  0.16087787727E+02  0.78936234376E+01  0.18784155094E+02  0.51100000000E-03 0. -1.
        -11    1    3    3    0    0  0.12502270592E+02 -0.33027443546E+01  0.77925880566E+01  0.15097659392E+02  0.51100000000E-03 0.  1.
        -12    1    3    3    0    0 -0.95374104358E+01 -0.15485487679E+02 -0.34024005492E+02  0.38579728825E+02  0.00000000000E+00 0.  1.
</event>
<event>
 7    1  0.2972263E-013  0.7246151E+02  0.7816164E-02  0.1226708E+00
        -11   -1    0    0    0    0  0.00000000000E+00  0.00000000000E+00  0.45593999997E+02  0.45594000000E+02  0.51100000000E-03 0.  1.
         11   -1    0    0    0    0 -0.00000000000E+00 -0.00000000000E+00 -0.45593999997E+02  0.45594000000E+02  0.51100000000E-03 0. -1.
    9900012    2    1    2    0    0 -0.16722192066E+02 -0.22827688373E+01 -0.81140934753E+01  0.72461514639E+02  0.69999927499E+02 0.  0.
         12    1    1    2    0    0  0.16722192066E+02  0.22827688373E+01  0.81140934753E+01  0.18726485361E+02  0.00000000000E+00 0. -1.
         11    1    3    3    0    0 -0.19091784764E+01 -0.28978751467E+01 -0.21391099073E+02  0.21670758238E+02  0.51100000000E-03 0. -1.
        -11    1    3    3    0    0  0.86553644289E+01  0.97852164786E+01  0.20740801346E+02  0.24512173214E+02  0.51100000000E-03 0.  1.
         12    1    3    3    0    0 -0.23468378018E+02 -0.91701101693E+01 -0.74637957489E+01  0.26278583187E+02  0.00000000000E+00 0. -1.
</event>
<event>
 7    1  0.2972263E-013  0.7246158E+02  0.7816164E-02  0.1226708E+00
        -11   -1    0    0    0    0  0.00000000000E+00  0.00000000000E+00  0.45593999997E+02  0.45594000000E+02  0.51100000000E-03 0.  1.
         11   -1    0    0    0    0 -0.00000000000E+00 -0.00000000000E+00 -0.45593999997E+02  0.45594000000E+02  0.51100000000E-03 0. -1.
    9900012    2    1    2    0    0  0.49601128757E+01 -0.17948259294E+02 -0.19839418657E+01  0.72461581315E+02  0.70000014357E+02 0.  0.
         12    1    1    2    0    0 -0.49601128757E+01  0.17948259294E+02  0.19839418657E+01  0.18726418685E+02  0.00000000000E+00 0. -1.
         11    1    3    3    0    0  0.41910136004E+01  0.44541871822E+01  0.90460576212E+01  0.10919502608E+02  0.51100000000E-03 0. -1.
        -11    1    3    3    0    0 -0.13218171604E+02 -0.33520693987E+02  0.63818359629E+01  0.36593507845E+02  0.51100000000E-03 0.  1.
         12    1    3    3    0    0  0.13987270879E+02  0.11118247510E+02 -0.17411835450E+02  0.24948570862E+02  0.00000000000E+00 0. -1.
</event>
<event>
 7    1  0.2972263E-013  0.7246134E+02  0.7816164E-02  0.1226709E+00
        -11   -1    0    0    0    0  0.00000000000E+00  0.00000000000E+00  0.45593999997E+02  0.45594000000E+02  0.51100000000E-03 0.  1.
         11   -1    0    0    0    0 -0.00000000000E+00 -0.00000000000E+00 -0.45593999997E+02  0.45594000000E+02  0.51100000000E-03 0. -1.
    9900012    2    1    2    0    0  0.41468773628E+01 -0.30397514520E+01  0.18006974566E+02  0.72461339492E+02  0.69999699336E+02 0.  0.
         12    1    1    2    0    0 -0.41468773628E+01  0.30397514520E+01 -0.18006974566E+02  0.18726660508E+02  0.00000000000E+00 0. -1.
         11    1    3    3    0    0  0.13572932636E+02  0.19730122117E+02 -0.12740984562E+02  0.27126277057E+02  0.51100000000E-03 0. -1.
        -11    1    3    3    0    0  0.69976956812E+01 -0.41430628026E+01  0.49176315805E+01  0.95034633085E+01  0.51100000000E-03 0.  1.
        -12    1    3    3    0    0 -0.16423750954E+02 -0.18626810766E+02  0.25830327548E+02  0.35831599127E+02  0.00000000000E+00 0.  1.
</event>
<event>
 7    1  0.2972263E-013  0.7246160E+02  0.7816164E-02  0.1226708E+00
        -11   -1    0    0    0    0  0.00000000000E+00  0.00000000000E+00  0.45593999997E+02  0.45594000000E+02  0.51100000000E-03 0.  1.
         11   -1    0    0    0    0 -0.00000000000E+00 -0.00000000000E+00 -0.45593999997E+02  0.45594000000E+02  0.51100000000E-03 0. -1.
    9900012    2    1    2    0    0  0.77003403143E+01 -0.93428522899E+01  0.14286143157E+02  0.72461601089E+02  0.70000040116E+02 0.  0.
         12    1    1    2    0    0 -0.77003403143E+01  0.93428522899E+01 -0.14286143157E+02  0.18726398911E+02  0.00000000000E+00 0. -1.
         11    1    3    3    0    0 -0.53671986927E+01  0.66741619073E+01 -0.15876109752E+02  0.18038905734E+02  0.51100000000E-03 0. -1.
        -11    1    3    3    0    0  0.92148811909E+01 -0.43005283437E+01  0.38312720635E+02  0.39639287860E+02  0.51100000000E-03 0.  1.
         12    1    3    3    0    0  0.38526578162E+01 -0.11716485853E+02 -0.81504677259E+01  0.14783407495E+02  0.00000000000E+00 0. -1.
</event>
<event>
 7    1  0.2972263E-013  0.7246157E+02  0.7816164E-02  0.1226708E+00
        -11   -1    0    0    0    0  0.00000000000E+00  0.00000000000E+00  0.45593999997E+02  0.45594000000E+02  0.51100000000E-03 0. -1.
         11   -1    0    0    0    0 -0.00000000000E+00 -0.00000000000E+00 -0.45593999997E+02  0.45594000000E+02  0.51100000000E-03 0.  1.
    9900012    2    1    2    0    0 -0.11630006991E+02 -0.71979752421E+01 -0.12791064185E+02  0.72461568595E+02  0.69999997786E+02 0.  0.
         12    1    1    2    0    0  0.11630006991E+02  0.71979752421E+01  0.12791064185E+02  0.18726431405E+02  0.00000000000E+00 0. -1.
         11    1    3    3    0    0 -0.75054959815E+01  0.17922013918E+02  0.18601188473E+01  0.19518993191E+02  0.51100000000E-03 0. -1.
        -11    1    3    3    0    0 -0.19611187214E+02 -0.24208976096E+02  0.63673781534E+00  0.31162134441E+02  0.51100000000E-03 0.  1.
         12    1    3    3    0    0  0.15486676205E+02 -0.91101306384E+00 -0.15287920848E+02  0.21780440963E+02  0.00000000000E+00 0. -1.
</event>
<event>
 7    1  0.2972263E-013  0.7246156E+02  0.7816164E-02  0.1226708E+00
        -11   -1    0    0    0    0  0.00000000000E+00  0.00000000000E+00  0.45593999997E+02  0.45594000000E+02  0.51100000000E-03 0.  1.
         11   -1    0    0    0    0 -0.00000000000E+00 -0.00000000000E+00 -0.45593999997E+02  0.45594000000E+02  0.51100000000E-03 0. -1.
    9900012    2    1    2    0    0  0.94014583903E+01 -0.12004921334E+02  0.10870788953E+02  0.72461558572E+02  0.69999984729E+02 0.  0.
         12    1    1    2    0    0 -0.94014583903E+01  0.12004921334E+02 -0.10870788953E+02  0.18726441428E+02  0.00000000000E+00 0. -1.
         11    1    3    3    0    0 -0.93127243984E+01 -0.23996286216E+02 -0.72191664932E+01  0.26733218156E+02  0.51100000000E-03 0. -1.
        -11    1    3    3    0    0 -0.76155835611E+01  0.26975704669E+01  0.15759018516E+02  0.17709338334E+02  0.51100000000E-03 0.  1.
        -12    1    3    3    0    0  0.26329766350E+02  0.92937944144E+01  0.23309369300E+01  0.28019002081E+02  0.00000000000E+00 0.  1.
</event>
<event>
 7    1  0.2972263E-013  0.7246145E+02  0.7816164E-02  0.1226708E+00
        -11   -1    0    0    0    0  0.00000000000E+00  0.00000000000E+00  0.45593999997E+02  0.45594000000E+02  0.51100000000E-03 0. -1.
         11   -1    0    0    0    0 -0.00000000000E+00 -0.00000000000E+00 -0.45593999997E+02  0.45594000000E+02  0.51100000000E-03 0.  1.
    9900012    2    1    2    0    0  0.10860139540E+02  0.54003471253E+01 -0.14268052073E+02  0.72461449601E+02  0.69999842774E+02 0.  0.
         12    1    1    2    0    0 -0.10860139540E+02 -0.54003471253E+01  0.14268052073E+02  0.18726550399E+02  0.00000000000E+00 0. -1.
         11    1    3    3    0    0  0.12532421128E+02 -0.93074392469E+00 -0.20515982709E+02  0.24058956967E+02  0.51100000000E-03 0. -1.
        -11    1    3    3    0    0 -0.10504272218E+02 -0.95855087770E+01 -0.14834198822E+02  0.20549334984E+02  0.51100000000E-03 0.  1.
         12    1    3    3    0    0  0.88319906309E+01  0.15916599827E+02  0.21082129458E+02  0.27853157649E+02  0.00000000000E+00 0. -1.
</event>
<event>
 7    1  0.2972263E-013  0.7246151E+02  0.7816164E-02  0.1226708E+00
        -11   -1    0    0    0    0  0.00000000000E+00  0.00000000000E+00  0.45593999997E+02  0.45594000000E+02  0.51100000000E-03 0.  1.
         11   -1    0    0    0    0 -0.00000000000E+00 -0.00000000000E+00 -0.45593999997E+02  0.45594000000E+02  0.51100000000E-03 0. -1.
    9900012    2    1    2    0    0  0.10999517211E+02 -0.77203608943E+01  0.13041780943E+02  0.72461510703E+02  0.69999922372E+02 0.  0.
         12    1    1    2    0    0 -0.10999517211E+02  0.77203608943E+01 -0.13041780943E+02  0.18726489297E+02  0.00000000000E+00 0. -1.
         11    1    3    3    0    0 -0.58875805717E+01  0.60801454995E+01  0.41417634410E+01  0.94226312114E+01  0.51100000000E-03 0. -1.
        -11    1    3    3    0    0 -0.19909483588E+02  0.53203620395E+01  0.60275656619E+01  0.21471500578E+02  0.51100000000E-03 0.  1.
         12    1    3    3    0    0  0.36796581371E+02 -0.19120868433E+02  0.28724518401E+01  0.41567378914E+02  0.00000000000E+00 0. -1.
</event>
<event>
 7    1  0.2972263E-013  0.7246176E+02  0.7816164E-02  0.1226708E+00
        -11   -1    0    0    0    0  0.00000000000E+00  0.00000000000E+00  0.45593999997E+02  0.45594000000E+02  0.51100000000E-03 0. -1.
         11   -1    0    0    0    0 -0.00000000000E+00 -0.00000000000E+00 -0.45593999997E+02  0.45594000000E+02  0.51100000000E-03 0.  1.
    9900012    2    1    2    0    0  0.24838156518E+00  0.11104491752E+01 -0.18691633984E+02  0.72461762477E+02  0.70000250353E+02 0.  0.
         12    1    1    2    0    0 -0.24838156518E+00 -0.11104491752E+01  0.18691633984E+02  0.18726237523E+02  0.00000000000E+00 0. -1.
         11    1    3    3    0    0 -0.34307082257E+01 -0.13525206960E+02 -0.68775644092E+01  0.15556409442E+02  0.51100000000E-03 0. -1.
        -11    1    3    3    0    0  0.12363974878E+02 -0.15671255254E+02 -0.15350019373E+02  0.25180929511E+02  0.51100000000E-03 0.  1.
         12    1    3    3    0    0 -0.86848850874E+01  0.30306911390E+02  0.35359497977E+01  0.31724423524E+02  0.00000000000E+00 0. -1.
</event>
<event>
 7    1  0.2972263E-013  0.7246103E+02  0.7816164E-02  0.1226709E+00
        -11   -1    0    0    0    0  0.00000000000E+00  0.00000000000E+00  0.45593999997E+02  0.45594000000E+02  0.51100000000E-03 0. -1.
         11   -1    0    0    0    0 -0.00000000000E+00 -0.00000000000E+00 -0.45593999997E+02  0.45594000000E+02  0.51100000000E-03 0.  1.
    9900012    2    1    2    0    0 -0.77098195622E+01 -0.15215913311E+02 -0.77287779416E+01  0.72461031637E+02  0.69999298296E+02 0.  0.
         12    1    1    2    0    0  0.77098195622E+01  0.15215913311E+02  0.77287779416E+01  0.18726968363E+02  0.00000000000E+00 0. -1.
         11    1    3    3    0    0  0.26033320485E+01  0.57584699630E+01 -0.70233895384E+01  0.94480323316E+01  0.51100000000E-03 0. -1.
        -11    1    3    3    0    0 -0.31189232434E+02  0.21642443167E+01  0.39141107998E+01  0.31508291558E+02  0.51100000000E-03 0.  1.
         12    1    3    3    0    0  0.20876080824E+02 -0.23138627591E+02 -0.46194992030E+01  0.31504707747E+02  0.00000000000E+00 0. -1.
</event>
<event>
 7    1  0.2972263E-013  0.7246151E+02  0.7816164E-02  0.1226708E+00
        -11   -1    0    0    0    0  0.00000000000E+00  0.00000000000E+00  0.45593999997E+02  0.45594000000E+02  0.51100000000E-03 0. -1.
         11   -1    0    0    0    0 -0.00000000000E+00 -0.00000000000E+00 -0.45593999997E+02  0.45594000000E+02  0.51100000000E-03 0.  1.
    9900012    2    1    2    0    0 -0.11577571160E+02  0.11684563447E+02 -0.89505446225E+01  0.72461510047E+02  0.69999921517E+02 0.  0.
         12    1    1    2    0    0  0.11577571160E+02 -0.11684563447E+02  0.89505446225E+01  0.18726489953E+02  0.00000000000E+00 0. -1.
         11    1    3    3    0    0 -0.83129672156E-01  0.10619380648E+02  0.12224806416E+02  0.16193333445E+02  0.51100000000E-03 0. -1.
        -11    1    3    3    0    0 -0.25229910893E+02  0.15636653237E+02 -0.41248309175E+01  0.29967775334E+02  0.51100000000E-03 0.  1.
        -12    1    3    3    0    0  0.13735469405E+02 -0.14571470438E+02 -0.17050520121E+02  0.26300401268E+02  0.00000000000E+00 0.  1.
</event>
<event>
 7    1  0.2972263E-013  0.7246150E+02  0.7816164E-02  0.1226708E+00
        -11   -1    0    0    0    0  0.00000000000E+00  0.00000000000E+00  0.45593999997E+02  0.45594000000E+02  0.51100000000E-03 0.  1.
         11   -1    0    0    0    0 -0.00000000000E+00 -0.00000000000E+00 -0.45593999997E+02  0.45594000000E+02  0.51100000000E-03 0. -1.
    9900012    2    1    2    0    0  0.10006040373E+01 -0.14304175653E+02  0.12044545261E+02  0.72461502193E+02  0.69999911286E+02 0.  0.
         12    1    1    2    0    0 -0.10006040373E+01  0.14304175653E+02 -0.12044545261E+02  0.18726497807E+02  0.00000000000E+00 0. -1.
         11    1    3    3    0    0  0.62592904545E+00 -0.86172517664E+00  0.63407022819E+01  0.64295305535E+01  0.51100000000E-03 0. -1.
        -11    1    3    3    0    0 -0.19145934329E+02 -0.26353538915E+02  0.20363764600E+02  0.38415605209E+02  0.51100000000E-03 0.  1.
         12    1    3    3    0    0  0.19520609321E+02  0.12911088438E+02 -0.14659921620E+02  0.27616366431E+02  0.00000000000E+00 0. -1.
</event>
<event>
 7    1  0.2972263E-013  0.7246169E+02  0.7816164E-02  0.1226708E+00
        -11   -1    0    0    0    0  0.00000000000E+00  0.00000000000E+00  0.45593999997E+02  0.45594000000E+02  0.51100000000E-03 0. -1.
         11   -1    0    0    0    0 -0.00000000000E+00 -0.00000000000E+00 -0.45593999997E+02  0.45594000000E+02  0.51100000000E-03 0.  1.
    9900012    2    1    2    0    0  0.17946163093E+02  0.47065121536E+01 -0.25413671757E+01  0.72461693009E+02  0.70000159858E+02 0.  0.
         12    1    1    2    0    0 -0.17946163093E+02 -0.47065121536E+01  0.25413671757E+01  0.18726306991E+02  0.00000000000E+00 0. -1.
         11    1    3    3    0    0 -0.35509351654E+01 -0.55234244771E+01  0.70281843090E+01  0.96183539884E+01  0.51100000000E-03 0. -1.
        -11    1    3    3    0    0  0.26063554402E+02  0.56982958769E+01  0.19515666987E+02  0.33055116127E+02  0.51100000000E-03 0.  1.
        -12    1    3    3    0    0 -0.45664561435E+01  0.45316407538E+01 -0.29085218471E+02  0.29788222894E+02  0.00000000000E+00 0.  1.
</event>
<event>
 7    1  0.2972263E-013  0.7246145E+02  0.7816164E-02  0.1226708E+00
        -11   -1    0    0    0    0  0.00000000000E+00  0.00000000000E+00  0.45593999997E+02  0.45594000000E+02  0.51100000000E-03 0. -1.
         11   -1    0    0    0    0 -0.00000000000E+00 -0.00000000000E+00 -0.45593999997E+02  0.45594000000E+02  0.51100000000E-03 0.  1.
    9900012    2    1    2    0    0 -0.82786631976E+01 -0.15888989730E+02 -0.54486150559E+01  0.72461450265E+02  0.69999843639E+02 0.  0.
         12    1    1    2    0    0  0.82786631976E+01  0.15888989730E+02  0.54486150559E+01  0.18726549735E+02  0.00000000000E+00 0. -1.
         11    1    3    3    0    0  0.16524746283E+01  0.82394411184E+01 -0.10349158182E+00  0.84041521350E+01  0.51100000000E-03 0. -1.
        -11    1    3    3    0    0 -0.24446437405E+02 -0.58849371138E+00  0.15913289680E+02  0.29175459128E+02  0.51100000000E-03 0.  1.
        -12    1    3    3    0    0  0.14515299579E+02 -0.23539937137E+02 -0.21258413154E+02  0.34881839001E+02  0.00000000000E+00 0.  1.
</event>
<event>
 7    1  0.2972263E-013  0.7246160E+02  0.7816164E-02  0.1226708E+00
        -11   -1    0    0    0    0  0.00000000000E+00  0.00000000000E+00  0.45593999997E+02  0.45594000000E+02  0.51100000000E-03 0.  1.
         11   -1    0    0    0    0 -0.00000000000E+00 -0.00000000000E+00 -0.45593999997E+02  0.45594000000E+02  0.51100000000E-03 0. -1.
    9900012    2    1    2    0    0  0.24077711048E+01  0.52197240538E+01  0.17822326528E+02  0.72461596080E+02  0.70000033591E+02 0.  0.
         12    1    1    2    0    0 -0.24077711048E+01 -0.52197240538E+01 -0.17822326528E+02  0.18726403920E+02  0.00000000000E+00 0. -1.
         11    1    3    3    0    0 -0.42102839853E+00  0.20818544856E+02 -0.11076886995E+02  0.23585726628E+02  0.51100000000E-03 0. -1.
        -11    1    3    3    0    0 -0.15507405272E+02 -0.23608624521E+01  0.17663459193E+02  0.23623104807E+02  0.51100000000E-03 0.  1.
        -12    1    3    3    0    0  0.18336204775E+02 -0.13237958350E+02  0.11235754330E+02  0.25252764645E+02  0.00000000000E+00 0.  1.
</event>
<event>
 7    1  0.2972263E-013  0.7246156E+02  0.7816164E-02  0.1226708E+00
        -11   -1    0    0    0    0  0.00000000000E+00  0.00000000000E+00  0.45593999997E+02  0.45594000000E+02  0.51100000000E-03 0. -1.
         11   -1    0    0    0    0 -0.00000000000E+00 -0.00000000000E+00 -0.45593999997E+02  0.45594000000E+02  0.51100000000E-03 0.  1.
    9900012    2    1    2    0    0  0.82394568666E+01  0.15298092765E+02  0.69827792576E+01  0.72461561527E+02  0.69999988580E+02 0.  0.
         12    1    1    2    0    0 -0.82394568666E+01 -0.15298092765E+02 -0.69827792576E+01  0.18726438473E+02  0.00000000000E+00 0. -1.
         11    1    3    3    0    0  0.56160748436E+01 -0.46117963956E+01  0.31398114403E+01  0.79162730363E+01  0.51100000000E-03 0. -1.
        -11    1    3    3    0    0  0.20425032017E+02  0.24842891535E+02 -0.17259460849E+02  0.36499865504E+02  0.51100000000E-03 0.  1.
         12    1    3    3    0    0 -0.17801649994E+02 -0.49330023748E+01  0.21102428666E+02  0.28045422987E+02  0.00000000000E+00 0. -1.
</event>
<event>
 7    1  0.2972263E-013  0.7246153E+02  0.7816164E-02  0.1226708E+00
        -11   -1    0    0    0    0  0.00000000000E+00  0.00000000000E+00  0.45593999997E+02  0.45594000000E+02  0.51100000000E-03 0. -1.
         11   -1    0    0    0    0 -0.00000000000E+00 -0.00000000000E+00 -0.45593999997E+02  0.45594000000E+02  0.51100000000E-03 0.  1.
    9900012    2    1    2    0    0 -0.83071078736E+01 -0.67311226076E+01 -0.15374158282E+02  0.72461526876E+02  0.69999943440E+02 0.  0.
         12    1    1    2    0    0  0.83071078736E+01  0.67311226076E+01  0.15374158282E+02  0.18726473124E+02  0.00000000000E+00 0. -1.
         11    1    3    3    0    0  0.14066728837E+02  0.29376778386E+01 -0.39366955655E+00  0.14375596935E+02  0.51100000000E-03 0. -1.
        -11    1    3    3    0    0  0.60285455315E+00  0.10018690943E+02 -0.24410079591E+02  0.26392983684E+02  0.51100000000E-03 0.  1.
        -12    1    3    3    0    0 -0.22976691263E+02 -0.19687491389E+02  0.94295908661E+01  0.31692946258E+02  0.00000000000E+00 0.  1.
</event>
<event>
 7    1  0.2972263E-013  0.7246163E+02  0.7816164E-02  0.1226708E+00
        -11   -1    0    0    0    0  0.00000000000E+00  0.00000000000E+00  0.45593999997E+02  0.45594000000E+02  0.51100000000E-03 0.  1.
         11   -1    0    0    0    0 -0.00000000000E+00 -0.00000000000E+00 -0.45593999997E+02  0.45594000000E+02  0.51100000000E-03 0. -1.
    9900012    2    1    2    0    0 -0.48524718630E+01 -0.62273385583E+01  0.16980893691E+02  0.72461628775E+02  0.70000076182E+02 0.  0.
         12    1    1    2    0    0  0.48524718630E+01  0.62273385583E+01 -0.16980893691E+02  0.18726371225E+02  0.00000000000E+00 0. -1.
         11    1    3    3    0    0 -0.19798217832E+02 -0.16529524912E+02 -0.88559138247E+01  0.27269430377E+02  0.51100000000E-03 0. -1.
        -11    1    3    3    0    0 -0.46394135242E+01 -0.47732207556E+01  0.18114159798E+02  0.19298460552E+02  0.51100000000E-03 0.  1.
         12    1    3    3    0    0  0.19585159493E+02  0.15075407109E+02  0.77226477175E+01  0.25893737846E+02  0.00000000000E+00 0. -1.
</event>
<event>
 7    1  0.2972263E-013  0.7246161E+02  0.7816164E-02  0.1226708E+00
        -11   -1    0    0    0    0  0.00000000000E+00  0.00000000000E+00  0.45593999997E+02  0.45594000000E+02  0.51100000000E-03 0. -1.
         11   -1    0    0    0    0 -0.00000000000E+00 -0.00000000000E+00 -0.45593999997E+02  0.45594000000E+02  0.51100000000E-03 0.  1.
    9900012    2    1    2    0    0 -0.72960695450E+01  0.75014933753E+01 -0.15529729760E+02  0.72461613801E+02  0.70000056676E+02 0.  0.
         12    1    1    2    0    0  0.72960695450E+01 -0.75014933753E+01  0.15529729760E+02  0.18726386199E+02  0.00000000000E+00 0. -1.
         11    1    3    3    0    0  0.57381967680E+01  0.36000751105E+01  0.21498022985E+02  0.22540018533E+02  0.51100000000E-03 0. -1.
        -11    1    3    3    0    0  0.44683914303E+00 -0.10100453571E+02 -0.26862773208E+01  0.10461114360E+02  0.51100000000E-03 0.  1.
        -12    1    3    3    0    0 -0.13481105456E+02  0.14001871835E+02 -0.34341475424E+02  0.39460480908E+02  0.00000000000E+00 0.  1.
</event>
<event>
 7    1  0.2972263E-013  0.7246152E+02  0.7816164E-02  0.1226708E+00
        -11   -1    0    0    0    0  0.00000000000E+00  0.00000000000E+00  0.45593999997E+02  0.45594000000E+02  0.51100000000E-03 0. -1.
         11   -1    0    0    0    0 -0.00000000000E+00 -0.00000000000E+00 -0.45593999997E+02  0.45594000000E+02  0.51100000000E-03 0.  1.
    9900012    2    1    2    0    0 -0.88554147080E+01 -0.12987933950E+02 -0.10177238997E+02  0.72461521646E+02  0.69999936627E+02 0.  0.
         12    1    1    2    0    0  0.88554147080E+01  0.12987933950E+02  0.10177238997E+02  0.18726478354E+02  0.00000000000E+00 0. -1.
         11    1    3    3    0    0 -0.24908407735E+02 -0.70778516535E+01  0.10642413851E+02  0.27996173538E+02  0.51100000000E-03 0. -1.
        -11    1    3    3    0    0 -0.11530045837E+01  0.86851576080E+01  0.50709906649E+01  0.10123059262E+02  0.51100000000E-03 0.  1.
        -12    1    3    3    0    0  0.17205997611E+02 -0.14595239904E+02 -0.25890643513E+02  0.34342288846E+02  0.00000000000E+00 0.  1.
</event>
<event>
 7    1  0.2972263E-013  0.7246156E+02  0.7816164E-02  0.1226708E+00
        -11   -1    0    0    0    0  0.00000000000E+00  0.00000000000E+00  0.45593999997E+02  0.45594000000E+02  0.51100000000E-03 0. -1.
         11   -1    0    0    0    0 -0.00000000000E+00 -0.00000000000E+00 -0.45593999997E+02  0.45594000000E+02  0.51100000000E-03 0.  1.
    9900012    2    1    2    0    0 -0.10037377441E+02  0.15606930627E+02  0.25208082212E+01  0.72461556035E+02  0.69999981424E+02 0.  0.
         12    1    1    2    0    0  0.10037377441E+02 -0.15606930627E+02 -0.25208082212E+01  0.18726443965E+02  0.00000000000E+00 0. -1.
         11    1    3    3    0    0  0.22986641391E+01 -0.88623103781E+01  0.59416484824E+01  0.10914558581E+02  0.51100000000E-03 0. -1.
        -11    1    3    3    0    0 -0.31469054162E+02  0.15640971833E+01 -0.35026270978E+01  0.31701989948E+02  0.51100000000E-03 0.  1.
         12    1    3    3    0    0  0.19133012582E+02  0.22905143822E+02  0.81786836563E-01  0.29845007506E+02  0.00000000000E+00 0. -1.
</event>
<event>
 7    1  0.2972263E-013  0.7246159E+02  0.7816164E-02  0.1226708E+00
        -11   -1    0    0    0    0  0.00000000000E+00  0.00000000000E+00  0.45593999997E+02  0.45594000000E+02  0.51100000000E-03 0.  1.
         11   -1    0    0    0    0 -0.00000000000E+00 -0.00000000000E+00 -0.45593999997E+02  0.45594000000E+02  0.51100000000E-03 0. -1.
    9900012    2    1    2    0    0  0.16000066383E+02  0.86961032526E+01  0.43651210269E+01  0.72461585030E+02  0.70000019196E+02 0.  0.
         12    1    1    2    0    0 -0.16000066383E+02 -0.86961032526E+01 -0.43651210269E+01  0.18726414970E+02  0.00000000000E+00 0. -1.
         11    1    3    3    0    0  0.53759325069E+01 -0.10516944153E+02  0.20763143552E+02  0.23887546862E+02  0.51100000000E-03 0. -1.
        -11    1    3    3    0    0  0.77559960999E+01  0.23678395743E+01  0.12559928814E+02  0.14950382999E+02  0.51100000000E-03 0.  1.
         12    1    3    3    0    0  0.28681377760E+01  0.16845207832E+02 -0.28957951339E+02  0.33623655169E+02  0.00000000000E+00 0. -1.
</event>
<event>
 7    1  0.3264119E-013  0.7246155E+02  0.7816164E-02  0.1226708E+00
        -11   -1    0    0    0    0  0.00000000000E+00  0.00000000000E+00  0.45593999997E+02  0.45594000000E+02  0.51100000000E-03 0. -1.
         11   -1    0    0    0    0 -0.00000000000E+00 -0.00000000000E+00 -0.45593999997E+02  0.45594000000E+02  0.51100000000E-03 0.  1.
    9900012    2    1    2    0    0  0.48804512275E+00 -0.13600623136E+02 -0.12863311874E+02  0.72461549987E+02  0.69999973546E+02 0.  0.
         12    1    1    2    0    0 -0.48804512275E+00  0.13600623136E+02  0.12863311874E+02  0.18726450013E+02  0.00000000000E+00 0. -1.
         11    1    3    3    0    0 -0.15755952365E+02 -0.42879031193E+01  0.65852210045E+01  0.17606853325E+02  0.51100000000E-03 0. -1.
        -11    1    3    3    0    0  0.41924259423E+01 -0.27496147725E+02 -0.39454829466E+01  0.28092372825E+02  0.51100000000E-03 0.  1.
        -12    1    3    3    0    0  0.12051571545E+02  0.18183427708E+02 -0.15503049932E+02  0.26762323836E+02  0.00000000000E+00 0.  1.
</event>
<event>
 7    1  0.3730441E-013  0.7246153E+02  0.7816164E-02  0.1226708E+00
        -11   -1    0    0    0    0  0.00000000000E+00  0.00000000000E+00  0.45593999997E+02  0.45594000000E+02  0.51100000000E-03 0. -1.
         11   -1    0    0    0    0 -0.00000000000E+00 -0.00000000000E+00 -0.45593999997E+02  0.45594000000E+02  0.51100000000E-03 0.  1.
    9900012    2    1    2    0    0 -0.14680305777E+02  0.15367045616E+01 -0.11524228795E+02  0.72461529753E+02  0.69999947187E+02 0.  0.
         12    1    1    2    0    0  0.14680305777E+02 -0.15367045616E+01  0.11524228795E+02  0.18726470247E+02  0.00000000000E+00 0. -1.
         11    1    3    3    0    0 -0.19969868973E+02  0.77527347469E+01  0.15119374306E+02  0.26220145738E+02  0.51100000000E-03 0. -1.
        -11    1    3    3    0    0 -0.15500607707E+02  0.10565268285E+01 -0.13568102321E+02  0.20627129929E+02  0.51100000000E-03 0.  1.
        -12    1    3    3    0    0  0.20790170904E+02 -0.72725570138E+01 -0.13075500780E+02  0.25614254086E+02  0.00000000000E+00 0.  1.
</event>
<event>
 7    1  0.2972263E-013  0.7246159E+02  0.7816164E-02  0.1226708E+00
        -11   -1    0    0    0    0  0.00000000000E+00  0.00000000000E+00  0.45593999997E+02  0.45594000000E+02  0.51100000000E-03 0.  1.
         11   -1    0    0    0    0 -0.00000000000E+00 -0.00000000000E+00 -0.45593999997E+02  0.45594000000E+02  0.51100000000E-03 0. -1.
    9900012    2    1    2    0    0 -0.16523055594E+02  0.36671240876E+01  0.80136975409E+01  0.72461587810E+02  0.70000022818E+02 0.  0.
         12    1    1    2    0    0  0.16523055594E+02 -0.36671240876E+01 -0.80136975409E+01  0.18726412190E+02  0.00000000000E+00 0. -1.
         11    1    3    3    0    0 -0.24164899048E+02 -0.15689893721E+02 -0.11438321135E+02  0.30999198404E+02  0.51100000000E-03 0. -1.
        -11    1    3    3    0    0 -0.85379997669E+01  0.16008582326E+02  0.34641772464E+01  0.18470860087E+02  0.51100000000E-03 0.  1.
        -12    1    3    3    0    0  0.16179843222E+02  0.33484354827E+01  0.15987841430E+02  0.22991529319E+02  0.00000000000E+00 0.  1.
</event>
<event>
 7    1  0.2972263E-013  0.7246162E+02  0.7816164E-02  0.1226708E+00
        -11   -1    0    0    0    0  0.00000000000E+00  0.00000000000E+00  0.45593999997E+02  0.45594000000E+02  0.51100000000E-03 0.  1.
         11   -1    0    0    0    0 -0.00000000000E+00 -0.00000000000E+00 -0.45593999997E+02  0.45594000000E+02  0.51100000000E-03 0. -1.
    9900012    2    1    2    0    0  0.56186140126E+01  0.92138621930E+01 -0.15304030287E+02  0.72461616928E+02  0.70000060749E+02 0.  0.
         12    1    1    2    0    0 -0.56186140126E+01 -0.92138621930E+01  0.15304030287E+02  0.18726383072E+02  0.00000000000E+00 0. -1.
         11    1    3    3    0    0  0.34520313016E-01 -0.82688406996E+01  0.13980478416E+02  0.16242804412E+02  0.51100000000E-03 0. -1.
        -11    1    3    3    0    0  0.19381489909E+02  0.15496177879E+02 -0.11748422284E+01  0.24842583087E+02  0.51100000000E-03 0.  1.
         12    1    3    3    0    0 -0.13797396209E+02  0.19865250140E+01 -0.28109666475E+02  0.31376229428E+02  0.00000000000E+00 0. -1.
</event>
<event>
 7    1  0.2972263E-013  0.7246156E+02  0.7816164E-02  0.1226708E+00
        -11   -1    0    0    0    0  0.00000000000E+00  0.00000000000E+00  0.45593999997E+02  0.45594000000E+02  0.51100000000E-03 0.  1.
         11   -1    0    0    0    0 -0.00000000000E+00 -0.00000000000E+00 -0.45593999997E+02  0.45594000000E+02  0.51100000000E-03 0. -1.
    9900012    2    1    2    0    0 -0.16417578995E+02  0.81176156674E+01  0.39047428512E+01  0.72461558776E+02  0.69999984995E+02 0.  0.
         12    1    1    2    0    0  0.16417578995E+02 -0.81176156674E+01 -0.39047428512E+01  0.18726441224E+02  0.00000000000E+00 0. -1.
         11    1    3    3    0    0  0.11360769246E+02 -0.19526961722E+02  0.39392795110E+01  0.22932231363E+02  0.51100000000E-03 0. -1.
        -11    1    3    3    0    0 -0.49886683883E+01 -0.26084094573E+00 -0.10822671216E+02  0.11919943910E+02  0.51100000000E-03 0.  1.
         12    1    3    3    0    0 -0.22789679854E+02  0.27905418335E+02  0.10788134557E+02  0.37609383503E+02  0.00000000000E+00 0. -1.
</event>
<event>
 7    1  0.2972263E-013  0.7246158E+02  0.7816164E-02  0.1226708E+00
        -11   -1    0    0    0    0  0.00000000000E+00  0.00000000000E+00  0.45593999997E+02  0.45594000000E+02  0.51100000000E-03 0.  1.
         11   -1    0    0    0    0 -0.00000000000E+00 -0.00000000000E+00 -0.45593999997E+02  0.45594000000E+02  0.51100000000E-03 0. -1.
    9900012    2    1    2    0    0  0.62730989653E+01  0.16648072370E+02  0.58453926126E+01  0.72461582856E+02  0.70000016363E+02 0.  0.
         12    1    1    2    0    0 -0.62730989653E+01 -0.16648072370E+02 -0.58453926126E+01  0.18726417144E+02  0.00000000000E+00 0. -1.
         11    1    3    3    0    0 -0.15615784536E+02  0.75705629318E+01  0.47928446366E+01  0.18003819310E+02  0.51100000000E-03 0. -1.
        -11    1    3    3    0    0 -0.12073347111E+02  0.15383553638E+02 -0.25781518803E+01  0.19724763632E+02  0.51100000000E-03 0.  1.
         12    1    3    3    0    0  0.33962230611E+02 -0.63060441992E+01  0.36306998563E+01  0.34732999913E+02  0.00000000000E+00 0. -1.
</event>
<event>
 7    1  0.2972263E-013  0.7246159E+02  0.7816164E-02  0.1226708E+00
        -11   -1    0    0    0    0  0.00000000000E+00  0.00000000000E+00  0.45593999997E+02  0.45594000000E+02  0.51100000000E-03 0.  1.
         11   -1    0    0    0    0 -0.00000000000E+00 -0.00000000000E+00 -0.45593999997E+02  0.45594000000E+02  0.51100000000E-03 0. -1.
    9900012    2    1    2    0    0 -0.55377811631E+01 -0.86818369759E+01  0.15640881983E+02  0.72461588099E+02  0.70000023193E+02 0.  0.
         12    1    1    2    0    0  0.55377811631E+01  0.86818369759E+01 -0.15640881983E+02  0.18726411901E+02  0.00000000000E+00 0. -1.
         11    1    3    3    0    0 -0.29691485823E+01  0.74037472234E+01 -0.97215299830E+01  0.12575351356E+02  0.51100000000E-03 0. -1.
        -11    1    3    3    0    0  0.12308337201E+02  0.15120629044E+02  0.11527312503E+02  0.22649669338E+02  0.51100000000E-03 0.  1.
        -12    1    3    3    0    0 -0.14876969782E+02 -0.31206213243E+02  0.13835099464E+02  0.37236567404E+02  0.00000000000E+00 0.  1.
</event>
<event>
 7    1  0.2972263E-013  0.7246157E+02  0.7816164E-02  0.1226708E+00
        -11   -1    0    0    0    0  0.00000000000E+00  0.00000000000E+00  0.45593999997E+02  0.45594000000E+02  0.51100000000E-03 0. -1.
         11   -1    0    0    0    0 -0.00000000000E+00 -0.00000000000E+00 -0.45593999997E+02  0.45594000000E+02  0.51100000000E-03 0.  1.
    9900012    2    1    2    0    0  0.14081280235E+02 -0.54887780149E+01  0.11057577965E+02  0.72461570345E+02  0.70000000067E+02 0.  0.
         12    1    1    2    0    0 -0.14081280235E+02  0.54887780149E+01 -0.11057577965E+02  0.18726429655E+02  0.00000000000E+00 0. -1.
         11    1    3    3    0    0 -0.68656823448E+01 -0.56130434731E+01 -0.17655557046E+02  0.19757594640E+02  0.51100000000E-03 0. -1.
        -11    1    3    3    0    0 -0.17694551341E+00 -0.55727379830E+01 -0.81277186362E+01  0.98562938690E+01  0.51100000000E-03 0.  1.
         12    1    3    3    0    0  0.21123908093E+02  0.56970034411E+01  0.36840853647E+02  0.42847681837E+02  0.00000000000E+00 0. -1.
</event>
<event>
 7    1  0.2972263E-013  0.7246156E+02  0.7816164E-02  0.1226708E+00
        -11   -1    0    0    0    0  0.00000000000E+00  0.00000000000E+00  0.45593999997E+02  0.45594000000E+02  0.51100000000E-03 0.  1.
         11   -1    0    0    0    0 -0.00000000000E+00 -0.00000000000E+00 -0.45593999997E+02  0.45594000000E+02  0.51100000000E-03 0. -1.
    9900012    2    1    2    0    0 -0.56601269687E+01  0.58354557515E+01  0.16869794797E+02  0.72461559932E+02  0.69999986501E+02 0.  0.
         12    1    1    2    0    0  0.56601269687E+01 -0.58354557515E+01 -0.16869794797E+02  0.18726440068E+02  0.00000000000E+00 0. -1.
         11    1    3    3    0    0  0.11084174350E+01 -0.27693165000E+02  0.81937993216E+00  0.27727447785E+02  0.51100000000E-03 0. -1.
        -11    1    3    3    0    0  0.80168418204E+01  0.45780556686E+01  0.30388497415E+01  0.97192054454E+01  0.51100000000E-03 0.  1.
        -12    1    3    3    0    0 -0.14785386224E+02  0.28950565083E+02  0.13011565123E+02  0.35014906702E+02  0.00000000000E+00 0.  1.
</event>
<event>
 7    1  0.2972263E-013  0.7246147E+02  0.7816164E-02  0.1226708E+00
        -11   -1    0    0    0    0  0.00000000000E+00  0.00000000000E+00  0.45593999997E+02  0.45594000000E+02  0.51100000000E-03 0.  1.
         11   -1    0    0    0    0 -0.00000000000E+00 -0.00000000000E+00 -0.45593999997E+02  0.45594000000E+02  0.51100000000E-03 0. -1.
    9900012    2    1    2    0    0 -0.33240289938E+01 -0.17600502355E+02  0.54640695960E+01  0.72461470465E+02  0.69999869953E+02 0.  0.
         12    1    1    2    0    0  0.33240289938E+01  0.17600502355E+02 -0.54640695960E+01  0.18726529535E+02  0.00000000000E+00 0. -1.
         11    1    3    3    0    0 -0.73921593922E+01 -0.12595359525E+02 -0.19132224784E+01  0.14729138555E+02  0.51100000000E-03 0. -1.
        -11    1    3    3    0    0  0.80867966539E+01 -0.21844584329E+02  0.24202624692E+02  0.33590909289E+02  0.51100000000E-03 0.  1.
         12    1    3    3    0    0 -0.40186662555E+01  0.16839441500E+02 -0.16825332617E+02  0.24141422621E+02  0.00000000000E+00 0. -1.
</event>
<event>
 7    1  0.2972263E-013  0.7246158E+02  0.7816164E-02  0.1226708E+00
        -11   -1    0    0    0    0  0.00000000000E+00  0.00000000000E+00  0.45593999997E+02  0.45594000000E+02  0.51100000000E-03 0.  1.
         11   -1    0    0    0    0 -0.00000000000E+00 -0.00000000000E+00 -0.45593999997E+02  0.45594000000E+02  0.51100000000E-03 0. -1.
    9900012    2    1    2    0    0  0.13924862134E+02  0.91953513899E+01  0.84983889447E+01  0.72461577830E+02  0.70000009816E+02 0.  0.
         12    1    1    2    0    0 -0.13924862134E+02 -0.91953513899E+01 -0.84983889447E+01  0.18726422170E+02  0.00000000000E+00 0. -1.
         11    1    3    3    0    0  0.41907815769E+01 -0.13209987935E+02  0.18769579934E+02  0.23331600087E+02  0.51100000000E-03 0. -1.
        -11    1    3    3    0    0  0.12454587874E+02  0.78500365615E+01  0.14247235643E+02  0.20487155900E+02  0.51100000000E-03 0.  1.
         12    1    3    3    0    0 -0.27205073165E+01  0.14555302764E+02 -0.24518426632E+02  0.28642821843E+02  0.00000000000E+00 0. -1.
</event>
<event>
 7    1  0.2972263E-013  0.7246159E+02  0.7816164E-02  0.1226708E+00
        -11   -1    0    0    0    0  0.00000000000E+00  0.00000000000E+00  0.45593999997E+02  0.45594000000E+02  0.51100000000E-03 0. -1.
         11   -1    0    0    0    0 -0.00000000000E+00 -0.00000000000E+00 -0.45593999997E+02  0.45594000000E+02  0.51100000000E-03 0.  1.
    9900012    2    1    2    0    0 -0.28746381736E+01 -0.18098981735E+02 -0.38525156624E+01  0.72461586531E+02  0.70000021151E+02 0.  0.
         12    1    1    2    0    0  0.28746381736E+01  0.18098981735E+02  0.38525156624E+01  0.18726413469E+02  0.00000000000E+00 0. -1.
         11    1    3    3    0    0 -0.95831217622E+01 -0.16782871211E+02 -0.46433441619E+01  0.19876157427E+02  0.51100000000E-03 0.  1.
        -11    1    3    3    0    0  0.28380788242E+02  0.61287871122E+01 -0.35865982789E+01  0.29255680819E+02  0.51100000000E-03 0. -1.
         12    1    3    3    0    0 -0.21672304654E+02 -0.74448976364E+01  0.43774267785E+01  0.23329748284E+02  0.00000000000E+00 0. -1.
</event>
<event>
 7    1  0.2972263E-013  0.7246154E+02  0.7816164E-02  0.1226708E+00
        -11   -1    0    0    0    0  0.00000000000E+00  0.00000000000E+00  0.45593999997E+02  0.45594000000E+02  0.51100000000E-03 0.  1.
         11   -1    0    0    0    0 -0.00000000000E+00 -0.00000000000E+00 -0.45593999997E+02  0.45594000000E+02  0.51100000000E-03 0. -1.
    9900012    2    1    2    0    0  0.91502331448E+01  0.12663803604E+01  0.16289562086E+02  0.72461539609E+02  0.69999960026E+02 0.  0.
         12    1    1    2    0    0 -0.91502331448E+01 -0.12663803604E+01 -0.16289562086E+02  0.18726460391E+02  0.00000000000E+00 0. -1.
         11    1    3    3    0    0  0.20072600460E+02  0.10719419872E+02 -0.17062621041E+02  0.28442016255E+02  0.51100000000E-03 0. -1.
        -11    1    3    3    0    0  0.80707611734E+01 -0.29869954916E+01  0.87404290386E+01  0.12265986631E+02  0.51100000000E-03 0.  1.
        -12    1    3    3    0    0 -0.18993128488E+02 -0.64660440201E+01  0.24611754089E+02  0.31753536723E+02  0.00000000000E+00 0.  1.
</event>
<event>
 7    1  0.2972263E-013  0.7246166E+02  0.7816164E-02  0.1226708E+00
        -11   -1    0    0    0    0  0.00000000000E+00  0.00000000000E+00  0.45593999997E+02  0.45594000000E+02  0.51100000000E-03 0.  1.
         11   -1    0    0    0    0 -0.00000000000E+00 -0.00000000000E+00 -0.45593999997E+02  0.45594000000E+02  0.51100000000E-03 0. -1.
    9900012    2    1    2    0    0 -0.17171696003E+02 -0.28406644307E+01 -0.69093661288E+01  0.72461658705E+02  0.70000115171E+02 0.  0.
         12    1    1    2    0    0  0.17171696003E+02  0.28406644307E+01  0.69093661288E+01  0.18726341295E+02  0.00000000000E+00 0. -1.
         11    1    3    3    0    0 -0.52421136578E+01 -0.67838793056E+01 -0.96642648651E+01  0.12918931445E+02  0.51100000000E-03 0. -1.
        -11    1    3    3    0    0 -0.31386502881E+01  0.99582821304E+01  0.29211969812E+02  0.31021890484E+02  0.51100000000E-03 0.  1.
         12    1    3    3    0    0 -0.87909320567E+01 -0.60150672555E+01 -0.26457071076E+02  0.28520836776E+02  0.00000000000E+00 0. -1.
</event>
<event>
 7    1  0.2972263E-013  0.7246158E+02  0.7816164E-02  0.1226708E+00
        -11   -1    0    0    0    0  0.00000000000E+00  0.00000000000E+00  0.45593999997E+02  0.45594000000E+02  0.51100000000E-03 0.  1.
         11   -1    0    0    0    0 -0.00000000000E+00 -0.00000000000E+00 -0.45593999997E+02  0.45594000000E+02  0.51100000000E-03 0. -1.
    9900012    2    1    2    0    0  0.31213052536E+01  0.24252664809E+01  0.18304491040E+02  0.72461578659E+02  0.70000010897E+02 0.  0.
         12    1    1    2    0    0 -0.31213052536E+01 -0.24252664809E+01 -0.18304491040E+02  0.18726421341E+02  0.00000000000E+00 0. -1.
         11    1    3    3    0    0 -0.16938651133E+01  0.48504618048E+01  0.10921737118E+02  0.12069817757E+02  0.51100000000E-03 0. -1.
        -11    1    3    3    0    0  0.21616886571E+02  0.26350531936E+01  0.26594281050E+02  0.34372795569E+02  0.51100000000E-03 0.  1.
         12    1    3    3    0    0 -0.16801716205E+02 -0.50602485175E+01 -0.19211527128E+02  0.26018965334E+02  0.00000000000E+00 0. -1.
</event>
<event>
 7    1  0.2972263E-013  0.7246159E+02  0.7816164E-02  0.1226708E+00
        -11   -1    0    0    0    0  0.00000000000E+00  0.00000000000E+00  0.45593999997E+02  0.45594000000E+02  0.51100000000E-03 0.  1.
         11   -1    0    0    0    0 -0.00000000000E+00 -0.00000000000E+00 -0.45593999997E+02  0.45594000000E+02  0.51100000000E-03 0. -1.
    9900012    2    1    2    0    0  0.14361819120E+02  0.84298166954E+01 -0.85647490194E+01  0.72461585936E+02  0.70000020376E+02 0.  0.
         12    1    1    2    0    0 -0.14361819120E+02 -0.84298166954E+01  0.85647490194E+01  0.18726414064E+02  0.00000000000E+00 0. -1.
         11    1    3    3    0    0  0.39815349960E+01 -0.24296990188E+00 -0.51853887929E+01  0.65421642056E+01  0.51100000000E-03 0. -1.
        -11    1    3    3    0    0  0.25745520356E+02  0.29996656965E+02 -0.28168933273E+01  0.39630368857E+02  0.51100000000E-03 0.  1.
         12    1    3    3    0    0 -0.15365236232E+02 -0.21323870368E+02 -0.56246689920E+00  0.26289052873E+02  0.00000000000E+00 0. -1.
</event>
<event>
 7    1  0.2972263E-013  0.7246160E+02  0.7816164E-02  0.1226708E+00
        -11   -1    0    0    0    0  0.00000000000E+00  0.00000000000E+00  0.45593999997E+02  0.45594000000E+02  0.51100000000E-03 0.  1.
         11   -1    0    0    0    0 -0.00000000000E+00 -0.00000000000E+00 -0.45593999997E+02  0.45594000000E+02  0.51100000000E-03 0. -1.
    9900012    2    1    2    0    0 -0.14100906773E+02  0.12237491984E+02 -0.14444433775E+01  0.72461596220E+02  0.70000033772E+02 0.  0.
         12    1    1    2    0    0  0.14100906773E+02 -0.12237491984E+02  0.14444433775E+01  0.18726403780E+02  0.00000000000E+00 0. -1.
         11    1    3    3    0    0  0.47321884315E+01  0.45826340640E+01  0.29531276169E+01  0.72190792556E+01  0.51100000000E-03 0. -1.
        -11    1    3    3    0    0 -0.14478228898E+02 -0.19253421933E+02  0.17911351918E+02  0.30018825693E+02  0.51100000000E-03 0.  1.
         12    1    3    3    0    0 -0.43548663057E+01  0.26908279854E+02 -0.22308922913E+02  0.35223691271E+02  0.00000000000E+00 0. -1.
</event>
<event>
 7    1  0.2972263E-013  0.7246158E+02  0.7816164E-02  0.1226708E+00
        -11   -1    0    0    0    0  0.00000000000E+00  0.00000000000E+00  0.45593999997E+02  0.45594000000E+02  0.51100000000E-03 0.  1.
         11   -1    0    0    0    0 -0.00000000000E+00 -0.00000000000E+00 -0.45593999997E+02  0.45594000000E+02  0.51100000000E-03 0. -1.
    9900012    2    1    2    0    0  0.12427867795E+02  0.65287054890E+01  0.12393669846E+02  0.72461576274E+02  0.70000007790E+02 0.  0.
         12    1    1    2    0    0 -0.12427867795E+02 -0.65287054890E+01 -0.12393669846E+02  0.18726423726E+02  0.00000000000E+00 0. -1.
         11    1    3    3    0    0  0.22151693491E+02  0.90946407511E+01 -0.11030865024E+02  0.26364559513E+02  0.51100000000E-03 0. -1.
        -11    1    3    3    0    0 -0.44463100837E+01  0.11649422459E+02 -0.53525131111E+01  0.13569381484E+02  0.51100000000E-03 0.  1.
        -12    1    3    3    0    0 -0.52775156116E+01 -0.14215357721E+02  0.28777047981E+02  0.32527635277E+02  0.00000000000E+00 0.  1.
</event>
<event>
 7    1  0.2972263E-013  0.7246147E+02  0.7816164E-02  0.1226708E+00
        -11   -1    0    0    0    0  0.00000000000E+00  0.00000000000E+00  0.45593999997E+02  0.45594000000E+02  0.51100000000E-03 0. -1.
         11   -1    0    0    0    0 -0.00000000000E+00 -0.00000000000E+00 -0.45593999997E+02  0.45594000000E+02  0.51100000000E-03 0.  1.
    9900012    2    1    2    0    0  0.11889018564E+02 -0.94008634753E+01 -0.10998080759E+02  0.72461473978E+02  0.69999874529E+02 0.  0.
         12    1    1    2    0    0 -0.11889018564E+02  0.94008634753E+01  0.10998080759E+02  0.18726526022E+02  0.00000000000E+00 0. -1.
         11    1    3    3    0    0  0.26418066290E+01  0.60382088538E+01 -0.30055136255E+02  0.30769308149E+02  0.51100000000E-03 0. -1.
        -11    1    3    3    0    0 -0.11541814493E+01  0.90630959372E+01  0.32290908256E+00  0.91419972283E+01  0.51100000000E-03 0.  1.
        -12    1    3    3    0    0  0.10401393384E+02 -0.24502168266E+02  0.18734146413E+02  0.32550168600E+02  0.00000000000E+00 0.  1.
</event>
<event>
 7    1  0.2972263E-013  0.7246177E+02  0.7816164E-02  0.1226707E+00
        -11   -1    0    0    0    0  0.00000000000E+00  0.00000000000E+00  0.45593999997E+02  0.45594000000E+02  0.51100000000E-03 0. -1.
         11   -1    0    0    0    0 -0.00000000000E+00 -0.00000000000E+00 -0.45593999997E+02  0.45594000000E+02  0.51100000000E-03 0.  1.
    9900012    2    1    2    0    0 -0.55056534669E+01 -0.17898345241E+02 -0.93994867984E-01  0.72461766596E+02  0.70000255718E+02 0.  0.
         12    1    1    2    0    0  0.55056534669E+01  0.17898345241E+02  0.93994867984E-01  0.18726233404E+02  0.00000000000E+00 0. -1.
         11    1    3    3    0    0 -0.10071515692E+01  0.51107121564E-01 -0.55928342521E+01  0.56830239709E+01  0.51100000000E-03 0. -1.
        -11    1    3    3    0    0 -0.56048437617E+01 -0.36272155357E+02 -0.14653365708E+02  0.39519674273E+02  0.51100000000E-03 0.  1.
         12    1    3    3    0    0  0.11063418641E+01  0.18322702994E+02  0.20152205092E+02  0.27259068352E+02  0.00000000000E+00 0. -1.
</event>
<event>
 7    1  0.2972263E-013  0.7246160E+02  0.7816164E-02  0.1226708E+00
        -11   -1    0    0    0    0  0.00000000000E+00  0.00000000000E+00  0.45593999997E+02  0.45594000000E+02  0.51100000000E-03 0. -1.
         11   -1    0    0    0    0 -0.00000000000E+00 -0.00000000000E+00 -0.45593999997E+02  0.45594000000E+02  0.51100000000E-03 0.  1.
    9900012    2    1    2    0    0  0.55826944244E+01  0.45498277215E+01 -0.17286143358E+02  0.72461597208E+02  0.70000035061E+02 0.  0.
         12    1    1    2    0    0 -0.55826944244E+01 -0.45498277215E+01  0.17286143358E+02  0.18726402792E+02  0.00000000000E+00 0. -1.
         11    1    3    3    0    0  0.68092088040E+01  0.40077935130E+00 -0.33267111704E+02  0.33959191245E+02  0.51100000000E-03 0.  1.
        -11    1    3    3    0    0  0.11766716350E+02 -0.85382150816E+01  0.35107666772E+00  0.14542351445E+02  0.51100000000E-03 0. -1.
        -12    1    3    3    0    0 -0.12993230730E+02  0.12687263452E+02  0.15629891678E+02  0.23960054519E+02  0.00000000000E+00 0.  1.
</event>
<event>
 7    1  0.2972263E-013  0.7246158E+02  0.7816164E-02  0.1226708E+00
        -11   -1    0    0    0    0  0.00000000000E+00  0.00000000000E+00  0.45593999997E+02  0.45594000000E+02  0.51100000000E-03 0.  1.
         11   -1    0    0    0    0 -0.00000000000E+00 -0.00000000000E+00 -0.45593999997E+02  0.45594000000E+02  0.51100000000E-03 0. -1.
    9900012    2    1    2    0    0  0.92737314196E+01 -0.32456517949E+01  0.15941851785E+02  0.72461575132E+02  0.70000006302E+02 0.  0.
         12    1    1    2    0    0 -0.92737314196E+01  0.32456517949E+01 -0.15941851785E+02  0.18726424868E+02  0.00000000000E+00 0. -1.
         11    1    3    3    0    0  0.23585260885E+01 -0.62843174451E+01  0.48482641601E+01  0.82801543879E+01  0.51100000000E-03 0. -1.
        -11    1    3    3    0    0  0.15548698073E+02 -0.66082490332E+01  0.33945388027E+02  0.37917282809E+02  0.51100000000E-03 0.  1.
         12    1    3    3    0    0 -0.86334927423E+01  0.96469146833E+01 -0.22851800402E+02  0.26264137935E+02  0.00000000000E+00 0. -1.
</event>
<event>
 7    1  0.2972263E-013  0.7246156E+02  0.7816164E-02  0.1226708E+00
        -11   -1    0    0    0    0  0.00000000000E+00  0.00000000000E+00  0.45593999997E+02  0.45594000000E+02  0.51100000000E-03 0.  1.
         11   -1    0    0    0    0 -0.00000000000E+00 -0.00000000000E+00 -0.45593999997E+02  0.45594000000E+02  0.51100000000E-03 0. -1.
    9900012    2    1    2    0    0  0.37111868069E+01  0.10751840874E+02  0.14876313676E+02  0.72461556176E+02  0.69999981609E+02 0.  0.
         12    1    1    2    0    0 -0.37111868069E+01 -0.10751840874E+02 -0.14876313676E+02  0.18726443824E+02  0.00000000000E+00 0. -1.
         11    1    3    3    0    0 -0.30418894084E+00  0.16572250662E+02 -0.15362891545E+02  0.22599788933E+02  0.51100000000E-03 0. -1.
        -11    1    3    3    0    0 -0.97550621736E+01  0.38611092868E+01 -0.43784649850E+01  0.11368392974E+02  0.51100000000E-03 0.  1.
         12    1    3    3    0    0  0.13770437921E+02 -0.96815190750E+01  0.34617670206E+02  0.38493374269E+02  0.00000000000E+00 0. -1.
</event>
<event>
 7    1  0.2972263E-013  0.7246155E+02  0.7816164E-02  0.1226708E+00
        -11   -1    0    0    0    0  0.00000000000E+00  0.00000000000E+00  0.45593999997E+02  0.45594000000E+02  0.51100000000E-03 0.  1.
         11   -1    0    0    0    0 -0.00000000000E+00 -0.00000000000E+00 -0.45593999997E+02  0.45594000000E+02  0.51100000000E-03 0. -1.
    9900012    2    1    2    0    0 -0.16619296902E+02 -0.14886686449E+01  0.85007426904E+01  0.72461553724E+02  0.69999978414E+02 0.  0.
         12    1    1    2    0    0  0.16619296902E+02  0.14886686449E+01 -0.85007426904E+01  0.18726446276E+02  0.00000000000E+00 0. -1.
         11    1    3    3    0    0 -0.54014773937E+01 -0.29285925542E+02 -0.14614245152E+02  0.33172542177E+02  0.51100000000E-03 0. -1.
        -11    1    3    3    0    0 -0.58084481650E+01  0.35728024975E+01  0.35754885856E+01  0.76998121183E+01  0.51100000000E-03 0.  1.
        -12    1    3    3    0    0 -0.54093713434E+01  0.24224454400E+02  0.19539499257E+02  0.31589199428E+02  0.00000000000E+00 0.  1.
</event>
<event>
 7    1  0.2972263E-013  0.7246158E+02  0.7816164E-02  0.1226708E+00
        -11   -1    0    0    0    0  0.00000000000E+00  0.00000000000E+00  0.45593999997E+02  0.45594000000E+02  0.51100000000E-03 0. -1.
         11   -1    0    0    0    0 -0.00000000000E+00 -0.00000000000E+00 -0.45593999997E+02  0.45594000000E+02  0.51100000000E-03 0.  1.
    9900012    2    1    2    0    0  0.11418117828E+02  0.14618559863E+02 -0.25696854715E+01  0.72461575071E+02  0.70000006222E+02 0.  0.
         12    1    1    2    0    0 -0.11418117828E+02 -0.14618559863E+02  0.25696854715E+01  0.18726424929E+02  0.00000000000E+00 0. -1.
         11    1    3    3    0    0 -0.57598364160E+01 -0.93300129298E+01 -0.20123914525E+02  0.22917172445E+02  0.51100000000E-03 0. -1.
        -11    1    3    3    0    0  0.38265318122E+01 -0.22864652640E+00 -0.98911257035E+01  0.10607968368E+02  0.51100000000E-03 0.  1.
        -12    1    3    3    0    0  0.13351422432E+02  0.24177219319E+02  0.27445354757E+02  0.38936434258E+02  0.00000000000E+00 0.  1.
</event>
<event>
 7    1  0.2972263E-013  0.7246113E+02  0.7816164E-02  0.1226709E+00
        -11   -1    0    0    0    0  0.00000000000E+00  0.00000000000E+00  0.45593999997E+02  0.45594000000E+02  0.51100000000E-03 0.  1.
         11   -1    0    0    0    0 -0.00000000000E+00 -0.00000000000E+00 -0.45593999997E+02  0.45594000000E+02  0.51100000000E-03 0. -1.
    9900012    2    1    2    0    0 -0.68494780810E+01  0.16001613672E+02  0.69085872114E+01  0.72461132473E+02  0.69999429655E+02 0.  0.
         12    1    1    2    0    0  0.68494780810E+01 -0.16001613672E+02 -0.69085872114E+01  0.18726867527E+02  0.00000000000E+00 0. -1.
         11    1    3    3    0    0 -0.85353325639E+01  0.10470313686E+02 -0.88577016012E+01  0.16153583150E+02  0.51100000000E-03 0. -1.
        -11    1    3    3    0    0  0.22587803126E+02  0.16197336170E+02 -0.42397890257E+00  0.27798242884E+02  0.51100000000E-03 0.  1.
        -12    1    3    3    0    0 -0.20901948643E+02 -0.10666036184E+02  0.16190267715E+02  0.28509306439E+02  0.00000000000E+00 0.  1.
</event>
<event>
 7    1  0.2972263E-013  0.7246156E+02  0.7816164E-02  0.1226708E+00
        -11   -1    0    0    0    0  0.00000000000E+00  0.00000000000E+00  0.45593999997E+02  0.45594000000E+02  0.51100000000E-03 0.  1.
         11   -1    0    0    0    0 -0.00000000000E+00 -0.00000000000E+00 -0.45593999997E+02  0.45594000000E+02  0.51100000000E-03 0. -1.
    9900012    2    1    2    0    0  0.18177562474E+02 -0.19640750836E+01  0.40494747858E+01  0.72461558414E+02  0.69999984524E+02 0.  0.
         12    1    1    2    0    0 -0.18177562474E+02  0.19640750836E+01 -0.40494747858E+01  0.18726441586E+02  0.00000000000E+00 0. -1.
         11    1    3    3    0    0  0.22662515778E+01 -0.70119495550E+01  0.21137711347E+02  0.22385400913E+02  0.51100000000E-03 0. -1.
        -11    1    3    3    0    0  0.12379433046E+02 -0.15965919263E+02  0.34332425869E+01  0.20492635150E+02  0.51100000000E-03 0.  1.
         12    1    3    3    0    0  0.35318778501E+01  0.21013793735E+02 -0.20521479148E+02  0.29583522351E+02  0.00000000000E+00 0. -1.
</event>
<event>
 7    1  0.2972263E-013  0.7246148E+02  0.7816164E-02  0.1226708E+00
        -11   -1    0    0    0    0  0.00000000000E+00  0.00000000000E+00  0.45593999997E+02  0.45594000000E+02  0.51100000000E-03 0.  1.
         11   -1    0    0    0    0 -0.00000000000E+00 -0.00000000000E+00 -0.45593999997E+02  0.45594000000E+02  0.51100000000E-03 0. -1.
    9900012    2    1    2    0    0 -0.28613412302E+01  0.92717331531E+00  0.18483388553E+02  0.72461479330E+02  0.69999881502E+02 0.  0.
         12    1    1    2    0    0  0.28613412302E+01 -0.92717331531E+00 -0.18483388553E+02  0.18726520670E+02  0.00000000000E+00 0. -1.
         11    1    3    3    0    0 -0.23302949995E+02  0.53783461388E+01  0.12154834384E+02  0.26827114731E+02  0.51100000000E-03 0. -1.
        -11    1    3    3    0    0  0.58017556574E+01  0.31717349104E+01  0.21940421593E+02  0.22915112284E+02  0.51100000000E-03 0.  1.
        -12    1    3    3    0    0  0.14639853107E+02 -0.76229077339E+01 -0.15611867423E+02  0.22719252315E+02  0.00000000000E+00 0.  1.
</event>
<event>
 7    1  0.2972263E-013  0.7246164E+02  0.7816164E-02  0.1226708E+00
        -11   -1    0    0    0    0  0.00000000000E+00  0.00000000000E+00  0.45593999997E+02  0.45594000000E+02  0.51100000000E-03 0.  1.
         11   -1    0    0    0    0 -0.00000000000E+00 -0.00000000000E+00 -0.45593999997E+02  0.45594000000E+02  0.51100000000E-03 0. -1.
    9900012    2    1    2    0    0 -0.11597638111E+02  0.14674266311E+02 -0.91506995068E+00  0.72461637445E+02  0.70000087476E+02 0.  0.
         12    1    1    2    0    0  0.11597638111E+02 -0.14674266311E+02  0.91506995068E+00  0.18726362555E+02  0.00000000000E+00 0. -1.
         11    1    3    3    0    0 -0.11006144894E+02  0.19036093005E+01 -0.50814852002E+01  0.12271122438E+02  0.51100000000E-03 0. -1.
        -11    1    3    3    0    0 -0.24618592413E+01 -0.85289692218E+01  0.27289393776E+02  0.28696952448E+02  0.51100000000E-03 0.  1.
         12    1    3    3    0    0  0.18703660237E+01  0.21299626232E+02 -0.23122978526E+02  0.31493562558E+02  0.00000000000E+00 0. -1.
</event>
<event>
 7    1  0.2972263E-013  0.7246159E+02  0.7816164E-02  0.1226708E+00
        -11   -1    0    0    0    0  0.00000000000E+00  0.00000000000E+00  0.45593999997E+02  0.45594000000E+02  0.51100000000E-03 0.  1.
         11   -1    0    0    0    0 -0.00000000000E+00 -0.00000000000E+00 -0.45593999997E+02  0.45594000000E+02  0.51100000000E-03 0. -1.
    9900012    2    1    2    0    0 -0.34075431401E+01  0.16438714057E+02 -0.82967432510E+01  0.72461585002E+02  0.70000019160E+02 0.  0.
         12    1    1    2    0    0  0.34075431401E+01 -0.16438714057E+02  0.82967432510E+01  0.18726414998E+02  0.00000000000E+00 0. -1.
         11    1    3    3    0    0 -0.64544042053E+01  0.28303316535E+02 -0.87641085739E+01  0.30324027765E+02  0.51100000000E-03 0. -1.
        -11    1    3    3    0    0  0.11584522276E+01  0.51418914203E+01  0.17330066053E+02  0.18113868958E+02  0.51100000000E-03 0.  1.
         12    1    3    3    0    0  0.18884088376E+01 -0.17006493898E+02 -0.16862700730E+02  0.24023688280E+02  0.00000000000E+00 0. -1.
</event>
<event>
 7    1  0.2972263E-013  0.7246158E+02  0.7816164E-02  0.1226708E+00
        -11   -1    0    0    0    0  0.00000000000E+00  0.00000000000E+00  0.45593999997E+02  0.45594000000E+02  0.51100000000E-03 0.  1.
         11   -1    0    0    0    0 -0.00000000000E+00 -0.00000000000E+00 -0.45593999997E+02  0.45594000000E+02  0.51100000000E-03 0. -1.
    9900012    2    1    2    0    0 -0.47395052444E+01 -0.11141832361E+02  0.14285499871E+02  0.72461578963E+02  0.70000011292E+02 0.  0.
         12    1    1    2    0    0  0.47395052444E+01  0.11141832361E+02 -0.14285499871E+02  0.18726421037E+02  0.00000000000E+00 0. -1.
         11    1    3    3    0    0  0.10276125659E+02  0.14465156819E+02 -0.16844760426E+02  0.24466006508E+02  0.51100000000E-03 0. -1.
        -11    1    3    3    0    0 -0.41143288055E+01 -0.19050142702E+01  0.18430434493E+02  0.18979928787E+02  0.51100000000E-03 0.  1.
        -12    1    3    3    0    0 -0.10901302098E+02 -0.23701974909E+02  0.12699825804E+02  0.29015643668E+02  0.00000000000E+00 0.  1.
</event>
