<event>
 7    1  0.5138511E-013  0.5052885E+02  0.7816164E-02  0.1300439E+00
        -11   -1    0    0    0    0  0.00000000000E+00  0.00000000000E+00  0.45593999997E+02  0.45594000000E+02  0.51100000000E-03 0. -1.
         11   -1    0    0    0    0 -0.00000000000E+00 -0.00000000000E+00 -0.45593999997E+02  0.45594000000E+02  0.51100000000E-03 0.  1.
    9900012    2    1    2    0    0  0.34357713213E+02  0.20000401724E+02  0.85263329140E+01  0.50528845074E+02  0.29999955086E+02 0.  0.
        -12    1    1    2    0    0 -0.34357713213E+02 -0.20000401724E+02 -0.85263329140E+01  0.40659154926E+02  0.00000000000E+00 0.  1.
         11    1    3    3    0    0  0.13312173752E+02  0.18529384893E+02  0.11393864755E+02  0.25502396532E+02  0.51100000000E-03 0. -1.
        -11    1    3    3    0    0  0.54464069935E+01  0.57686620333E+01 -0.38459337592E+01  0.88165762932E+01  0.51100000000E-03 0.  1.
         12    1    3    3    0    0  0.15599132467E+02 -0.42976452025E+01  0.97840191815E+00  0.16209872249E+02  0.00000000000E+00 0. -1.
</event>
<event>
 7    1  0.5138511E-013  0.5052890E+02  0.7816164E-02  0.1300439E+00
        -11   -1    0    0    0    0  0.00000000000E+00  0.00000000000E+00  0.45593999997E+02  0.45594000000E+02  0.51100000000E-03 0. -1.
         11   -1    0    0    0    0 -0.00000000000E+00 -0.00000000000E+00 -0.45593999997E+02  0.45594000000E+02  0.51100000000E-03 0.  1.
    9900012    2    1    2    0    0 -0.24912694608E+02  0.29384608039E+02  0.13002494024E+02  0.50528900243E+02  0.30000122778E+02 0.  0.
        -12    1    1    2    0    0  0.24912694608E+02 -0.29384608039E+02 -0.13002494024E+02  0.40659099757E+02  0.00000000000E+00 0.  1.
         11    1    3    3    0    0 -0.11312330098E+02  0.49632993285E+01 -0.71968685096E+01  0.14296785271E+02  0.51100000000E-03 0. -1.
        -11    1    3    3    0    0 -0.12066112505E+01  0.61624021964E+01  0.10260153942E+02  0.12029209065E+02  0.51100000000E-03 0.  1.
         12    1    3    3    0    0 -0.12393753259E+02  0.18258906514E+02  0.99392085910E+01  0.24202905907E+02  0.00000000000E+00 0. -1.
</event>
<event>
 7    1  0.5138511E-013  0.5052885E+02  0.7816164E-02  0.1300439E+00
        -11   -1    0    0    0    0  0.00000000000E+00  0.00000000000E+00  0.45593999997E+02  0.45594000000E+02  0.51100000000E-03 0.  1.
         11   -1    0    0    0    0 -0.00000000000E+00 -0.00000000000E+00 -0.45593999997E+02  0.45594000000E+02  0.51100000000E-03 0. -1.
    9900012    2    1    2    0    0  0.19120059977E+02 -0.31790496843E+01 -0.35741895717E+02  0.50528853921E+02  0.29999981978E+02 0.  0.
        -12    1    1    2    0    0 -0.19120059977E+02  0.31790496843E+01  0.35741895717E+02  0.40659146079E+02  0.00000000000E+00 0.  1.
         11    1    3    3    0    0  0.12679202472E+02 -0.37613233071E+01 -0.23424724720E+02  0.26900324474E+02  0.51100000000E-03 0.  1.
        -11    1    3    3    0    0  0.47628324297E+01 -0.49510634792E+01 -0.15552828632E+02  0.17002590422E+02  0.51100000000E-03 0. -1.
        -12    1    3    3    0    0  0.16780250752E+01  0.55333371020E+01  0.32356576348E+01  0.66259390253E+01  0.00000000000E+00 0.  1.
</event>
<event>
 7    1  0.5138511E-013  0.5052885E+02  0.7816164E-02  0.1300439E+00
        -11   -1    0    0    0    0  0.00000000000E+00  0.00000000000E+00  0.45593999997E+02  0.45594000000E+02  0.51100000000E-03 0.  1.
         11   -1    0    0    0    0 -0.00000000000E+00 -0.00000000000E+00 -0.45593999997E+02  0.45594000000E+02  0.51100000000E-03 0. -1.
    9900012    2    1    2    0    0  0.10483397686E+02 -0.66378372623E+01 -0.38719552894E+02  0.50528852360E+02  0.29999977232E+02 0.  0.
        -12    1    1    2    0    0 -0.10483397686E+02  0.66378372623E+01  0.38719552894E+02  0.40659147640E+02  0.00000000000E+00 0.  1.
         11    1    3    3    0    0 -0.10888073055E+01  0.26471402021E+01  0.31255769990E+01  0.42381699394E+01  0.51100000000E-03 0. -1.
        -11    1    3    3    0    0  0.63783661495E+01 -0.60705127927E+01 -0.79936969562E+01  0.11892597344E+02  0.51100000000E-03 0.  1.
         12    1    3    3    0    0  0.51938388423E+01 -0.32144646717E+01 -0.33851432936E+02  0.34398085076E+02  0.00000000000E+00 0. -1.
</event>
<event>
 7    1  0.5138511E-013  0.5052886E+02  0.7816164E-02  0.1300439E+00
        -11   -1    0    0    0    0  0.00000000000E+00  0.00000000000E+00  0.45593999997E+02  0.45594000000E+02  0.51100000000E-03 0.  1.
         11   -1    0    0    0    0 -0.00000000000E+00 -0.00000000000E+00 -0.45593999997E+02  0.45594000000E+02  0.51100000000E-03 0. -1.
    9900012    2    1    2    0    0 -0.19507240755E+02  0.20793642973E+02 -0.28987200314E+02  0.50528858199E+02  0.29999994980E+02 0.  0.
        -12    1    1    2    0    0  0.19507240755E+02 -0.20793642973E+02  0.28987200314E+02  0.40659141801E+02  0.00000000000E+00 0.  1.
         11    1    3    3    0    0 -0.11357652164E+02  0.14785535263E+02 -0.72293915149E+01  0.19996810186E+02  0.51100000000E-03 0. -1.
        -11    1    3    3    0    0  0.35174134644E+01 -0.28626899909E+01 -0.29802108063E+00  0.45448881493E+01  0.51100000000E-03 0.  1.
         12    1    3    3    0    0 -0.11667002056E+02  0.88707977011E+01 -0.21459787719E+02  0.25987159863E+02  0.00000000000E+00 0. -1.
</event>
<event>
 7    1  0.5138511E-013  0.5052887E+02  0.7816164E-02  0.1300439E+00
        -11   -1    0    0    0    0  0.00000000000E+00  0.00000000000E+00  0.45593999997E+02  0.45594000000E+02  0.51100000000E-03 0.  1.
         11   -1    0    0    0    0 -0.00000000000E+00 -0.00000000000E+00 -0.45593999997E+02  0.45594000000E+02  0.51100000000E-03 0. -1.
    9900012    2    1    2    0    0  0.32231675718E+02  0.15874154160E+02 -0.19034059345E+02  0.50528866893E+02  0.30000021408E+02 0.  0.
        -12    1    1    2    0    0 -0.32231675718E+02 -0.15874154160E+02  0.19034059345E+02  0.40659133107E+02  0.00000000000E+00 0.  1.
         11    1    3    3    0    0  0.39012267572E+01 -0.81918916241E+01 -0.49706659927E+01  0.10345732418E+02  0.51100000000E-03 0. -1.
        -11    1    3    3    0    0  0.58716893910E+01  0.38091027606E+01 -0.44288270979E+00  0.70129983246E+01  0.51100000000E-03 0.  1.
         12    1    3    3    0    0  0.22458759569E+02  0.20256943024E+02 -0.13620510643E+02  0.33170136150E+02  0.00000000000E+00 0. -1.
</event>
<event>
 7    1  0.5138511E-013  0.5052885E+02  0.7816164E-02  0.1300439E+00
        -11   -1    0    0    0    0  0.00000000000E+00  0.00000000000E+00  0.45593999997E+02  0.45594000000E+02  0.51100000000E-03 0.  1.
         11   -1    0    0    0    0 -0.00000000000E+00 -0.00000000000E+00 -0.45593999997E+02  0.45594000000E+02  0.51100000000E-03 0. -1.
    9900012    2    1    2    0    0  0.22964583749E+02 -0.32862731236E+02  0.67701567762E+01  0.50528853011E+02  0.29999979212E+02 0.  0.
        -12    1    1    2    0    0 -0.22964583749E+02  0.32862731236E+02 -0.67701567762E+01  0.40659146989E+02  0.00000000000E+00 0.  1.
         11    1    3    3    0    0 -0.25008026405E+01 -0.12167431736E+01 -0.64034750049E+01  0.69813301166E+01  0.51100000000E-03 0. -1.
        -11    1    3    3    0    0  0.75489003871E+01 -0.42762680396E+01  0.41251926990E+01  0.96067466120E+01  0.51100000000E-03 0.  1.
        -12    1    3    3    0    0  0.17916486003E+02 -0.27369720023E+02  0.90484390821E+01  0.33940776282E+02  0.00000000000E+00 0.  1.
</event>
<event>
 7    1  0.5138511E-013  0.5052891E+02  0.7816164E-02  0.1300439E+00
        -11   -1    0    0    0    0  0.00000000000E+00  0.00000000000E+00  0.45593999997E+02  0.45594000000E+02  0.51100000000E-03 0.  1.
         11   -1    0    0    0    0 -0.00000000000E+00 -0.00000000000E+00 -0.45593999997E+02  0.45594000000E+02  0.51100000000E-03 0. -1.
    9900012    2    1    2    0    0 -0.21743078894E+02 -0.41260041908E+01  0.34108297834E+02  0.50528912805E+02  0.30000160962E+02 0.  0.
        -12    1    1    2    0    0  0.21743078894E+02  0.41260041908E+01 -0.34108297834E+02  0.40659087195E+02  0.00000000000E+00 0.  1.
         11    1    3    3    0    0 -0.11897537254E+02 -0.27799739553E+01  0.13419035019E+02  0.18148006751E+02  0.51100000000E-03 0. -1.
        -11    1    3    3    0    0 -0.15422343294E+02 -0.25781272482E+01  0.62250203693E+01  0.16829922508E+02  0.51100000000E-03 0.  1.
        -12    1    3    3    0    0  0.55768016536E+01  0.12320970127E+01  0.14464242445E+02  0.15550983546E+02  0.00000000000E+00 0.  1.
</event>
<event>
 7    1  0.5138511E-013  0.5052886E+02  0.7816164E-02  0.1300439E+00
        -11   -1    0    0    0    0  0.00000000000E+00  0.00000000000E+00  0.45593999997E+02  0.45594000000E+02  0.51100000000E-03 0.  1.
         11   -1    0    0    0    0 -0.00000000000E+00 -0.00000000000E+00 -0.45593999997E+02  0.45594000000E+02  0.51100000000E-03 0. -1.
    9900012    2    1    2    0    0 -0.67918567024E+01 -0.51851510820E+01 -0.39751107368E+02  0.50528860238E+02  0.30000001179E+02 0.  0.
        -12    1    1    2    0    0  0.67918567024E+01  0.51851510820E+01  0.39751107368E+02  0.40659139762E+02  0.00000000000E+00 0.  1.
         11    1    3    3    0    0  0.30185206054E+01 -0.25634545721E+01 -0.34217269240E+02  0.34445671434E+02  0.51100000000E-03 0. -1.
        -11    1    3    3    0    0 -0.50359190219E+01 -0.65700675418E+01 -0.54048296944E+01  0.98862759513E+01  0.51100000000E-03 0.  1.
        -12    1    3    3    0    0 -0.47744582859E+01  0.39483710320E+01 -0.12900843348E+00  0.61969128528E+01  0.00000000000E+00 0.  1.
</event>
<event>
 7    1  0.5138511E-013  0.5052886E+02  0.7816164E-02  0.1300439E+00
        -11   -1    0    0    0    0  0.00000000000E+00  0.00000000000E+00  0.45593999997E+02  0.45594000000E+02  0.51100000000E-03 0.  1.
         11   -1    0    0    0    0 -0.00000000000E+00 -0.00000000000E+00 -0.45593999997E+02  0.45594000000E+02  0.51100000000E-03 0. -1.
    9900012    2    1    2    0    0  0.17936352422E+01  0.38399931594E+02 -0.13243619594E+02  0.50528864080E+02  0.30000012859E+02 0.  0.
        -12    1    1    2    0    0 -0.17936352422E+01 -0.38399931594E+02  0.13243619594E+02  0.40659135920E+02  0.00000000000E+00 0.  1.
         11    1    3    3    0    0 -0.92931562914E+01  0.81305105640E+01 -0.35514576405E+01  0.12848377622E+02  0.51100000000E-03 0. -1.
        -11    1    3    3    0    0  0.31728128379E+01  0.27808400374E+02 -0.60899631874E+01  0.28643699562E+02  0.51100000000E-03 0.  1.
        -12    1    3    3    0    0  0.79139786957E+01  0.24610206551E+01 -0.36021987666E+01  0.90367868966E+01  0.00000000000E+00 0.  1.
</event>
<event>
 7    1  0.5138511E-013  0.5052886E+02  0.7816164E-02  0.1300439E+00
        -11   -1    0    0    0    0  0.00000000000E+00  0.00000000000E+00  0.45593999997E+02  0.45594000000E+02  0.51100000000E-03 0.  1.
         11   -1    0    0    0    0 -0.00000000000E+00 -0.00000000000E+00 -0.45593999997E+02  0.45594000000E+02  0.51100000000E-03 0. -1.
    9900012    2    1    2    0    0 -0.70588559887E+01 -0.12214430290E+01 -0.40023075639E+02  0.50528856446E+02  0.29999989652E+02 0.  0.
        -12    1    1    2    0    0  0.70588559887E+01  0.12214430290E+01  0.40023075639E+02  0.40659143554E+02  0.00000000000E+00 0.  1.
         11    1    3    3    0    0 -0.11684003997E+02 -0.42311460652E+01 -0.32148465097E+02  0.34466539640E+02  0.51100000000E-03 0. -1.
        -11    1    3    3    0    0  0.87265552241E+01  0.41045508397E+01 -0.45127227852E+01  0.10647289367E+02  0.51100000000E-03 0.  1.
         12    1    3    3    0    0 -0.41014072156E+01 -0.10948478034E+01 -0.33618877573E+01  0.54150274380E+01  0.00000000000E+00 0. -1.
</event>
<event>
 7    1  0.5138511E-013  0.5052886E+02  0.7816164E-02  0.1300439E+00
        -11   -1    0    0    0    0  0.00000000000E+00  0.00000000000E+00  0.45593999997E+02  0.45594000000E+02  0.51100000000E-03 0. -1.
         11   -1    0    0    0    0 -0.00000000000E+00 -0.00000000000E+00 -0.45593999997E+02  0.45594000000E+02  0.51100000000E-03 0.  1.
    9900012    2    1    2    0    0 -0.25149353627E+02 -0.26036217953E+02  0.18514625673E+02  0.50528855924E+02  0.29999988066E+02 0.  0.
        -12    1    1    2    0    0  0.25149353627E+02  0.26036217953E+02 -0.18514625673E+02  0.40659144076E+02  0.00000000000E+00 0.  1.
         11    1    3    3    0    0  0.18786868713E+01 -0.67798363683E+01  0.83307357705E+01  0.10903981121E+02  0.51100000000E-03 0. -1.
        -11    1    3    3    0    0 -0.99158146615E+01 -0.32258733654E+01  0.12248910351E+02  0.16086188002E+02  0.51100000000E-03 0.  1.
        -12    1    3    3    0    0 -0.17112225837E+02 -0.16030508220E+02 -0.20650204485E+01  0.23538686801E+02  0.00000000000E+00 0.  1.
</event>
<event>
 7    1  0.5138511E-013  0.5052887E+02  0.7816164E-02  0.1300439E+00
        -11   -1    0    0    0    0  0.00000000000E+00  0.00000000000E+00  0.45593999997E+02  0.45594000000E+02  0.51100000000E-03 0.  1.
         11   -1    0    0    0    0 -0.00000000000E+00 -0.00000000000E+00 -0.45593999997E+02  0.45594000000E+02  0.51100000000E-03 0. -1.
    9900012    2    1    2    0    0 -0.48136493997E+01  0.22690490883E+01 -0.40309371059E+02  0.50528865731E+02  0.30000017877E+02 0.  0.
        -12    1    1    2    0    0  0.48136493997E+01 -0.22690490883E+01  0.40309371059E+02  0.40659134269E+02  0.00000000000E+00 0.  1.
         11    1    3    3    0    0  0.51616819553E+01 -0.47122033721E+01 -0.26087000705E+02  0.27007025517E+02  0.51100000000E-03 0. -1.
        -11    1    3    3    0    0 -0.67712910950E-01  0.80489557679E-01 -0.11033273785E+02  0.11033775160E+02  0.51100000000E-03 0.  1.
        -12    1    3    3    0    0 -0.99076184440E+01  0.69007629028E+01 -0.31890965686E+01  0.12488065054E+02  0.00000000000E+00 0.  1.
</event>
<event>
 7    1  0.5138511E-013  0.5052884E+02  0.7816164E-02  0.1300439E+00
        -11   -1    0    0    0    0  0.00000000000E+00  0.00000000000E+00  0.45593999997E+02  0.45594000000E+02  0.51100000000E-03 0.  1.
         11   -1    0    0    0    0 -0.00000000000E+00 -0.00000000000E+00 -0.45593999997E+02  0.45594000000E+02  0.51100000000E-03 0. -1.
    9900012    2    1    2    0    0 -0.12000106288E+02  0.14581137169E+02 -0.36007706006E+02  0.50528843542E+02  0.29999950430E+02 0.  0.
        -12    1    1    2    0    0  0.12000106288E+02 -0.14581137169E+02  0.36007706006E+02  0.40659156458E+02  0.00000000000E+00 0.  1.
         11    1    3    3    0    0  0.30888800251E+01  0.30224859069E+01 -0.22090983358E+02  0.22509734491E+02  0.51100000000E-03 0. -1.
        -11    1    3    3    0    0 -0.44784403742E+01 -0.34160763237E+01 -0.13987332341E+01  0.58036592384E+01  0.51100000000E-03 0.  1.
         12    1    3    3    0    0 -0.10610545939E+02  0.14974727586E+02 -0.12517989414E+02  0.22215449812E+02  0.00000000000E+00 0. -1.
</event>
<event>
 7    1  0.5138511E-013  0.5052886E+02  0.7816164E-02  0.1300439E+00
        -11   -1    0    0    0    0  0.00000000000E+00  0.00000000000E+00  0.45593999997E+02  0.45594000000E+02  0.51100000000E-03 0.  1.
         11   -1    0    0    0    0 -0.00000000000E+00 -0.00000000000E+00 -0.45593999997E+02  0.45594000000E+02  0.51100000000E-03 0. -1.
    9900012    2    1    2    0    0  0.14085246617E+02  0.14671866671E+02 -0.35206648455E+02  0.50528856634E+02  0.29999990224E+02 0.  0.
        -12    1    1    2    0    0 -0.14085246617E+02 -0.14671866671E+02  0.35206648455E+02  0.40659143366E+02  0.00000000000E+00 0.  1.
         11    1    3    3    0    0  0.82889498598E+01 -0.15398423078E+01 -0.57278572520E+01  0.10192455694E+02  0.51100000000E-03 0. -1.
        -11    1    3    3    0    0  0.61709464149E+00  0.99746248170E+01 -0.24223342031E+00  0.99966305988E+01  0.51100000000E-03 0.  1.
         12    1    3    3    0    0  0.51792021153E+01  0.62370841621E+01 -0.29236557782E+02  0.30339770341E+02  0.00000000000E+00 0. -1.
</event>
<event>
 7    1  0.5138511E-013  0.5052886E+02  0.7816164E-02  0.1300439E+00
        -11   -1    0    0    0    0  0.00000000000E+00  0.00000000000E+00  0.45593999997E+02  0.45594000000E+02  0.51100000000E-03 0.  1.
         11   -1    0    0    0    0 -0.00000000000E+00 -0.00000000000E+00 -0.45593999997E+02  0.45594000000E+02  0.51100000000E-03 0. -1.
    9900012    2    1    2    0    0  0.27541571149E+02  0.16390926392E+02 -0.25019295763E+02  0.50528858718E+02  0.29999996560E+02 0.  0.
        -12    1    1    2    0    0 -0.27541571149E+02 -0.16390926392E+02  0.25019295763E+02  0.40659141282E+02  0.00000000000E+00 0.  1.
         11    1    3    3    0    0  0.11337563010E+02  0.10028904632E+02  0.39179801668E-01  0.15136736717E+02  0.51100000000E-03 0. -1.
        -11    1    3    3    0    0  0.16703661712E+02 -0.18017541448E+00 -0.11354045483E+02  0.20197998090E+02  0.51100000000E-03 0.  1.
        -12    1    3    3    0    0 -0.49965357368E+00  0.65421971747E+01 -0.13704430081E+02  0.15194123911E+02  0.00000000000E+00 0.  1.
</event>
<event>
 7    1  0.5138511E-013  0.5052886E+02  0.7816164E-02  0.1300439E+00
        -11   -1    0    0    0    0  0.00000000000E+00  0.00000000000E+00  0.45593999997E+02  0.45594000000E+02  0.51100000000E-03 0. -1.
         11   -1    0    0    0    0 -0.00000000000E+00 -0.00000000000E+00 -0.45593999997E+02  0.45594000000E+02  0.51100000000E-03 0.  1.
    9900012    2    1    2    0    0 -0.30469756626E+02  0.26858965535E+02  0.18317327822E+01  0.50528863961E+02  0.30000012496E+02 0.  0.
        -12    1    1    2    0    0  0.30469756626E+02 -0.26858965535E+02 -0.18317327822E+01  0.40659136039E+02  0.00000000000E+00 0.  1.
         11    1    3    3    0    0 -0.72497900989E+01  0.10197784847E+02  0.86727916599E+01  0.15224046364E+02  0.51100000000E-03 0. -1.
        -11    1    3    3    0    0 -0.11443338158E+02  0.15950237308E+02 -0.11348722251E+02  0.22674954363E+02  0.51100000000E-03 0.  1.
         12    1    3    3    0    0 -0.11776628368E+02  0.71094338063E+00  0.45076633732E+01  0.12629863234E+02  0.00000000000E+00 0. -1.
</event>
<event>
 7    1  0.5138511E-013  0.5052886E+02  0.7816164E-02  0.1300439E+00
        -11   -1    0    0    0    0  0.00000000000E+00  0.00000000000E+00  0.45593999997E+02  0.45594000000E+02  0.51100000000E-03 0.  1.
         11   -1    0    0    0    0 -0.00000000000E+00 -0.00000000000E+00 -0.45593999997E+02  0.45594000000E+02  0.51100000000E-03 0. -1.
    9900012    2    1    2    0    0  0.25015403317E+02 -0.78555457341E+01 -0.31075483158E+02  0.50528860125E+02  0.30000000836E+02 0.  0.
        -12    1    1    2    0    0 -0.25015403317E+02  0.78555457341E+01  0.31075483158E+02  0.40659139875E+02  0.00000000000E+00 0.  1.
         11    1    3    3    0    0  0.10388895140E+02 -0.43229810846E+01 -0.15810733505E+02  0.19406097029E+02  0.51100000000E-03 0. -1.
        -11    1    3    3    0    0  0.16362270995E+01  0.46738517373E+01 -0.14955849853E+02  0.15754350964E+02  0.51100000000E-03 0.  1.
         12    1    3    3    0    0  0.12990281077E+02 -0.82064163868E+01 -0.30889979977E+00  0.15368412132E+02  0.00000000000E+00 0. -1.
</event>
<event>
 7    1  0.5138511E-013  0.5052886E+02  0.7816164E-02  0.1300439E+00
        -11   -1    0    0    0    0  0.00000000000E+00  0.00000000000E+00  0.45593999997E+02  0.45594000000E+02  0.51100000000E-03 0.  1.
         11   -1    0    0    0    0 -0.00000000000E+00 -0.00000000000E+00 -0.45593999997E+02  0.45594000000E+02  0.51100000000E-03 0. -1.
    9900012    2    1    2    0    0 -0.36110544464E+02 -0.11558941641E+02 -0.14682814045E+02  0.50528861032E+02  0.30000003592E+02 0.  0.
        -12    1    1    2    0    0  0.36110544464E+02  0.11558941641E+02  0.14682814045E+02  0.40659138968E+02  0.00000000000E+00 0.  1.
         11    1    3    3    0    0 -0.14462969200E+02  0.84753839142E+00  0.40097372316E+00  0.14493328796E+02  0.51100000000E-03 0. -1.
        -11    1    3    3    0    0  0.21068569797E+00  0.41857280509E+01  0.88738884062E+00  0.42839429262E+01  0.51100000000E-03 0.  1.
         12    1    3    3    0    0 -0.21858260962E+02 -0.16592208084E+02 -0.15971176609E+02  0.31751589309E+02  0.00000000000E+00 0. -1.
</event>
<event>
 7    1  0.5138511E-013  0.5052886E+02  0.7816164E-02  0.1300439E+00
        -11   -1    0    0    0    0  0.00000000000E+00  0.00000000000E+00  0.45593999997E+02  0.45594000000E+02  0.51100000000E-03 0.  1.
         11   -1    0    0    0    0 -0.00000000000E+00 -0.00000000000E+00 -0.45593999997E+02  0.45594000000E+02  0.51100000000E-03 0. -1.
    9900012    2    1    2    0    0 -0.33376602468E+02 -0.22189867140E+02 -0.68394346333E+01  0.50528860042E+02  0.30000000583E+02 0.  0.
        -12    1    1    2    0    0  0.33376602468E+02  0.22189867140E+02  0.68394346333E+01  0.40659139958E+02  0.00000000000E+00 0.  1.
         11    1    3    3    0    0 -0.43166422986E+01 -0.70191174207E+01  0.27718753994E+01  0.86939463761E+01  0.51100000000E-03 0. -1.
        -11    1    3    3    0    0 -0.13525004930E+02 -0.20070875963E+02 -0.35859582193E+01  0.24466812561E+02  0.51100000000E-03 0.  1.
         12    1    3    3    0    0 -0.15534955240E+02  0.49001262435E+01 -0.60253518134E+01  0.17368101105E+02  0.00000000000E+00 0. -1.
</event>
<event>
 7    1  0.5138511E-013  0.5052884E+02  0.7816164E-02  0.1300439E+00
        -11   -1    0    0    0    0  0.00000000000E+00  0.00000000000E+00  0.45593999997E+02  0.45594000000E+02  0.51100000000E-03 0. -1.
         11   -1    0    0    0    0 -0.00000000000E+00 -0.00000000000E+00 -0.45593999997E+02  0.45594000000E+02  0.51100000000E-03 0.  1.
    9900012    2    1    2    0    0  0.36222364651E+02 -0.89371621234E+01 -0.16162764162E+02  0.50528837280E+02  0.29999931396E+02 0.  0.
        -12    1    1    2    0    0 -0.36222364651E+02  0.89371621234E+01  0.16162764162E+02  0.40659162720E+02  0.00000000000E+00 0.  1.
         11    1    3    3    0    0  0.14576818692E+02 -0.51428910308E+01 -0.86504649844E+01  0.17713371109E+02  0.51100000000E-03 0. -1.
        -11    1    3    3    0    0  0.12690753589E+01 -0.89459730788E+01  0.27245852977E+01  0.94373911595E+01  0.51100000000E-03 0.  1.
         12    1    3    3    0    0  0.20376470601E+02  0.51517019861E+01 -0.10236884475E+02  0.23378075012E+02  0.00000000000E+00 0. -1.
</event>
<event>
 7    1  0.5138511E-013  0.5052887E+02  0.7816164E-02  0.1300439E+00
        -11   -1    0    0    0    0  0.00000000000E+00  0.00000000000E+00  0.45593999997E+02  0.45594000000E+02  0.51100000000E-03 0.  1.
         11   -1    0    0    0    0 -0.00000000000E+00 -0.00000000000E+00 -0.45593999997E+02  0.45594000000E+02  0.51100000000E-03 0. -1.
    9900012    2    1    2    0    0  0.28763884335E+02 -0.28346370030E+02  0.47209163141E+01  0.50528870807E+02  0.30000033304E+02 0.  0.
        -12    1    1    2    0    0 -0.28763884335E+02  0.28346370030E+02 -0.47209163141E+01  0.40659129193E+02  0.00000000000E+00 0.  1.
         11    1    3    3    0    0  0.69707352208E+00 -0.57072540839E+01  0.46731662711E+01  0.74092606873E+01  0.51100000000E-03 0. -1.
        -11    1    3    3    0    0  0.24928206342E+01 -0.14843235686E+02 -0.51020016487E+01  0.15892332158E+02  0.51100000000E-03 0.  1.
         12    1    3    3    0    0  0.25573990178E+02 -0.77958802601E+01  0.51497516917E+01  0.27227277961E+02  0.00000000000E+00 0. -1.
</event>
<event>
 7    1  0.5138511E-013  0.5052886E+02  0.7816164E-02  0.1300439E+00
        -11   -1    0    0    0    0  0.00000000000E+00  0.00000000000E+00  0.45593999997E+02  0.45594000000E+02  0.51100000000E-03 0.  1.
         11   -1    0    0    0    0 -0.00000000000E+00 -0.00000000000E+00 -0.45593999997E+02  0.45594000000E+02  0.51100000000E-03 0. -1.
    9900012    2    1    2    0    0 -0.72663477764E+01  0.25568011570E+02 -0.30767563969E+02  0.50528855663E+02  0.29999987272E+02 0.  0.
        -12    1    1    2    0    0  0.72663477764E+01 -0.25568011570E+02  0.30767563969E+02  0.40659144337E+02  0.00000000000E+00 0.  1.
         11    1    3    3    0    0  0.71458463063E+01  0.38428472228E+01 -0.76970732816E+01  0.11183717252E+02  0.51100000000E-03 0.  1.
        -11    1    3    3    0    0  0.37853291337E+00  0.15024269663E+02 -0.14916985203E+02  0.21175183916E+02  0.51100000000E-03 0. -1.
        -12    1    3    3    0    0 -0.14790726996E+02  0.67008946843E+01 -0.81535054848E+01  0.18169954495E+02  0.00000000000E+00 0.  1.
</event>
<event>
 7    1  0.5138511E-013  0.5052886E+02  0.7816164E-02  0.1300439E+00
        -11   -1    0    0    0    0  0.00000000000E+00  0.00000000000E+00  0.45593999997E+02  0.45594000000E+02  0.51100000000E-03 0. -1.
         11   -1    0    0    0    0 -0.00000000000E+00 -0.00000000000E+00 -0.45593999997E+02  0.45594000000E+02  0.51100000000E-03 0.  1.
    9900012    2    1    2    0    0  0.27112105818E+02 -0.30290701383E+02  0.75681640338E+00  0.50528860275E+02  0.30000001292E+02 0.  0.
        -12    1    1    2    0    0 -0.27112105818E+02  0.30290701383E+02 -0.75681640338E+00  0.40659139725E+02  0.00000000000E+00 0.  1.
         11    1    3    3    0    0 -0.35640020931E+01  0.24319084072E+01  0.20735344756E+01  0.47870486632E+01  0.51100000000E-03 0.  1.
        -11    1    3    3    0    0  0.15281372182E+02 -0.18601409518E+02  0.34365347567E+01  0.24317535715E+02  0.51100000000E-03 0. -1.
        -12    1    3    3    0    0  0.15394735728E+02 -0.14121200272E+02 -0.47532528289E+01  0.21424275897E+02  0.00000000000E+00 0.  1.
</event>
<event>
 7    1  0.5138511E-013  0.5052887E+02  0.7816164E-02  0.1300439E+00
        -11   -1    0    0    0    0  0.00000000000E+00  0.00000000000E+00  0.45593999997E+02  0.45594000000E+02  0.51100000000E-03 0. -1.
         11   -1    0    0    0    0 -0.00000000000E+00 -0.00000000000E+00 -0.45593999997E+02  0.45594000000E+02  0.51100000000E-03 0.  1.
    9900012    2    1    2    0    0  0.39924010045E+01  0.93158269928E+01  0.39375637586E+02  0.50528871460E+02  0.30000035290E+02 0.  0.
        -12    1    1    2    0    0 -0.39924010045E+01 -0.93158269928E+01 -0.39375637586E+02  0.40659128540E+02  0.00000000000E+00 0.  1.
         11    1    3    3    0    0 -0.29024268851E+01  0.10719648796E+02  0.32836429684E+02  0.34663613008E+02  0.51100000000E-03 0. -1.
        -11    1    3    3    0    0 -0.32814202195E+01 -0.10284036624E+01  0.41793309997E+01  0.54122214123E+01  0.51100000000E-03 0.  1.
         12    1    3    3    0    0  0.10176248109E+02 -0.37541814064E+00  0.23598769018E+01  0.10453037040E+02  0.00000000000E+00 0. -1.
</event>
<event>
 7    1  0.5138511E-013  0.5052886E+02  0.7816164E-02  0.1300439E+00
        -11   -1    0    0    0    0  0.00000000000E+00  0.00000000000E+00  0.45593999997E+02  0.45594000000E+02  0.51100000000E-03 0.  1.
         11   -1    0    0    0    0 -0.00000000000E+00 -0.00000000000E+00 -0.45593999997E+02  0.45594000000E+02  0.51100000000E-03 0. -1.
    9900012    2    1    2    0    0 -0.35461170333E+02  0.19803759705E+02  0.18659775023E+01  0.50528863611E+02  0.30000011431E+02 0.  0.
        -12    1    1    2    0    0  0.35461170333E+02 -0.19803759705E+02 -0.18659775023E+01  0.40659136389E+02  0.00000000000E+00 0.  1.
         11    1    3    3    0    0 -0.15211377420E+01 -0.10402941617E+01 -0.10909906297E+01  0.21415725036E+01  0.51100000000E-03 0.  1.
        -11    1    3    3    0    0 -0.38346299560E+02  0.21288923067E+02  0.29501142065E+01  0.43958618148E+02  0.51100000000E-03 0. -1.
         12    1    3    3    0    0  0.44062669690E+01 -0.44486920051E+00  0.68539255388E-02  0.44286729597E+01  0.00000000000E+00 0. -1.
</event>
<event>
 7    1  0.5138511E-013  0.5052889E+02  0.7816164E-02  0.1300439E+00
        -11   -1    0    0    0    0  0.00000000000E+00  0.00000000000E+00  0.45593999997E+02  0.45594000000E+02  0.51100000000E-03 0. -1.
         11   -1    0    0    0    0 -0.00000000000E+00 -0.00000000000E+00 -0.45593999997E+02  0.45594000000E+02  0.51100000000E-03 0.  1.
    9900012    2    1    2    0    0  0.38506923266E+02 -0.96468602653E+01  0.87930868544E+01  0.50528887506E+02  0.30000084063E+02 0.  0.
        -12    1    1    2    0    0 -0.38506923266E+02  0.96468602653E+01 -0.87930868544E+01  0.40659112494E+02  0.00000000000E+00 0.  1.
         11    1    3    3    0    0  0.86161117618E+00 -0.14477727089E+01 -0.18831577114E+01  0.25267969572E+01  0.51100000000E-03 0. -1.
        -11    1    3    3    0    0  0.51930737523E+01  0.71408795969E+01 -0.33779981610E+01  0.94536261959E+01  0.51100000000E-03 0.  1.
         12    1    3    3    0    0  0.32452238337E+02 -0.15339967153E+02  0.14054242727E+02  0.38548464353E+02  0.00000000000E+00 0. -1.
</event>
<event>
 7    1  0.5138511E-013  0.5052887E+02  0.7816164E-02  0.1300439E+00
        -11   -1    0    0    0    0  0.00000000000E+00  0.00000000000E+00  0.45593999997E+02  0.45594000000E+02  0.51100000000E-03 0.  1.
         11   -1    0    0    0    0 -0.00000000000E+00 -0.00000000000E+00 -0.45593999997E+02  0.45594000000E+02  0.51100000000E-03 0. -1.
    9900012    2    1    2    0    0 -0.26569992828E+02  0.26530089756E+02 -0.15599838131E+02  0.50528866573E+02  0.30000020436E+02 0.  0.
        -12    1    1    2    0    0  0.26569992828E+02 -0.26530089756E+02  0.15599838131E+02  0.40659133427E+02  0.00000000000E+00 0.  1.
         11    1    3    3    0    0  0.95008602458E+00 -0.38091179426E+01 -0.39058897701E+01  0.55378712617E+01  0.51100000000E-03 0.  1.
        -11    1    3    3    0    0 -0.11234989153E+02  0.22636462234E+02 -0.87133243897E+01  0.26731188262E+02  0.51100000000E-03 0. -1.
         12    1    3    3    0    0 -0.16285089700E+02  0.77027454642E+01 -0.29806239708E+01  0.18259807049E+02  0.00000000000E+00 0. -1.
</event>
<event>
 7    1  0.5138511E-013  0.5052886E+02  0.7816164E-02  0.1300439E+00
        -11   -1    0    0    0    0  0.00000000000E+00  0.00000000000E+00  0.45593999997E+02  0.45594000000E+02  0.51100000000E-03 0. -1.
         11   -1    0    0    0    0 -0.00000000000E+00 -0.00000000000E+00 -0.45593999997E+02  0.45594000000E+02  0.51100000000E-03 0.  1.
    9900012    2    1    2    0    0  0.31433945017E+02 -0.38368901062E+01  0.25501984801E+02  0.50528857685E+02  0.29999993418E+02 0.  0.
        -12    1    1    2    0    0 -0.31433945017E+02  0.38368901062E+01 -0.25501984801E+02  0.40659142315E+02  0.00000000000E+00 0.  1.
         11    1    3    3    0    0  0.15761816652E+02  0.35780713888E+01  0.92848990967E+01  0.18639925175E+02  0.51100000000E-03 0. -1.
        -11    1    3    3    0    0  0.12223855422E+02  0.59901252913E+01  0.82874376842E+01  0.15936934022E+02  0.51100000000E-03 0.  1.
         12    1    3    3    0    0  0.34482729436E+01 -0.13405086786E+02  0.79296480199E+01  0.15951998488E+02  0.00000000000E+00 0. -1.
</event>
<event>
 7    1  0.5138511E-013  0.5052887E+02  0.7816164E-02  0.1300439E+00
        -11   -1    0    0    0    0  0.00000000000E+00  0.00000000000E+00  0.45593999997E+02  0.45594000000E+02  0.51100000000E-03 0.  1.
         11   -1    0    0    0    0 -0.00000000000E+00 -0.00000000000E+00 -0.45593999997E+02  0.45594000000E+02  0.51100000000E-03 0. -1.
    9900012    2    1    2    0    0  0.37671032894E+02 -0.15298406507E+02 -0.13112748523E+00  0.50528866274E+02  0.30000019525E+02 0.  0.
        -12    1    1    2    0    0 -0.37671032894E+02  0.15298406507E+02  0.13112748523E+00  0.40659133726E+02  0.00000000000E+00 0.  1.
         11    1    3    3    0    0  0.34281861622E+02 -0.18248380660E+02 -0.19598035306E+00  0.38836681649E+02  0.51100000000E-03 0. -1.
        -11    1    3    3    0    0  0.35396118674E+01  0.40184490066E+00 -0.49303072488E+01  0.60826196104E+01  0.51100000000E-03 0.  1.
        -12    1    3    3    0    0 -0.15044059533E+00  0.25481292517E+01  0.49951601166E+01  0.56095650140E+01  0.00000000000E+00 0.  1.
</event>
<event>
 7    1  0.5138511E-013  0.5052885E+02  0.7816164E-02  0.1300439E+00
        -11   -1    0    0    0    0  0.00000000000E+00  0.00000000000E+00  0.45593999997E+02  0.45594000000E+02  0.51100000000E-03 0. -1.
         11   -1    0    0    0    0 -0.00000000000E+00 -0.00000000000E+00 -0.45593999997E+02  0.45594000000E+02  0.51100000000E-03 0.  1.
    9900012    2    1    2    0    0  0.22062402970E+02 -0.14832967941E+02  0.30763619420E+02  0.50528845526E+02  0.29999956461E+02 0.  0.
        -12    1    1    2    0    0 -0.22062402970E+02  0.14832967941E+02 -0.30763619420E+02  0.40659154474E+02  0.00000000000E+00 0.  1.
         11    1    3    3    0    0  0.80328752422E+01 -0.13046681580E+01 -0.26296853342E+01  0.85524551374E+01  0.51100000000E-03 0. -1.
        -11    1    3    3    0    0  0.66357007969E+01 -0.10133069665E+02  0.62299441243E+01  0.13620713269E+02  0.51100000000E-03 0.  1.
         12    1    3    3    0    0  0.73938269306E+01 -0.33952301178E+01  0.27163360629E+02  0.28355677120E+02  0.00000000000E+00 0. -1.
</event>
<event>
 7    1  0.5138511E-013  0.5052886E+02  0.7816164E-02  0.1300439E+00
        -11   -1    0    0    0    0  0.00000000000E+00  0.00000000000E+00  0.45593999997E+02  0.45594000000E+02  0.51100000000E-03 0.  1.
         11   -1    0    0    0    0 -0.00000000000E+00 -0.00000000000E+00 -0.45593999997E+02  0.45594000000E+02  0.51100000000E-03 0. -1.
    9900012    2    1    2    0    0 -0.23689879119E+02  0.23606499579E+02 -0.23123334003E+02  0.50528858710E+02  0.29999996534E+02 0.  0.
        -12    1    1    2    0    0  0.23689879119E+02 -0.23606499579E+02  0.23123334003E+02  0.40659141290E+02  0.00000000000E+00 0.  1.
         11    1    3    3    0    0 -0.28325053794E+01  0.10080570458E+02  0.17449061049E+01  0.10615351386E+02  0.51100000000E-03 0. -1.
        -11    1    3    3    0    0  0.34716947519E+01  0.57320511224E+00 -0.40987287322E+01  0.54019261410E+01  0.51100000000E-03 0.  1.
         12    1    3    3    0    0 -0.24329068491E+02  0.12952724009E+02 -0.20769511376E+02  0.34511581183E+02  0.00000000000E+00 0. -1.
</event>
<event>
 7    1  0.5138511E-013  0.5052885E+02  0.7816164E-02  0.1300439E+00
        -11   -1    0    0    0    0  0.00000000000E+00  0.00000000000E+00  0.45593999997E+02  0.45594000000E+02  0.51100000000E-03 0.  1.
         11   -1    0    0    0    0 -0.00000000000E+00 -0.00000000000E+00 -0.45593999997E+02  0.45594000000E+02  0.51100000000E-03 0. -1.
    9900012    2    1    2    0    0 -0.31998288114E+02 -0.16713576908E+02 -0.18706469619E+02  0.50528854646E+02  0.29999984182E+02 0.  0.
        -12    1    1    2    0    0  0.31998288114E+02  0.16713576908E+02  0.18706469619E+02  0.40659145354E+02  0.00000000000E+00 0.  1.
         11    1    3    3    0    0 -0.15175766619E+02 -0.40876992929E+01 -0.78656040242E+01  0.17575007964E+02  0.51100000000E-03 0. -1.
        -11    1    3    3    0    0 -0.97061823582E+01 -0.11665294991E+02  0.46565126196E+01  0.15873632011E+02  0.51100000000E-03 0.  1.
         12    1    3    3    0    0 -0.71163391368E+01 -0.96058262438E+00 -0.15497378215E+02  0.17080214671E+02  0.00000000000E+00 0. -1.
</event>
<event>
 7    1  0.5138511E-013  0.5052885E+02  0.7816164E-02  0.1300439E+00
        -11   -1    0    0    0    0  0.00000000000E+00  0.00000000000E+00  0.45593999997E+02  0.45594000000E+02  0.51100000000E-03 0.  1.
         11   -1    0    0    0    0 -0.00000000000E+00 -0.00000000000E+00 -0.45593999997E+02  0.45594000000E+02  0.51100000000E-03 0. -1.
    9900012    2    1    2    0    0  0.40574635683E+02 -0.23868893107E+01  0.10806938739E+01  0.50528853420E+02  0.29999980454E+02 0.  0.
        -12    1    1    2    0    0 -0.40574635683E+02  0.23868893107E+01 -0.10806938739E+01  0.40659146580E+02  0.00000000000E+00 0.  1.
         11    1    3    3    0    0 -0.13300896526E+01  0.20625367577E+01  0.14525850863E+01  0.28518765848E+01  0.51100000000E-03 0.  1.
        -11    1    3    3    0    0  0.79534333854E+01 -0.98255670119E+01 -0.36207563730E+01  0.13149477050E+02  0.51100000000E-03 0. -1.
         12    1    3    3    0    0  0.33951291950E+02  0.53761409435E+01  0.32488651606E+01  0.34527499785E+02  0.00000000000E+00 0. -1.
</event>
<event>
 7    1  0.5138511E-013  0.5052886E+02  0.7816164E-02  0.1300439E+00
        -11   -1    0    0    0    0  0.00000000000E+00  0.00000000000E+00  0.45593999997E+02  0.45594000000E+02  0.51100000000E-03 0.  1.
         11   -1    0    0    0    0 -0.00000000000E+00 -0.00000000000E+00 -0.45593999997E+02  0.45594000000E+02  0.51100000000E-03 0. -1.
    9900012    2    1    2    0    0  0.11428067704E+02 -0.29449979261E+02 -0.25598112807E+02  0.50528863398E+02  0.30000010784E+02 0.  0.
        -12    1    1    2    0    0 -0.11428067704E+02  0.29449979261E+02  0.25598112807E+02  0.40659136602E+02  0.00000000000E+00 0.  1.
         11    1    3    3    0    0  0.11541299055E+02 -0.44957867541E+01 -0.13332520376E+02  0.18198070839E+02  0.51100000000E-03 0. -1.
        -11    1    3    3    0    0 -0.50292422484E+01 -0.51502156368E+01 -0.92238378835E+01  0.11700307016E+02  0.51100000000E-03 0.  1.
        -12    1    3    3    0    0  0.49160108982E+01 -0.19803976871E+02 -0.30417545471E+01  0.20630485544E+02  0.00000000000E+00 0.  1.
</event>
<event>
 7    1  0.5138511E-013  0.5052886E+02  0.7816164E-02  0.1300439E+00
        -11   -1    0    0    0    0  0.00000000000E+00  0.00000000000E+00  0.45593999997E+02  0.45594000000E+02  0.51100000000E-03 0. -1.
         11   -1    0    0    0    0 -0.00000000000E+00 -0.00000000000E+00 -0.45593999997E+02  0.45594000000E+02  0.51100000000E-03 0.  1.
    9900012    2    1    2    0    0  0.19164002019E+02 -0.20740164409E+02  0.29253247382E+02  0.50528857418E+02  0.29999992608E+02 0.  0.
        -12    1    1    2    0    0 -0.19164002019E+02  0.20740164409E+02 -0.29253247382E+02  0.40659142582E+02  0.00000000000E+00 0.  1.
         11    1    3    3    0    0  0.35274653541E+01  0.30346704176E+01  0.10444858340E+02  0.11434478666E+02  0.51100000000E-03 0. -1.
        -11    1    3    3    0    0 -0.31650020562E+00  0.46744733363E+00 -0.28357477231E+01  0.28913914989E+01  0.51100000000E-03 0.  1.
         12    1    3    3    0    0  0.15953036870E+02 -0.24242282160E+02  0.21644136766E+02  0.36202987253E+02  0.00000000000E+00 0. -1.
</event>
<event>
 7    1  0.5138511E-013  0.5052886E+02  0.7816164E-02  0.1300439E+00
        -11   -1    0    0    0    0  0.00000000000E+00  0.00000000000E+00  0.45593999997E+02  0.45594000000E+02  0.51100000000E-03 0. -1.
         11   -1    0    0    0    0 -0.00000000000E+00 -0.00000000000E+00 -0.45593999997E+02  0.45594000000E+02  0.51100000000E-03 0.  1.
    9900012    2    1    2    0    0 -0.13520762979E+02  0.19453783705E+02  0.33043983573E+02  0.50528861023E+02  0.30000003566E+02 0.  0.
        -12    1    1    2    0    0  0.13520762979E+02 -0.19453783705E+02 -0.33043983573E+02  0.40659138977E+02  0.00000000000E+00 0.  1.
         11    1    3    3    0    0 -0.17479113741E+01  0.16667972780E+02  0.10238142221E+02  0.19639146294E+02  0.51100000000E-03 0. -1.
        -11    1    3    3    0    0  0.11406653960E+01  0.55617783748E+01  0.13746878757E+02  0.14873169537E+02  0.51100000000E-03 0.  1.
        -12    1    3    3    0    0 -0.12913517001E+02 -0.27759674497E+01  0.90589625944E+01  0.16016545192E+02  0.00000000000E+00 0.  1.
</event>
<event>
 7    1  0.5138511E-013  0.5052887E+02  0.7816164E-02  0.1300439E+00
        -11   -1    0    0    0    0  0.00000000000E+00  0.00000000000E+00  0.45593999997E+02  0.45594000000E+02  0.51100000000E-03 0. -1.
         11   -1    0    0    0    0 -0.00000000000E+00 -0.00000000000E+00 -0.45593999997E+02  0.45594000000E+02  0.51100000000E-03 0.  1.
    9900012    2    1    2    0    0 -0.38018186166E+02  0.11052040037E+02 -0.92539280865E+01  0.50528865069E+02  0.30000015863E+02 0.  0.
        -12    1    1    2    0    0  0.38018186166E+02 -0.11052040037E+02  0.92539280865E+01  0.40659134931E+02  0.00000000000E+00 0.  1.
         11    1    3    3    0    0  0.15973011514E+01  0.21274195399E+01 -0.22223774201E+01  0.34664458059E+01  0.51100000000E-03 0. -1.
        -11    1    3    3    0    0 -0.94125967788E+01  0.51692308593E+01 -0.12132640127E+02  0.16202434462E+02  0.51100000000E-03 0.  1.
         12    1    3    3    0    0 -0.30202890538E+02  0.37553896384E+01  0.51010894605E+01  0.30859984801E+02  0.00000000000E+00 0. -1.
</event>
<event>
 7    1  0.5138511E-013  0.5052885E+02  0.7816164E-02  0.1300439E+00
        -11   -1    0    0    0    0  0.00000000000E+00  0.00000000000E+00  0.45593999997E+02  0.45594000000E+02  0.51100000000E-03 0. -1.
         11   -1    0    0    0    0 -0.00000000000E+00 -0.00000000000E+00 -0.45593999997E+02  0.45594000000E+02  0.51100000000E-03 0.  1.
    9900012    2    1    2    0    0  0.30144124389E+02 -0.19829872375E+02 -0.18742305182E+02  0.50528854938E+02  0.29999985070E+02 0.  0.
        -12    1    1    2    0    0 -0.30144124389E+02  0.19829872375E+02  0.18742305182E+02  0.40659145062E+02  0.00000000000E+00 0.  1.
         11    1    3    3    0    0  0.11055857036E+02  0.33284077468E+01 -0.13432968153E+01  0.11623885733E+02  0.51100000000E-03 0. -1.
        -11    1    3    3    0    0  0.17118030312E+02 -0.76037706995E+01 -0.65686062671E+01  0.19849203490E+02  0.51100000000E-03 0.  1.
         12    1    3    3    0    0  0.19702370410E+01 -0.15554509423E+02 -0.10830402100E+02  0.19055765716E+02  0.00000000000E+00 0. -1.
</event>
<event>
 7    1  0.5252438E-013  0.5052889E+02  0.7816164E-02  0.1300439E+00
        -11   -1    0    0    0    0  0.00000000000E+00  0.00000000000E+00  0.45593999997E+02  0.45594000000E+02  0.51100000000E-03 0. -1.
         11   -1    0    0    0    0 -0.00000000000E+00 -0.00000000000E+00 -0.45593999997E+02  0.45594000000E+02  0.51100000000E-03 0.  1.
    9900012    2    1    2    0    0 -0.28479552431E+02  0.16584482478E+02  0.23812463160E+02  0.50528888260E+02  0.30000086356E+02 0.  0.
        -12    1    1    2    0    0  0.28479552431E+02 -0.16584482478E+02 -0.23812463160E+02  0.40659111740E+02  0.00000000000E+00 0.  1.
         11    1    3    3    0    0 -0.68188833266E+01  0.30757438823E+01  0.97087194918E+01  0.12256288373E+02  0.51100000000E-03 0. -1.
        -11    1    3    3    0    0 -0.73765534062E+01  0.18200678284E+02  0.12194858279E+02  0.23116937488E+02  0.51100000000E-03 0.  1.
        -12    1    3    3    0    0 -0.14284115698E+02 -0.46919396882E+01  0.19088853891E+01  0.15155662399E+02  0.00000000000E+00 0.  1.
</event>
<event>
 7    1  0.5138511E-013  0.5052885E+02  0.7816164E-02  0.1300439E+00
        -11   -1    0    0    0    0  0.00000000000E+00  0.00000000000E+00  0.45593999997E+02  0.45594000000E+02  0.51100000000E-03 0.  1.
         11   -1    0    0    0    0 -0.00000000000E+00 -0.00000000000E+00 -0.45593999997E+02  0.45594000000E+02  0.51100000000E-03 0. -1.
    9900012    2    1    2    0    0 -0.36200611541E+02  0.94548132929E+01 -0.15915049843E+02  0.50528848731E+02  0.29999966204E+02 0.  0.
        -12    1    1    2    0    0  0.36200611541E+02 -0.94548132929E+01  0.15915049843E+02  0.40659151269E+02  0.00000000000E+00 0.  1.
         11    1    3    3    0    0 -0.17871816719E+02  0.21267084975E+01 -0.62430846483E+00  0.18008733525E+02  0.51100000000E-03 0. -1.
        -11    1    3    3    0    0 -0.47800912779E+00 -0.75662077498E+00  0.45477705284E+01  0.46349956595E+01  0.51100000000E-03 0.  1.
        -12    1    3    3    0    0 -0.17850785695E+02  0.80847255705E+01 -0.19838511907E+02  0.27885119547E+02  0.00000000000E+00 0.  1.
</event>
<event>
 7    1  0.5138511E-013  0.5052885E+02  0.7816164E-02  0.1300439E+00
        -11   -1    0    0    0    0  0.00000000000E+00  0.00000000000E+00  0.45593999997E+02  0.45594000000E+02  0.51100000000E-03 0. -1.
         11   -1    0    0    0    0 -0.00000000000E+00 -0.00000000000E+00 -0.45593999997E+02  0.45594000000E+02  0.51100000000E-03 0.  1.
    9900012    2    1    2    0    0  0.18276195386E+01 -0.36287515523E+02 -0.18249452371E+02  0.50528849888E+02  0.29999969718E+02 0.  0.
        -12    1    1    2    0    0 -0.18276195386E+01  0.36287515523E+02  0.18249452371E+02  0.40659150112E+02  0.00000000000E+00 0.  1.
         11    1    3    3    0    0  0.34794046529E+01 -0.98203147045E+01 -0.14129971621E+02  0.17555652534E+02  0.51100000000E-03 0. -1.
        -11    1    3    3    0    0 -0.94836968672E+01 -0.15810591434E+02 -0.64735298566E+01  0.19540263479E+02  0.51100000000E-03 0.  1.
        -12    1    3    3    0    0  0.78319117530E+01 -0.10656609384E+02  0.23540491063E+01  0.13432933874E+02  0.00000000000E+00 0.  1.
</event>
<event>
 7    1  0.5138511E-013  0.5052881E+02  0.7816164E-02  0.1300439E+00
        -11   -1    0    0    0    0  0.00000000000E+00  0.00000000000E+00  0.45593999997E+02  0.45594000000E+02  0.51100000000E-03 0.  1.
         11   -1    0    0    0    0 -0.00000000000E+00 -0.00000000000E+00 -0.45593999997E+02  0.45594000000E+02  0.51100000000E-03 0. -1.
    9900012    2    1    2    0    0  0.39957199033E+02  0.39083858415E+01 -0.64277726137E+01  0.50528812905E+02  0.29999857305E+02 0.  0.
        -12    1    1    2    0    0 -0.39957199033E+02 -0.39083858415E+01  0.64277726137E+01  0.40659187095E+02  0.00000000000E+00 0.  1.
         11    1    3    3    0    0  0.81772959874E+01  0.15781434982E+01 -0.40270934643E+01  0.92507398946E+01  0.51100000000E-03 0. -1.
        -11    1    3    3    0    0 -0.86136891635E+00 -0.64107012972E+01 -0.37185575319E+01  0.74610131961E+01  0.51100000000E-03 0.  1.
         12    1    3    3    0    0  0.32641271962E+02  0.87409436406E+01  0.13178783825E+01  0.33817059814E+02  0.00000000000E+00 0. -1.
</event>
<event>
 7    1  0.5138511E-013  0.5052883E+02  0.7816164E-02  0.1300439E+00
        -11   -1    0    0    0    0  0.00000000000E+00  0.00000000000E+00  0.45593999997E+02  0.45594000000E+02  0.51100000000E-03 0.  1.
         11   -1    0    0    0    0 -0.00000000000E+00 -0.00000000000E+00 -0.45593999997E+02  0.45594000000E+02  0.51100000000E-03 0. -1.
    9900012    2    1    2    0    0  0.26079705685E+02 -0.16131678364E+02 -0.26698047585E+02  0.50528833256E+02  0.29999919166E+02 0.  0.
        -12    1    1    2    0    0 -0.26079705685E+02  0.16131678364E+02  0.26698047585E+02  0.40659166744E+02  0.00000000000E+00 0.  1.
         11    1    3    3    0    0  0.67754566782E+01 -0.55356685711E+01 -0.10506227845E+02  0.13672280846E+02  0.51100000000E-03 0. -1.
        -11    1    3    3    0    0  0.22647483356E+02 -0.11532357164E+02 -0.19520995582E+02  0.32046419970E+02  0.51100000000E-03 0.  1.
        -12    1    3    3    0    0 -0.33432343491E+01  0.93634737180E+00  0.33291758420E+01  0.48101324410E+01  0.00000000000E+00 0.  1.
</event>
<event>
 7    1  0.5138511E-013  0.5052886E+02  0.7816164E-02  0.1300439E+00
        -11   -1    0    0    0    0  0.00000000000E+00  0.00000000000E+00  0.45593999997E+02  0.45594000000E+02  0.51100000000E-03 0.  1.
         11   -1    0    0    0    0 -0.00000000000E+00 -0.00000000000E+00 -0.45593999997E+02  0.45594000000E+02  0.51100000000E-03 0. -1.
    9900012    2    1    2    0    0 -0.90408651743E+01 -0.11165564389E+02 -0.38036284502E+02  0.50528855765E+02  0.29999987582E+02 0.  0.
        -12    1    1    2    0    0  0.90408651743E+01  0.11165564389E+02  0.38036284502E+02  0.40659144235E+02  0.00000000000E+00 0.  1.
         11    1    3    3    0    0 -0.63182230875E+01 -0.34030924478E+01 -0.19200699189E+00  0.71789865676E+01  0.51100000000E-03 0. -1.
        -11    1    3    3    0    0 -0.89563777137E+01  0.20477053985E+01 -0.12974815468E+02  0.15898290344E+02  0.51100000000E-03 0.  1.
        -12    1    3    3    0    0  0.62337356270E+01 -0.98101773400E+01 -0.24869462042E+02  0.27451578853E+02  0.00000000000E+00 0.  1.
</event>
<event>
 7    1  0.5138511E-013  0.5052886E+02  0.7816164E-02  0.1300439E+00
        -11   -1    0    0    0    0  0.00000000000E+00  0.00000000000E+00  0.45593999997E+02  0.45594000000E+02  0.51100000000E-03 0. -1.
         11   -1    0    0    0    0 -0.00000000000E+00 -0.00000000000E+00 -0.45593999997E+02  0.45594000000E+02  0.51100000000E-03 0.  1.
    9900012    2    1    2    0    0 -0.17122002246E+02  0.27950117410E+02  0.24058131163E+02  0.50528859586E+02  0.29999999198E+02 0.  0.
        -12    1    1    2    0    0  0.17122002246E+02 -0.27950117410E+02 -0.24058131163E+02  0.40659140414E+02  0.00000000000E+00 0.  1.
         11    1    3    3    0    0 -0.47850747197E+01  0.10216655539E+02  0.21859407688E+01  0.11491532873E+02  0.51100000000E-03 0. -1.
        -11    1    3    3    0    0 -0.12057428666E+01  0.16732850901E+02  0.29101207646E+01  0.17026770635E+02  0.51100000000E-03 0.  1.
         12    1    3    3    0    0 -0.11131184660E+02  0.10006109707E+01  0.18962069629E+02  0.22010556078E+02  0.00000000000E+00 0. -1.
</event>
<event>
 7    1  0.5138511E-013  0.5052886E+02  0.7816164E-02  0.1300439E+00
        -11   -1    0    0    0    0  0.00000000000E+00  0.00000000000E+00  0.45593999997E+02  0.45594000000E+02  0.51100000000E-03 0. -1.
         11   -1    0    0    0    0 -0.00000000000E+00 -0.00000000000E+00 -0.45593999997E+02  0.45594000000E+02  0.51100000000E-03 0.  1.
    9900012    2    1    2    0    0 -0.20001838496E+02  0.12665707422E+02  0.33055592971E+02  0.50528856940E+02  0.29999991154E+02 0.  0.
        -12    1    1    2    0    0  0.20001838496E+02 -0.12665707422E+02 -0.33055592971E+02  0.40659143060E+02  0.00000000000E+00 0.  1.
         11    1    3    3    0    0 -0.31938066695E+01 -0.55453624999E+01  0.35214692224E+01  0.73042584868E+01  0.51100000000E-03 0. -1.
        -11    1    3    3    0    0 -0.14181976569E+02  0.11260617547E+01  0.12142086542E+02  0.18703655801E+02  0.51100000000E-03 0.  1.
        -12    1    3    3    0    0 -0.26260552571E+01  0.17085008168E+02  0.17392037208E+02  0.24520942652E+02  0.00000000000E+00 0.  1.
</event>
<event>
 7    1  0.5138511E-013  0.5052886E+02  0.7816164E-02  0.1300439E+00
        -11   -1    0    0    0    0  0.00000000000E+00  0.00000000000E+00  0.45593999997E+02  0.45594000000E+02  0.51100000000E-03 0. -1.
         11   -1    0    0    0    0 -0.00000000000E+00 -0.00000000000E+00 -0.45593999997E+02  0.45594000000E+02  0.51100000000E-03 0.  1.
    9900012    2    1    2    0    0  0.34451021270E+02 -0.18676372234E+02  0.10839091549E+02  0.50528860167E+02  0.30000000963E+02 0.  0.
        -12    1    1    2    0    0 -0.34451021270E+02  0.18676372234E+02 -0.10839091549E+02  0.40659139833E+02  0.00000000000E+00 0.  1.
         11    1    3    3    0    0  0.12974348561E+02 -0.13105880879E+02 -0.69020715165E+01  0.19691023988E+02  0.51100000000E-03 0.  1.
        -11    1    3    3    0    0  0.15829985497E+02 -0.89970111180E+01  0.10425248820E+02  0.20981431388E+02  0.51100000000E-03 0. -1.
        -12    1    3    3    0    0  0.56466872119E+01  0.34265197629E+01  0.73159142456E+01  0.98564047910E+01  0.00000000000E+00 0.  1.
</event>
<event>
 7    1  0.5138511E-013  0.5052896E+02  0.7816164E-02  0.1300438E+00
        -11   -1    0    0    0    0  0.00000000000E+00  0.00000000000E+00  0.45593999997E+02  0.45594000000E+02  0.51100000000E-03 0.  1.
         11   -1    0    0    0    0 -0.00000000000E+00 -0.00000000000E+00 -0.45593999997E+02  0.45594000000E+02  0.51100000000E-03 0. -1.
    9900012    2    1    2    0    0 -0.49994131350E+01 -0.15134567036E+02 -0.37404655145E+02  0.50528960690E+02  0.30000306513E+02 0.  0.
        -12    1    1    2    0    0  0.49994131350E+01  0.15134567036E+02  0.37404655145E+02  0.40659039310E+02  0.00000000000E+00 0.  1.
         11    1    3    3    0    0  0.22151202544E+01 -0.18398567970E+02 -0.27352467956E+02  0.33038940126E+02  0.51100000000E-03 0. -1.
        -11    1    3    3    0    0 -0.49682164926E+01 -0.36395614346E+01 -0.76971333716E+01  0.98577606461E+01  0.51100000000E-03 0.  1.
        -12    1    3    3    0    0 -0.22463168968E+01  0.69035623686E+01 -0.23550538174E+01  0.76322599183E+01  0.00000000000E+00 0.  1.
</event>
<event>
 7    1  0.5138511E-013  0.5052887E+02  0.7816164E-02  0.1300439E+00
        -11   -1    0    0    0    0  0.00000000000E+00  0.00000000000E+00  0.45593999997E+02  0.45594000000E+02  0.51100000000E-03 0.  1.
         11   -1    0    0    0    0 -0.00000000000E+00 -0.00000000000E+00 -0.45593999997E+02  0.45594000000E+02  0.51100000000E-03 0. -1.
    9900012    2    1    2    0    0  0.21877571804E+02 -0.33820036302E+02 -0.55445637128E+01  0.50528865844E+02  0.30000018221E+02 0.  0.
        -12    1    1    2    0    0 -0.21877571804E+02  0.33820036302E+02  0.55445637128E+01  0.40659134156E+02  0.00000000000E+00 0.  1.
         11    1    3    3    0    0  0.95272860539E+01 -0.35552758213E+01  0.10085449488E+01  0.10218920143E+02  0.51100000000E-03 0.  1.
        -11    1    3    3    0    0 -0.42103991566E+01 -0.93223688223E+01  0.47975677852E+01  0.11298259974E+02  0.51100000000E-03 0. -1.
         12    1    3    3    0    0  0.16560684907E+02 -0.20942391658E+02 -0.11350676447E+02  0.29011685728E+02  0.00000000000E+00 0. -1.
</event>
<event>
 7    1  0.5138511E-013  0.5052887E+02  0.7816164E-02  0.1300439E+00
        -11   -1    0    0    0    0  0.00000000000E+00  0.00000000000E+00  0.45593999997E+02  0.45594000000E+02  0.51100000000E-03 0.  1.
         11   -1    0    0    0    0 -0.00000000000E+00 -0.00000000000E+00 -0.45593999997E+02  0.45594000000E+02  0.51100000000E-03 0. -1.
    9900012    2    1    2    0    0  0.28686758329E+02  0.11158686913E+02 -0.26565366966E+02  0.50528866720E+02  0.30000020881E+02 0.  0.
        -12    1    1    2    0    0 -0.28686758329E+02 -0.11158686913E+02  0.26565366966E+02  0.40659133280E+02  0.00000000000E+00 0.  1.
         11    1    3    3    0    0 -0.32235031907E+01 -0.30133389529E+01 -0.85734288555E+01  0.96423475910E+01  0.51100000000E-03 0.  1.
        -11    1    3    3    0    0  0.47647846993E+01  0.90152584361E+00  0.13210369000E+01  0.50260382838E+01  0.51100000000E-03 0. -1.
        -12    1    3    3    0    0  0.27145476820E+02  0.13270500023E+02 -0.19312975011E+02  0.35860480845E+02  0.00000000000E+00 0.  1.
</event>
<event>
 7    1  0.5138511E-013  0.5052886E+02  0.7816164E-02  0.1300439E+00
        -11   -1    0    0    0    0  0.00000000000E+00  0.00000000000E+00  0.45593999997E+02  0.45594000000E+02  0.51100000000E-03 0. -1.
         11   -1    0    0    0    0 -0.00000000000E+00 -0.00000000000E+00 -0.45593999997E+02  0.45594000000E+02  0.51100000000E-03 0.  1.
    9900012    2    1    2    0    0 -0.26707734417E+02 -0.74293873885E+01  0.29743342138E+02  0.50528864788E+02  0.30000015009E+02 0.  0.
        -12    1    1    2    0    0  0.26707734417E+02  0.74293873885E+01 -0.29743342138E+02  0.40659135212E+02  0.00000000000E+00 0.  1.
         11    1    3    3    0    0 -0.14210263355E+02  0.54444399200E+01  0.10189563816E+02  0.18313948828E+02  0.51100000000E-03 0. -1.
        -11    1    3    3    0    0 -0.75855184226E+01 -0.64534300674E+00  0.17225348846E+02  0.18832663127E+02  0.51100000000E-03 0.  1.
        -12    1    3    3    0    0 -0.49119526397E+01 -0.12228484302E+02  0.23284294763E+01  0.13382252833E+02  0.00000000000E+00 0.  1.
</event>
<event>
 7    1  0.5138511E-013  0.5052888E+02  0.7816164E-02  0.1300439E+00
        -11   -1    0    0    0    0  0.00000000000E+00  0.00000000000E+00  0.45593999997E+02  0.45594000000E+02  0.51100000000E-03 0.  1.
         11   -1    0    0    0    0 -0.00000000000E+00 -0.00000000000E+00 -0.45593999997E+02  0.45594000000E+02  0.51100000000E-03 0. -1.
    9900012    2    1    2    0    0  0.28435432907E+02 -0.19080315018E+02 -0.21921043970E+02  0.50528875138E+02  0.30000046469E+02 0.  0.
        -12    1    1    2    0    0 -0.28435432907E+02  0.19080315018E+02  0.21921043970E+02  0.40659124862E+02  0.00000000000E+00 0.  1.
         11    1    3    3    0    0  0.14583641529E+02 -0.12508955747E+02 -0.19873601779E+02  0.27642659461E+02  0.51100000000E-03 0. -1.
        -11    1    3    3    0    0  0.16028763011E+02 -0.86958041461E+01 -0.47206145135E+01  0.18836731539E+02  0.51100000000E-03 0.  1.
         12    1    3    3    0    0 -0.21769716333E+01  0.21244448752E+01  0.26731723226E+01  0.40494841383E+01  0.00000000000E+00 0. -1.
</event>
<event>
 7    1  0.5138511E-013  0.5052886E+02  0.7816164E-02  0.1300439E+00
        -11   -1    0    0    0    0  0.00000000000E+00  0.00000000000E+00  0.45593999997E+02  0.45594000000E+02  0.51100000000E-03 0. -1.
         11   -1    0    0    0    0 -0.00000000000E+00 -0.00000000000E+00 -0.45593999997E+02  0.45594000000E+02  0.51100000000E-03 0.  1.
    9900012    2    1    2    0    0  0.34066153852E+01  0.30981819929E+02  0.26109142665E+02  0.50528861726E+02  0.30000005701E+02 0.  0.
        -12    1    1    2    0    0 -0.34066153852E+01 -0.30981819929E+02 -0.26109142665E+02  0.40659138274E+02  0.00000000000E+00 0.  1.
         11    1    3    3    0    0  0.84246555960E+01  0.32040302364E+02  0.22319556710E+02  0.39946444266E+02  0.51100000000E-03 0. -1.
        -11    1    3    3    0    0  0.22614465620E+01 -0.10369568613E+01  0.28785267968E+00  0.25044519383E+01  0.51100000000E-03 0.  1.
        -12    1    3    3    0    0 -0.72794867728E+01 -0.21525573877E-01  0.35017332754E+01  0.80779655210E+01  0.00000000000E+00 0.  1.
</event>
<event>
 7    1  0.5138511E-013  0.5052886E+02  0.7816164E-02  0.1300439E+00
        -11   -1    0    0    0    0  0.00000000000E+00  0.00000000000E+00  0.45593999997E+02  0.45594000000E+02  0.51100000000E-03 0.  1.
         11   -1    0    0    0    0 -0.00000000000E+00 -0.00000000000E+00 -0.45593999997E+02  0.45594000000E+02  0.51100000000E-03 0. -1.
    9900012    2    1    2    0    0  0.45341586385E+01 -0.58950328859E+00 -0.40401228071E+02  0.50528864023E+02  0.30000012685E+02 0.  0.
        -12    1    1    2    0    0 -0.45341586385E+01  0.58950328859E+00  0.40401228071E+02  0.40659135977E+02  0.00000000000E+00 0.  1.
         11    1    3    3    0    0  0.10091618260E+01  0.98753985347E+00 -0.88867420840E+01  0.89982124715E+01  0.51100000000E-03 0. -1.
        -11    1    3    3    0    0  0.79779429620E+01 -0.30908050295E+01 -0.34772249156E+02  0.35809355779E+02  0.51100000000E-03 0.  1.
        -12    1    3    3    0    0 -0.44529461494E+01  0.15137618875E+01  0.32577631687E+01  0.57212957733E+01  0.00000000000E+00 0.  1.
</event>
<event>
 7    1  0.5138511E-013  0.5052886E+02  0.7816164E-02  0.1300439E+00
        -11   -1    0    0    0    0  0.00000000000E+00  0.00000000000E+00  0.45593999997E+02  0.45594000000E+02  0.51100000000E-03 0.  1.
         11   -1    0    0    0    0 -0.00000000000E+00 -0.00000000000E+00 -0.45593999997E+02  0.45594000000E+02  0.51100000000E-03 0. -1.
    9900012    2    1    2    0    0  0.64444928227E+00 -0.39182819423E+02 -0.10837765897E+02  0.50528858070E+02  0.29999994590E+02 0.  0.
        -12    1    1    2    0    0 -0.64444928227E+00  0.39182819423E+02  0.10837765897E+02  0.40659141930E+02  0.00000000000E+00 0.  1.
         11    1    3    3    0    0  0.57572089040E+01 -0.41386509433E+01  0.40834674333E+01  0.81822119585E+01  0.51100000000E-03 0. -1.
        -11    1    3    3    0    0  0.59742613887E+01 -0.18803182309E+02 -0.51616149013E+01  0.20393472797E+02  0.51100000000E-03 0.  1.
         12    1    3    3    0    0 -0.11087021010E+02 -0.16240986172E+02 -0.97596184286E+01  0.21953173315E+02  0.00000000000E+00 0. -1.
</event>
<event>
 7    1  0.5138511E-013  0.5052886E+02  0.7816164E-02  0.1300439E+00
        -11   -1    0    0    0    0  0.00000000000E+00  0.00000000000E+00  0.45593999997E+02  0.45594000000E+02  0.51100000000E-03 0.  1.
         11   -1    0    0    0    0 -0.00000000000E+00 -0.00000000000E+00 -0.45593999997E+02  0.45594000000E+02  0.51100000000E-03 0. -1.
    9900012    2    1    2    0    0  0.32240967982E+02  0.49012190066E+01  0.24282991036E+02  0.50528860587E+02  0.30000002239E+02 0.  0.
        -12    1    1    2    0    0 -0.32240967982E+02 -0.49012190066E+01 -0.24282991036E+02  0.40659139413E+02  0.00000000000E+00 0.  1.
         11    1    3    3    0    0  0.28080722139E+02  0.21010414439E+01  0.16541215825E+02  0.32658125363E+02  0.51100000000E-03 0. -1.
        -11    1    3    3    0    0  0.58062543429E+01  0.64989060693E+01 -0.45708704103E+00  0.87268149067E+01  0.51100000000E-03 0.  1.
        -12    1    3    3    0    0 -0.16460084993E+01 -0.36987285066E+01  0.81988622518E+01  0.91439203173E+01  0.00000000000E+00 0.  1.
</event>
<event>
 7    1  0.5138511E-013  0.5052887E+02  0.7816164E-02  0.1300439E+00
        -11   -1    0    0    0    0  0.00000000000E+00  0.00000000000E+00  0.45593999997E+02  0.45594000000E+02  0.51100000000E-03 0.  1.
         11   -1    0    0    0    0 -0.00000000000E+00 -0.00000000000E+00 -0.45593999997E+02  0.45594000000E+02  0.51100000000E-03 0. -1.
    9900012    2    1    2    0    0  0.19953971096E+02 -0.19970184245E+02 -0.29260823640E+02  0.50528867921E+02  0.30000024534E+02 0.  0.
        -12    1    1    2    0    0 -0.19953971096E+02  0.19970184245E+02  0.29260823640E+02  0.40659132079E+02  0.00000000000E+00 0.  1.
         11    1    3    3    0    0 -0.17892980086E+01  0.14363218127E+01 -0.79379963578E+01  0.82629531132E+01  0.51100000000E-03 0.  1.
        -11    1    3    3    0    0 -0.38231582981E+01 -0.30478135491E+01 -0.17075031208E+01  0.51789259477E+01  0.51100000000E-03 0. -1.
         12    1    3    3    0    0  0.25566427403E+02 -0.18358692509E+02 -0.19615324161E+02  0.37086988861E+02  0.00000000000E+00 0. -1.
</event>
<event>
 7    1  0.5138511E-013  0.5052886E+02  0.7816164E-02  0.1300439E+00
        -11   -1    0    0    0    0  0.00000000000E+00  0.00000000000E+00  0.45593999997E+02  0.45594000000E+02  0.51100000000E-03 0.  1.
         11   -1    0    0    0    0 -0.00000000000E+00 -0.00000000000E+00 -0.45593999997E+02  0.45594000000E+02  0.51100000000E-03 0. -1.
    9900012    2    1    2    0    0 -0.78311948650E+01 -0.87382525698E+01 -0.38929178570E+02  0.50528860620E+02  0.30000002342E+02 0.  0.
        -12    1    1    2    0    0  0.78311948650E+01  0.87382525698E+01  0.38929178570E+02  0.40659139380E+02  0.00000000000E+00 0.  1.
         11    1    3    3    0    0  0.46384393593E+01 -0.56849587296E+01 -0.40709873116E+01  0.83908767956E+01  0.51100000000E-03 0. -1.
        -11    1    3    3    0    0 -0.15050934224E+02 -0.45030423165E+01 -0.13914923592E+02  0.20986498277E+02  0.51100000000E-03 0.  1.
         12    1    3    3    0    0  0.25812999993E+01  0.14497484763E+01 -0.20943267666E+02  0.21151485548E+02  0.00000000000E+00 0. -1.
</event>
<event>
 7    1  0.5855333E-013  0.5052888E+02  0.7816164E-02  0.1300439E+00
        -11   -1    0    0    0    0  0.00000000000E+00  0.00000000000E+00  0.45593999997E+02  0.45594000000E+02  0.51100000000E-03 0.  1.
         11   -1    0    0    0    0 -0.00000000000E+00 -0.00000000000E+00 -0.45593999997E+02  0.45594000000E+02  0.51100000000E-03 0. -1.
    9900012    2    1    2    0    0 -0.12038677961E+02 -0.38660243225E+02  0.36905348336E+01  0.50528877768E+02  0.30000054464E+02 0.  0.
        -12    1    1    2    0    0  0.12038677961E+02  0.38660243225E+02 -0.36905348336E+01  0.40659122232E+02  0.00000000000E+00 0.  1.
         11    1    3    3    0    0 -0.10742665133E+02 -0.23546487035E+02  0.97534252083E+01  0.27658112904E+02  0.51100000000E-03 0.  1.
        -11    1    3    3    0    0  0.31617580585E+01 -0.79747718597E+01  0.42382364689E+01  0.95685081837E+01  0.51100000000E-03 0. -1.
        -12    1    3    3    0    0 -0.44577708866E+01 -0.71389843310E+01 -0.10301126844E+02  0.13302256681E+02  0.00000000000E+00 0.  1.
</event>
<event>
 7    1  0.5138511E-013  0.5052885E+02  0.7816164E-02  0.1300439E+00
        -11   -1    0    0    0    0  0.00000000000E+00  0.00000000000E+00  0.45593999997E+02  0.45594000000E+02  0.51100000000E-03 0.  1.
         11   -1    0    0    0    0 -0.00000000000E+00 -0.00000000000E+00 -0.45593999997E+02  0.45594000000E+02  0.51100000000E-03 0. -1.
    9900012    2    1    2    0    0  0.65237327775E+00 -0.38215286670E+02 -0.13868405102E+02  0.50528851138E+02  0.29999973518E+02 0.  0.
        -12    1    1    2    0    0 -0.65237327775E+00  0.38215286670E+02  0.13868405102E+02  0.40659148862E+02  0.00000000000E+00 0.  1.
         11    1    3    3    0    0 -0.26969883245E+01 -0.12999879447E+02 -0.14058315375E+01  0.13350916607E+02  0.51100000000E-03 0. -1.
        -11    1    3    3    0    0 -0.65573923333E+01 -0.12578002128E+02 -0.15308587272E+02  0.20870035369E+02  0.51100000000E-03 0.  1.
        -12    1    3    3    0    0  0.99067539355E+01 -0.12637405095E+02  0.28460137080E+01  0.16307899162E+02  0.00000000000E+00 0.  1.
</event>
<event>
 7    1  0.5138511E-013  0.5052886E+02  0.7816164E-02  0.1300439E+00
        -11   -1    0    0    0    0  0.00000000000E+00  0.00000000000E+00  0.45593999997E+02  0.45594000000E+02  0.51100000000E-03 0.  1.
         11   -1    0    0    0    0 -0.00000000000E+00 -0.00000000000E+00 -0.45593999997E+02  0.45594000000E+02  0.51100000000E-03 0. -1.
    9900012    2    1    2    0    0 -0.18984304715E+02  0.34406092898E+02 -0.10439485756E+02  0.50528856910E+02  0.29999991063E+02 0.  0.
        -12    1    1    2    0    0  0.18984304715E+02 -0.34406092898E+02  0.10439485756E+02  0.40659143090E+02  0.00000000000E+00 0.  1.
         11    1    3    3    0    0 -0.11424301381E+02  0.26023083240E+02 -0.21492371866E+01  0.28501486700E+02  0.51100000000E-03 0. -1.
        -11    1    3    3    0    0 -0.76192848860E+01  0.53201063928E+01  0.34358701176E+01  0.99076858009E+01  0.51100000000E-03 0.  1.
         12    1    3    3    0    0  0.59281552277E-01  0.30629032652E+01 -0.11726118687E+02  0.12119684409E+02  0.00000000000E+00 0. -1.
</event>
<event>
 7    1  0.5138511E-013  0.5052886E+02  0.7816164E-02  0.1300439E+00
        -11   -1    0    0    0    0  0.00000000000E+00  0.00000000000E+00  0.45593999997E+02  0.45594000000E+02  0.51100000000E-03 0.  1.
         11   -1    0    0    0    0 -0.00000000000E+00 -0.00000000000E+00 -0.45593999997E+02  0.45594000000E+02  0.51100000000E-03 0. -1.
    9900012    2    1    2    0    0  0.21763162750E+02  0.67805602010E+01 -0.33668296496E+02  0.50528862792E+02  0.30000008943E+02 0.  0.
        -12    1    1    2    0    0 -0.21763162750E+02 -0.67805602010E+01  0.33668296496E+02  0.40659137208E+02  0.00000000000E+00 0.  1.
         11    1    3    3    0    0  0.73223607160E+01 -0.15913146888E+01  0.66878697067E+00  0.75230662079E+01  0.51100000000E-03 0. -1.
        -11    1    3    3    0    0  0.10298535731E+02 -0.51837249433E+01 -0.18010031166E+02  0.21384388355E+02  0.51100000000E-03 0.  1.
        -12    1    3    3    0    0  0.41422663031E+01  0.13555599833E+02 -0.16327052301E+02  0.21621408229E+02  0.00000000000E+00 0.  1.
</event>
<event>
 7    1  0.5138511E-013  0.5052886E+02  0.7816164E-02  0.1300439E+00
        -11   -1    0    0    0    0  0.00000000000E+00  0.00000000000E+00  0.45593999997E+02  0.45594000000E+02  0.51100000000E-03 0.  1.
         11   -1    0    0    0    0 -0.00000000000E+00 -0.00000000000E+00 -0.45593999997E+02  0.45594000000E+02  0.51100000000E-03 0. -1.
    9900012    2    1    2    0    0  0.25126996781E+02  0.11539527669E+02  0.29810045589E+02  0.50528862232E+02  0.30000007240E+02 0.  0.
        -12    1    1    2    0    0 -0.25126996781E+02 -0.11539527669E+02 -0.29810045589E+02  0.40659137768E+02  0.00000000000E+00 0.  1.
         11    1    3    3    0    0  0.39761966824E+01 -0.38728985002E+01  0.45715509534E+01  0.71908665146E+01  0.51100000000E-03 0. -1.
        -11    1    3    3    0    0 -0.39164561443E+01  0.32307837110E+01  0.10835408319E+02  0.11965895948E+02  0.51100000000E-03 0.  1.
         12    1    3    3    0    0  0.25067256243E+02  0.12181642458E+02  0.14403086316E+02  0.31372099770E+02  0.00000000000E+00 0. -1.
</event>
<event>
 7    1  0.5138511E-013  0.5052886E+02  0.7816164E-02  0.1300439E+00
        -11   -1    0    0    0    0  0.00000000000E+00  0.00000000000E+00  0.45593999997E+02  0.45594000000E+02  0.51100000000E-03 0.  1.
         11   -1    0    0    0    0 -0.00000000000E+00 -0.00000000000E+00 -0.45593999997E+02  0.45594000000E+02  0.51100000000E-03 0. -1.
    9900012    2    1    2    0    0 -0.23929365592E+02  0.20242573838E+02 -0.25899605219E+02  0.50528857317E+02  0.29999992302E+02 0.  0.
        -12    1    1    2    0    0  0.23929365592E+02 -0.20242573838E+02  0.25899605219E+02  0.40659142683E+02  0.00000000000E+00 0.  1.
         11    1    3    3    0    0 -0.84381591562E+01  0.16589609870E+02 -0.44301252546E+01  0.19132268439E+02  0.51100000000E-03 0. -1.
        -11    1    3    3    0    0  0.21020446601E+01 -0.21291553666E+01  0.67097176666E-01  0.29927239466E+01  0.51100000000E-03 0.  1.
        -12    1    3    3    0    0 -0.17593251096E+02  0.57821193339E+01 -0.21536577141E+02  0.28403864932E+02  0.00000000000E+00 0.  1.
</event>
<event>
 7    1  0.5138511E-013  0.5052875E+02  0.7816164E-02  0.1300439E+00
        -11   -1    0    0    0    0  0.00000000000E+00  0.00000000000E+00  0.45593999997E+02  0.45594000000E+02  0.51100000000E-03 0.  1.
         11   -1    0    0    0    0 -0.00000000000E+00 -0.00000000000E+00 -0.45593999997E+02  0.45594000000E+02  0.51100000000E-03 0. -1.
    9900012    2    1    2    0    0 -0.30245251088E+02  0.10205842493E+02 -0.25184121889E+02  0.50528752225E+02  0.29999672860E+02 0.  0.
        -12    1    1    2    0    0  0.30245251088E+02 -0.10205842493E+02  0.25184121889E+02  0.40659247775E+02  0.00000000000E+00 0.  1.
         11    1    3    3    0    0 -0.17616213100E+02  0.14854572974E+02 -0.10407691141E+02  0.25284567178E+02  0.51100000000E-03 0. -1.
        -11    1    3    3    0    0 -0.38548708875E+01  0.33835656697E+01 -0.11969171970E+02  0.13021890189E+02  0.51100000000E-03 0.  1.
        -12    1    3    3    0    0 -0.87741670997E+01 -0.80322961502E+01 -0.28072587781E+01  0.12222294858E+02  0.00000000000E+00 0.  1.
</event>
<event>
 7    1  0.5138511E-013  0.5052886E+02  0.7816164E-02  0.1300439E+00
        -11   -1    0    0    0    0  0.00000000000E+00  0.00000000000E+00  0.45593999997E+02  0.45594000000E+02  0.51100000000E-03 0.  1.
         11   -1    0    0    0    0 -0.00000000000E+00 -0.00000000000E+00 -0.45593999997E+02  0.45594000000E+02  0.51100000000E-03 0. -1.
    9900012    2    1    2    0    0  0.93575072228E+01 -0.18335559015E+01 -0.39525192867E+02  0.50528859086E+02  0.29999997679E+02 0.  0.
        -12    1    1    2    0    0 -0.93575072228E+01  0.18335559015E+01  0.39525192867E+02  0.40659140914E+02  0.00000000000E+00 0.  1.
         11    1    3    3    0    0  0.61684100449E+01 -0.19627248215E+00 -0.31600656874E+02  0.32197660171E+02  0.51100000000E-03 0. -1.
        -11    1    3    3    0    0  0.46862601837E+01  0.54492129313E+01 -0.84212762878E+01  0.11071262379E+02  0.51100000000E-03 0.  1.
         12    1    3    3    0    0 -0.14971630059E+01 -0.70864963507E+01  0.49674029455E+00  0.72599365366E+01  0.00000000000E+00 0. -1.
</event>
<event>
 7    1  0.5138511E-013  0.5052888E+02  0.7816164E-02  0.1300439E+00
        -11   -1    0    0    0    0  0.00000000000E+00  0.00000000000E+00  0.45593999997E+02  0.45594000000E+02  0.51100000000E-03 0.  1.
         11   -1    0    0    0    0 -0.00000000000E+00 -0.00000000000E+00 -0.45593999997E+02  0.45594000000E+02  0.51100000000E-03 0. -1.
    9900012    2    1    2    0    0  0.29011136402E+02 -0.74622916117E+01 -0.27492396447E+02  0.50528884247E+02  0.30000074157E+02 0.  0.
        -12    1    1    2    0    0 -0.29011136402E+02  0.74622916117E+01  0.27492396447E+02  0.40659115753E+02  0.00000000000E+00 0.  1.
         11    1    3    3    0    0  0.23822671118E+02 -0.56164917781E+01 -0.26963331281E+02  0.36415462006E+02  0.51100000000E-03 0. -1.
        -11    1    3    3    0    0  0.60428061377E+01  0.45472330915E+01  0.51275719729E+00  0.75799574544E+01  0.51100000000E-03 0.  1.
         12    1    3    3    0    0 -0.85434085432E+00 -0.63930329251E+01 -0.10418223638E+01  0.65334647864E+01  0.00000000000E+00 0. -1.
</event>
<event>
 7    1  0.5138511E-013  0.5052884E+02  0.7816164E-02  0.1300439E+00
        -11   -1    0    0    0    0  0.00000000000E+00  0.00000000000E+00  0.45593999997E+02  0.45594000000E+02  0.51100000000E-03 0. -1.
         11   -1    0    0    0    0 -0.00000000000E+00 -0.00000000000E+00 -0.45593999997E+02  0.45594000000E+02  0.51100000000E-03 0.  1.
    9900012    2    1    2    0    0 -0.56768749874E+01  0.34126708743E+02  0.21361377898E+02  0.50528835904E+02  0.29999927215E+02 0.  0.
        -12    1    1    2    0    0  0.56768749874E+01 -0.34126708743E+02 -0.21361377898E+02  0.40659164096E+02  0.00000000000E+00 0.  1.
         11    1    3    3    0    0 -0.12399288693E+02  0.15562360935E+02  0.13877650768E+02  0.24259402900E+02  0.51100000000E-03 0. -1.
        -11    1    3    3    0    0 -0.18973168442E+01 -0.17663597956E+01 -0.75517914318E+00  0.27000248025E+01  0.51100000000E-03 0.  1.
        -12    1    3    3    0    0  0.86197305494E+01  0.20330707604E+02  0.82389062736E+01  0.23569408202E+02  0.00000000000E+00 0.  1.
</event>
<event>
 7    1  0.5138511E-013  0.5052886E+02  0.7816164E-02  0.1300439E+00
        -11   -1    0    0    0    0  0.00000000000E+00  0.00000000000E+00  0.45593999997E+02  0.45594000000E+02  0.51100000000E-03 0.  1.
         11   -1    0    0    0    0 -0.00000000000E+00 -0.00000000000E+00 -0.45593999997E+02  0.45594000000E+02  0.51100000000E-03 0. -1.
    9900012    2    1    2    0    0 -0.12665056856E+02 -0.60190130455E+01 -0.38164556806E+02  0.50528861059E+02  0.30000003675E+02 0.  0.
        -12    1    1    2    0    0  0.12665056856E+02  0.60190130455E+01  0.38164556806E+02  0.40659138941E+02  0.00000000000E+00 0.  1.
         11    1    3    3    0    0 -0.22683864520E+00 -0.65470459131E+01  0.10011112981E-01  0.65509820976E+01  0.51100000000E-03 0. -1.
        -11    1    3    3    0    0 -0.92350090352E+01 -0.61086793521E+01 -0.10219587246E+02  0.15067890332E+02  0.51100000000E-03 0.  1.
         12    1    3    3    0    0 -0.32032091754E+01  0.66367122198E+01 -0.27954980674E+02  0.28909988630E+02  0.00000000000E+00 0. -1.
</event>
<event>
 7    1  0.5138511E-013  0.5052887E+02  0.7816164E-02  0.1300439E+00
        -11   -1    0    0    0    0  0.00000000000E+00  0.00000000000E+00  0.45593999997E+02  0.45594000000E+02  0.51100000000E-03 0.  1.
         11   -1    0    0    0    0 -0.00000000000E+00 -0.00000000000E+00 -0.45593999997E+02  0.45594000000E+02  0.51100000000E-03 0. -1.
    9900012    2    1    2    0    0 -0.35193742139E+01 -0.37078045575E+02  0.16309414935E+02  0.50528874652E+02  0.30000044993E+02 0.  0.
        -12    1    1    2    0    0  0.35193742139E+01  0.37078045575E+02 -0.16309414935E+02  0.40659125348E+02  0.00000000000E+00 0.  1.
         11    1    3    3    0    0 -0.39417358395E+01 -0.16503355510E+02 -0.40366311230E+00  0.16972358960E+02  0.51100000000E-03 0. -1.
        -11    1    3    3    0    0  0.55639309352E+01 -0.34277985374E+01 -0.27702845376E+01  0.70980002075E+01  0.51100000000E-03 0.  1.
         12    1    3    3    0    0 -0.51415693097E+01 -0.17146891528E+02  0.19483362585E+02  0.26458515485E+02  0.00000000000E+00 0. -1.
</event>
<event>
 7    1  0.5138511E-013  0.5052883E+02  0.7816164E-02  0.1300439E+00
        -11   -1    0    0    0    0  0.00000000000E+00  0.00000000000E+00  0.45593999997E+02  0.45594000000E+02  0.51100000000E-03 0. -1.
         11   -1    0    0    0    0 -0.00000000000E+00 -0.00000000000E+00 -0.45593999997E+02  0.45594000000E+02  0.51100000000E-03 0.  1.
    9900012    2    1    2    0    0 -0.39471240389E+02  0.96852553823E+01 -0.11768783936E+01  0.50528830894E+02  0.29999911984E+02 0.  0.
        -12    1    1    2    0    0  0.39471240389E+02 -0.96852553823E+01  0.11768783936E+01  0.40659169106E+02  0.00000000000E+00 0.  1.
         11    1    3    3    0    0 -0.32768784087E+02  0.11194658506E+01  0.56545227295E+00  0.32792775895E+02  0.51100000000E-03 0. -1.
        -11    1    3    3    0    0 -0.10080481961E+02  0.22182587341E+01  0.65399298789E-01  0.10321873168E+02  0.51100000000E-03 0.  1.
        -12    1    3    3    0    0  0.33780256595E+01  0.63475307977E+01 -0.18077299654E+01  0.74141818302E+01  0.00000000000E+00 0.  1.
</event>
<event>
 7    1  0.5138511E-013  0.5052887E+02  0.7816164E-02  0.1300439E+00
        -11   -1    0    0    0    0  0.00000000000E+00  0.00000000000E+00  0.45593999997E+02  0.45594000000E+02  0.51100000000E-03 0.  1.
         11   -1    0    0    0    0 -0.00000000000E+00 -0.00000000000E+00 -0.45593999997E+02  0.45594000000E+02  0.51100000000E-03 0. -1.
    9900012    2    1    2    0    0  0.10638978671E+02  0.28740142541E+02 -0.26720426067E+02  0.50528870279E+02  0.30000031700E+02 0.  0.
        -12    1    1    2    0    0 -0.10638978671E+02 -0.28740142541E+02  0.26720426067E+02  0.40659129721E+02  0.00000000000E+00 0.  1.
         11    1    3    3    0    0  0.54200815972E+01  0.22593729783E+02 -0.58566089407E+01  0.23961506184E+02  0.51100000000E-03 0. -1.
        -11    1    3    3    0    0  0.80054453594E+01  0.14560128795E+01 -0.44575492487E+01  0.92777623635E+01  0.51100000000E-03 0.  1.
        -12    1    3    3    0    0 -0.27865482860E+01  0.46903998782E+01 -0.16406267878E+02  0.17289601732E+02  0.00000000000E+00 0.  1.
</event>
<event>
 7    1  0.5138511E-013  0.5052886E+02  0.7816164E-02  0.1300439E+00
        -11   -1    0    0    0    0  0.00000000000E+00  0.00000000000E+00  0.45593999997E+02  0.45594000000E+02  0.51100000000E-03 0.  1.
         11   -1    0    0    0    0 -0.00000000000E+00 -0.00000000000E+00 -0.45593999997E+02  0.45594000000E+02  0.51100000000E-03 0. -1.
    9900012    2    1    2    0    0  0.17217891287E+02  0.10818406399E+02 -0.35208973395E+02  0.50528861975E+02  0.30000006460E+02 0.  0.
        -12    1    1    2    0    0 -0.17217891287E+02 -0.10818406399E+02  0.35208973395E+02  0.40659138025E+02  0.00000000000E+00 0.  1.
         11    1    3    3    0    0 -0.39076255974E+01  0.21014629264E+01 -0.24748351371E+02  0.25142923061E+02  0.51100000000E-03 0.  1.
        -11    1    3    3    0    0  0.12434887093E+02  0.34932246719E+01 -0.48451620058E+01  0.13795094445E+02  0.51100000000E-03 0. -1.
        -12    1    3    3    0    0  0.86906297915E+01  0.52237188011E+01 -0.56154600183E+01  0.11590844469E+02  0.00000000000E+00 0.  1.
</event>
<event>
 7    1  0.5138511E-013  0.5052886E+02  0.7816164E-02  0.1300439E+00
        -11   -1    0    0    0    0  0.00000000000E+00  0.00000000000E+00  0.45593999997E+02  0.45594000000E+02  0.51100000000E-03 0.  1.
         11   -1    0    0    0    0 -0.00000000000E+00 -0.00000000000E+00 -0.45593999997E+02  0.45594000000E+02  0.51100000000E-03 0. -1.
    9900012    2    1    2    0    0  0.17131138949E+02 -0.14017340426E+02 -0.34105773704E+02  0.50528861368E+02  0.30000004615E+02 0.  0.
        -12    1    1    2    0    0 -0.17131138949E+02  0.14017340426E+02  0.34105773704E+02  0.40659138632E+02  0.00000000000E+00 0.  1.
         11    1    3    3    0    0  0.12733888182E+02 -0.93780188755E+01 -0.12711562436E+02  0.20289972058E+02  0.51100000000E-03 0. -1.
        -11    1    3    3    0    0  0.33231075679E+01 -0.67840830085E+01 -0.24883344227E+02  0.26004761994E+02  0.51100000000E-03 0.  1.
        -12    1    3    3    0    0  0.10741431989E+01  0.21447614584E+01  0.34891329591E+01  0.42341273163E+01  0.00000000000E+00 0.  1.
</event>
<event>
 7    1  0.5138511E-013  0.5052886E+02  0.7816164E-02  0.1300439E+00
        -11   -1    0    0    0    0  0.00000000000E+00  0.00000000000E+00  0.45593999997E+02  0.45594000000E+02  0.51100000000E-03 0. -1.
         11   -1    0    0    0    0 -0.00000000000E+00 -0.00000000000E+00 -0.45593999997E+02  0.45594000000E+02  0.51100000000E-03 0.  1.
    9900012    2    1    2    0    0  0.33402197710E+02 -0.18420211733E+02  0.14076743026E+02  0.50528859498E+02  0.29999998930E+02 0.  0.
        -12    1    1    2    0    0 -0.33402197710E+02  0.18420211733E+02 -0.14076743026E+02  0.40659140502E+02  0.00000000000E+00 0.  1.
         11    1    3    3    0    0  0.27687054564E+01  0.14030463373E+01  0.10325207514E+02  0.10781659399E+02  0.51100000000E-03 0. -1.
        -11    1    3    3    0    0  0.16237541307E+02 -0.35059570304E+01  0.64510901624E+01  0.17820382906E+02  0.51100000000E-03 0.  1.
        -12    1    3    3    0    0  0.14395950947E+02 -0.16317301040E+02 -0.26995546503E+01  0.21926817193E+02  0.00000000000E+00 0.  1.
</event>
<event>
 7    1  0.5138511E-013  0.5052885E+02  0.7816164E-02  0.1300439E+00
        -11   -1    0    0    0    0  0.00000000000E+00  0.00000000000E+00  0.45593999997E+02  0.45594000000E+02  0.51100000000E-03 0.  1.
         11   -1    0    0    0    0 -0.00000000000E+00 -0.00000000000E+00 -0.45593999997E+02  0.45594000000E+02  0.51100000000E-03 0. -1.
    9900012    2    1    2    0    0 -0.56239911652E+01  0.15759963083E+02 -0.37056182926E+02  0.50528850894E+02  0.29999972778E+02 0.  0.
        -12    1    1    2    0    0  0.56239911652E+01 -0.15759963083E+02  0.37056182926E+02  0.40659149106E+02  0.00000000000E+00 0.  1.
         11    1    3    3    0    0  0.46667244793E+00 -0.52609296001E+01 -0.26445712967E+01  0.59066844367E+01  0.51100000000E-03 0. -1.
        -11    1    3    3    0    0 -0.94215617204E+01  0.27626889317E+01 -0.12885050273E+02  0.16199469009E+02  0.51100000000E-03 0.  1.
        -12    1    3    3    0    0  0.33308981073E+01  0.18258203751E+02 -0.21526561356E+02  0.28422697449E+02  0.00000000000E+00 0.  1.
</event>
<event>
 7    1  0.5138511E-013  0.5052886E+02  0.7816164E-02  0.1300439E+00
        -11   -1    0    0    0    0  0.00000000000E+00  0.00000000000E+00  0.45593999997E+02  0.45594000000E+02  0.51100000000E-03 0. -1.
         11   -1    0    0    0    0 -0.00000000000E+00 -0.00000000000E+00 -0.45593999997E+02  0.45594000000E+02  0.51100000000E-03 0.  1.
    9900012    2    1    2    0    0  0.24878985797E+02  0.69991331030E+01  0.31388115108E+02  0.50528861193E+02  0.30000004083E+02 0.  0.
        -12    1    1    2    0    0 -0.24878985797E+02 -0.69991331030E+01 -0.31388115108E+02  0.40659138807E+02  0.00000000000E+00 0.  1.
         11    1    3    3    0    0 -0.25730028732E+01  0.34952274701E+01  0.19586207230E+02  0.20061317822E+02  0.51100000000E-03 0. -1.
        -11    1    3    3    0    0  0.97516473265E-01  0.16498071331E+00 -0.31108632087E+00  0.36538070348E+00  0.51100000000E-03 0.  1.
         12    1    3    3    0    0  0.27354472197E+02  0.33389249196E+01  0.12112994199E+02  0.30102162667E+02  0.00000000000E+00 0. -1.
</event>
<event>
 7    1  0.5138511E-013  0.5052886E+02  0.7816164E-02  0.1300439E+00
        -11   -1    0    0    0    0  0.00000000000E+00  0.00000000000E+00  0.45593999997E+02  0.45594000000E+02  0.51100000000E-03 0. -1.
         11   -1    0    0    0    0 -0.00000000000E+00 -0.00000000000E+00 -0.45593999997E+02  0.45594000000E+02  0.51100000000E-03 0.  1.
    9900012    2    1    2    0    0  0.91860595149E+00 -0.25357742656E+02  0.31769582776E+02  0.50528864012E+02  0.30000012650E+02 0.  0.
        -12    1    1    2    0    0 -0.91860595149E+00  0.25357742656E+02 -0.31769582776E+02  0.40659135988E+02  0.00000000000E+00 0.  1.
         11    1    3    3    0    0  0.36575689464E+01  0.28591497935E+01  0.68304243131E+01  0.82587677469E+01  0.51100000000E-03 0. -1.
        -11    1    3    3    0    0 -0.88885020813E+01 -0.86430236803E+01  0.41818520466E+01  0.13084158910E+02  0.51100000000E-03 0.  1.
         12    1    3    3    0    0  0.61495390864E+01 -0.19573868770E+02  0.20757306417E+02  0.29185937355E+02  0.00000000000E+00 0. -1.
</event>
<event>
 7    1  0.5138511E-013  0.5052888E+02  0.7816164E-02  0.1300439E+00
        -11   -1    0    0    0    0  0.00000000000E+00  0.00000000000E+00  0.45593999997E+02  0.45594000000E+02  0.51100000000E-03 0. -1.
         11   -1    0    0    0    0 -0.00000000000E+00 -0.00000000000E+00 -0.45593999997E+02  0.45594000000E+02  0.51100000000E-03 0.  1.
    9900012    2    1    2    0    0  0.18694692814E+02 -0.34879362264E+02 -0.93328885734E+01  0.50528877279E+02  0.30000052976E+02 0.  0.
        -12    1    1    2    0    0 -0.18694692814E+02  0.34879362264E+02  0.93328885734E+01  0.40659122721E+02  0.00000000000E+00 0.  1.
         11    1    3    3    0    0  0.26746480415E+00  0.15753274403E+01 -0.33235967840E+01  0.36877486099E+01  0.51100000000E-03 0.  1.
        -11    1    3    3    0    0  0.71512517198E+01 -0.24905815974E+02  0.61511002094E+01  0.26632238068E+02  0.51100000000E-03 0. -1.
         12    1    3    3    0    0  0.11275976290E+02 -0.11548873731E+02 -0.12160391999E+02  0.20208890601E+02  0.00000000000E+00 0. -1.
</event>
<event>
 7    1  0.5138511E-013  0.5052893E+02  0.7816164E-02  0.1300439E+00
        -11   -1    0    0    0    0  0.00000000000E+00  0.00000000000E+00  0.45593999997E+02  0.45594000000E+02  0.51100000000E-03 0.  1.
         11   -1    0    0    0    0 -0.00000000000E+00 -0.00000000000E+00 -0.45593999997E+02  0.45594000000E+02  0.51100000000E-03 0. -1.
    9900012    2    1    2    0    0 -0.11618023935E+02 -0.16384773596E+02 -0.35351388181E+02  0.50528930504E+02  0.30000214760E+02 0.  0.
        -12    1    1    2    0    0  0.11618023935E+02  0.16384773596E+02  0.35351388181E+02  0.40659069496E+02  0.00000000000E+00 0.  1.
         11    1    3    3    0    0 -0.71021467704E+01 -0.12277288647E+02 -0.28601508221E+02  0.31925202866E+02  0.51100000000E-03 0. -1.
        -11    1    3    3    0    0 -0.39481226212E+01  0.26323828232E+01 -0.10023085056E+02  0.11089605307E+02  0.51100000000E-03 0.  1.
        -12    1    3    3    0    0 -0.56775454370E+00 -0.67398677725E+01  0.32732050959E+01  0.75141223315E+01  0.00000000000E+00 0.  1.
</event>
<event>
 7    1  0.5138511E-013  0.5052883E+02  0.7816164E-02  0.1300439E+00
        -11   -1    0    0    0    0  0.00000000000E+00  0.00000000000E+00  0.45593999997E+02  0.45594000000E+02  0.51100000000E-03 0.  1.
         11   -1    0    0    0    0 -0.00000000000E+00 -0.00000000000E+00 -0.45593999997E+02  0.45594000000E+02  0.51100000000E-03 0. -1.
    9900012    2    1    2    0    0 -0.12953284420E+02 -0.17145341264E+02 -0.34516914677E+02  0.50528834943E+02  0.29999924291E+02 0.  0.
        -12    1    1    2    0    0  0.12953284420E+02  0.17145341264E+02  0.34516914677E+02  0.40659165057E+02  0.00000000000E+00 0.  1.
         11    1    3    3    0    0 -0.27414496498E+01  0.28370963974E+01 -0.59783221819E+01  0.71627507650E+01  0.51100000000E-03 0. -1.
        -11    1    3    3    0    0 -0.13372151851E+02 -0.23840628485E+02 -0.21694291343E+02  0.34897453902E+02  0.51100000000E-03 0.  1.
         12    1    3    3    0    0  0.31603170812E+01  0.38581908234E+01 -0.68443011523E+01  0.84686302757E+01  0.00000000000E+00 0. -1.
</event>
<event>
 7    1  0.5138511E-013  0.5052886E+02  0.7816164E-02  0.1300439E+00
        -11   -1    0    0    0    0  0.00000000000E+00  0.00000000000E+00  0.45593999997E+02  0.45594000000E+02  0.51100000000E-03 0.  1.
         11   -1    0    0    0    0 -0.00000000000E+00 -0.00000000000E+00 -0.45593999997E+02  0.45594000000E+02  0.51100000000E-03 0. -1.
    9900012    2    1    2    0    0  0.10320875237E+02  0.67246364990E+01 -0.38748218683E+02  0.50528860156E+02  0.30000000931E+02 0.  0.
        -12    1    1    2    0    0 -0.10320875237E+02 -0.67246364990E+01  0.38748218683E+02  0.40659139844E+02  0.00000000000E+00 0.  1.
         11    1    3    3    0    0  0.46625569721E+01  0.26153885538E+01 -0.32876503626E+02  0.33308320067E+02  0.51100000000E-03 0. -1.
        -11    1    3    3    0    0 -0.20200232496E+01 -0.13955538350E+01 -0.72667940768E+01  0.76703559794E+01  0.51100000000E-03 0.  1.
        -12    1    3    3    0    0  0.76783415145E+01  0.55048017802E+01  0.13950790190E+01  0.95501841093E+01  0.00000000000E+00 0.  1.
</event>
<event>
 7    1  0.5138511E-013  0.5052886E+02  0.7816164E-02  0.1300439E+00
        -11   -1    0    0    0    0  0.00000000000E+00  0.00000000000E+00  0.45593999997E+02  0.45594000000E+02  0.51100000000E-03 0.  1.
         11   -1    0    0    0    0 -0.00000000000E+00 -0.00000000000E+00 -0.45593999997E+02  0.45594000000E+02  0.51100000000E-03 0. -1.
    9900012    2    1    2    0    0 -0.56208897449E+01 -0.32982011385E+02 -0.23103204233E+02  0.50528861761E+02  0.30000005810E+02 0.  0.
        -12    1    1    2    0    0  0.56208897449E+01  0.32982011385E+02  0.23103204233E+02  0.40659138239E+02  0.00000000000E+00 0.  1.
         11    1    3    3    0    0  0.22633084864E+01  0.52407032152E+01 -0.25233758966E+01  0.62413910045E+01  0.51100000000E-03 0.  1.
        -11    1    3    3    0    0 -0.65714831785E+00 -0.10859496238E+02 -0.48897744055E+01  0.11927715475E+02  0.51100000000E-03 0. -1.
        -12    1    3    3    0    0 -0.72270499134E+01 -0.27363218362E+02 -0.15690053930E+02  0.32359755282E+02  0.00000000000E+00 0.  1.
</event>
<event>
 7    1  0.5138511E-013  0.5052886E+02  0.7816164E-02  0.1300439E+00
        -11   -1    0    0    0    0  0.00000000000E+00  0.00000000000E+00  0.45593999997E+02  0.45594000000E+02  0.51100000000E-03 0. -1.
         11   -1    0    0    0    0 -0.00000000000E+00 -0.00000000000E+00 -0.45593999997E+02  0.45594000000E+02  0.51100000000E-03 0.  1.
    9900012    2    1    2    0    0 -0.31934472397E+02 -0.22218538558E+02  0.11819125932E+02  0.50528859321E+02  0.29999998393E+02 0.  0.
        -12    1    1    2    0    0  0.31934472397E+02  0.22218538558E+02 -0.11819125932E+02  0.40659140679E+02  0.00000000000E+00 0.  1.
         11    1    3    3    0    0 -0.18835344634E+02 -0.15365299480E+02  0.10019226158E+02  0.26291586651E+02  0.51100000000E-03 0. -1.
        -11    1    3    3    0    0 -0.13223482805E+02 -0.98456164530E+01 -0.46469973754E+01  0.17128667365E+02  0.51100000000E-03 0.  1.
        -12    1    3    3    0    0  0.12435504076E+00  0.29923773753E+01  0.64468971492E+01  0.71086053052E+01  0.00000000000E+00 0.  1.
</event>
<event>
 7    1  0.5138511E-013  0.5052888E+02  0.7816164E-02  0.1300439E+00
        -11   -1    0    0    0    0  0.00000000000E+00  0.00000000000E+00  0.45593999997E+02  0.45594000000E+02  0.51100000000E-03 0. -1.
         11   -1    0    0    0    0 -0.00000000000E+00 -0.00000000000E+00 -0.45593999997E+02  0.45594000000E+02  0.51100000000E-03 0.  1.
    9900012    2    1    2    0    0  0.19557335688E+02 -0.10912071900E+02  0.33935252011E+02  0.50528880218E+02  0.30000061910E+02 0.  0.
        -12    1    1    2    0    0 -0.19557335688E+02  0.10912071900E+02 -0.33935252011E+02  0.40659119782E+02  0.00000000000E+00 0.  1.
         11    1    3    3    0    0  0.14224290964E+01 -0.62910195904E+01  0.12657628044E+02  0.14206188088E+02  0.51100000000E-03 0. -1.
        -11    1    3    3    0    0  0.25480179574E+01 -0.44420981883E+01 -0.40864209982E+01  0.65516004656E+01  0.51100000000E-03 0.  1.
         12    1    3    3    0    0  0.15586888634E+02 -0.17895412138E+00  0.25364044966E+02  0.29771091664E+02  0.00000000000E+00 0. -1.
</event>
<event>
 7    1  0.5138511E-013  0.5052887E+02  0.7816164E-02  0.1300439E+00
        -11   -1    0    0    0    0  0.00000000000E+00  0.00000000000E+00  0.45593999997E+02  0.45594000000E+02  0.51100000000E-03 0.  1.
         11   -1    0    0    0    0 -0.00000000000E+00 -0.00000000000E+00 -0.45593999997E+02  0.45594000000E+02  0.51100000000E-03 0. -1.
    9900012    2    1    2    0    0  0.39282176783E+02  0.36153563622E+01 -0.98491017435E+01  0.50528867943E+02  0.30000024600E+02 0.  0.
        -12    1    1    2    0    0 -0.39282176783E+02 -0.36153563622E+01  0.98491017435E+01  0.40659132057E+02  0.00000000000E+00 0.  1.
         11    1    3    3    0    0  0.20007598692E+02  0.13438559614E+02 -0.32253947338E+01  0.24316703341E+02  0.51100000000E-03 0. -1.
        -11    1    3    3    0    0  0.18986090498E+02 -0.42878274970E+01 -0.32795561642E+01  0.19738606484E+02  0.51100000000E-03 0.  1.
         12    1    3    3    0    0  0.28848759336E+00 -0.55353757545E+01 -0.33441508455E+01  0.64735581184E+01  0.00000000000E+00 0. -1.
</event>
<event>
 7    1  0.5138511E-013  0.5052883E+02  0.7816164E-02  0.1300439E+00
        -11   -1    0    0    0    0  0.00000000000E+00  0.00000000000E+00  0.45593999997E+02  0.45594000000E+02  0.51100000000E-03 0.  1.
         11   -1    0    0    0    0 -0.00000000000E+00 -0.00000000000E+00 -0.45593999997E+02  0.45594000000E+02  0.51100000000E-03 0. -1.
    9900012    2    1    2    0    0 -0.30836267020E+02 -0.27905800558E+01 -0.26353470777E+02  0.50528829783E+02  0.29999908607E+02 0.  0.
        -12    1    1    2    0    0  0.30836267020E+02  0.27905800558E+01  0.26353470777E+02  0.40659170217E+02  0.00000000000E+00 0.  1.
         11    1    3    3    0    0 -0.24451825473E+02  0.22982876183E+01 -0.16408539614E+02  0.29536656336E+02  0.51100000000E-03 0. -1.
        -11    1    3    3    0    0 -0.46208655575E+01  0.25802906083E+01 -0.11777753586E+02  0.12912233654E+02  0.51100000000E-03 0.  1.
        -12    1    3    3    0    0 -0.17635759892E+01 -0.76691582824E+01  0.18328224236E+01  0.80799397935E+01  0.00000000000E+00 0.  1.
</event>
<event>
 7    1  0.5138511E-013  0.5052886E+02  0.7816164E-02  0.1300439E+00
        -11   -1    0    0    0    0  0.00000000000E+00  0.00000000000E+00  0.45593999997E+02  0.45594000000E+02  0.51100000000E-03 0. -1.
         11   -1    0    0    0    0 -0.00000000000E+00 -0.00000000000E+00 -0.45593999997E+02  0.45594000000E+02  0.51100000000E-03 0.  1.
    9900012    2    1    2    0    0 -0.13270581250E+02  0.36181627518E+02 -0.12959436336E+02  0.50528862199E+02  0.30000007140E+02 0.  0.
        -12    1    1    2    0    0  0.13270581250E+02 -0.36181627518E+02  0.12959436336E+02  0.40659137801E+02  0.00000000000E+00 0.  1.
         11    1    3    3    0    0 -0.18080854642E+02  0.29595207697E+02 -0.14582334736E+02  0.37622308672E+02  0.51100000000E-03 0. -1.
        -11    1    3    3    0    0  0.37924960437E+01  0.22595033967E+01 -0.38489000479E+01  0.58568262464E+01  0.51100000000E-03 0.  1.
        -12    1    3    3    0    0  0.10177773483E+01  0.43269164247E+01  0.54717984479E+01  0.70497272807E+01  0.00000000000E+00 0.  1.
</event>
<event>
 7    1  0.5138511E-013  0.5052886E+02  0.7816164E-02  0.1300439E+00
        -11   -1    0    0    0    0  0.00000000000E+00  0.00000000000E+00  0.45593999997E+02  0.45594000000E+02  0.51100000000E-03 0.  1.
         11   -1    0    0    0    0 -0.00000000000E+00 -0.00000000000E+00 -0.45593999997E+02  0.45594000000E+02  0.51100000000E-03 0. -1.
    9900012    2    1    2    0    0  0.60231454631E+01 -0.27296641435E+02 -0.29525932174E+02  0.50528860983E+02  0.30000003443E+02 0.  0.
        -12    1    1    2    0    0 -0.60231454631E+01  0.27296641435E+02  0.29525932174E+02  0.40659139017E+02  0.00000000000E+00 0.  1.
         11    1    3    3    0    0  0.35119164732E+01 -0.20729337685E+02 -0.23417354297E+02  0.31470803624E+02  0.51100000000E-03 0. -1.
        -11    1    3    3    0    0  0.39438702658E+00 -0.12907059575E+01 -0.11287258191E+02  0.11367658542E+02  0.51100000000E-03 0.  1.
         12    1    3    3    0    0  0.21168419632E+01 -0.52765977925E+01  0.51786803149E+01  0.76903988170E+01  0.00000000000E+00 0. -1.
</event>
<event>
 7    1  0.5138511E-013  0.5052886E+02  0.7816164E-02  0.1300439E+00
        -11   -1    0    0    0    0  0.00000000000E+00  0.00000000000E+00  0.45593999997E+02  0.45594000000E+02  0.51100000000E-03 0.  1.
         11   -1    0    0    0    0 -0.00000000000E+00 -0.00000000000E+00 -0.45593999997E+02  0.45594000000E+02  0.51100000000E-03 0. -1.
    9900012    2    1    2    0    0  0.70831212330E+01 -0.19794020939E+02 -0.34802183154E+02  0.50528858056E+02  0.29999994548E+02 0.  0.
        -12    1    1    2    0    0 -0.70831212330E+01  0.19794020939E+02  0.34802183154E+02  0.40659141944E+02  0.00000000000E+00 0.  1.
         11    1    3    3    0    0  0.33252672937E+01 -0.18192501345E+02 -0.25774498563E+02  0.31723008751E+02  0.51100000000E-03 0. -1.
        -11    1    3    3    0    0  0.72556953489E+01 -0.69596445589E+01 -0.61848214940E+01  0.11803973253E+02  0.51100000000E-03 0.  1.
        -12    1    3    3    0    0 -0.34978414096E+01  0.53581249650E+01 -0.28428630962E+01  0.70018760522E+01  0.00000000000E+00 0.  1.
</event>
<event>
 7    1  0.5138511E-013  0.5052888E+02  0.7816164E-02  0.1300439E+00
        -11   -1    0    0    0    0  0.00000000000E+00  0.00000000000E+00  0.45593999997E+02  0.45594000000E+02  0.51100000000E-03 0.  1.
         11   -1    0    0    0    0 -0.00000000000E+00 -0.00000000000E+00 -0.45593999997E+02  0.45594000000E+02  0.51100000000E-03 0. -1.
    9900012    2    1    2    0    0 -0.24340737650E+02  0.13416732371E+02 -0.29676320393E+02  0.50528877912E+02  0.30000054902E+02 0.  0.
        -12    1    1    2    0    0  0.24340737650E+02 -0.13416732371E+02  0.29676320393E+02  0.40659122088E+02  0.00000000000E+00 0.  1.
         11    1    3    3    0    0 -0.14055819994E+02 -0.35261016989E+01 -0.17270025317E+01  0.14593903073E+02  0.51100000000E-03 0. -1.
        -11    1    3    3    0    0 -0.32014398459E+01  0.20448964122E+00 -0.87408624709E+00  0.33249150558E+01  0.51100000000E-03 0.  1.
         12    1    3    3    0    0 -0.70834778100E+01  0.16738344429E+02 -0.27075231615E+02  0.32610059784E+02  0.00000000000E+00 0. -1.
</event>
<event>
 7    1  0.5138511E-013  0.5052886E+02  0.7816164E-02  0.1300439E+00
        -11   -1    0    0    0    0  0.00000000000E+00  0.00000000000E+00  0.45593999997E+02  0.45594000000E+02  0.51100000000E-03 0.  1.
         11   -1    0    0    0    0 -0.00000000000E+00 -0.00000000000E+00 -0.45593999997E+02  0.45594000000E+02  0.51100000000E-03 0. -1.
    9900012    2    1    2    0    0 -0.39247530667E+02  0.99675044216E+01 -0.36668469835E+01  0.50528861118E+02  0.30000003854E+02 0.  0.
        -12    1    1    2    0    0  0.39247530667E+02 -0.99675044216E+01  0.36668469835E+01  0.40659138882E+02  0.00000000000E+00 0.  1.
         11    1    3    3    0    0 -0.18847583768E+01  0.62761351121E+01 -0.67324786982E+01  0.93951293640E+01  0.51100000000E-03 0. -1.
        -11    1    3    3    0    0 -0.67723634763E+01 -0.51316922700E+01  0.37529826306E+01  0.92889209005E+01  0.51100000000E-03 0.  1.
         12    1    3    3    0    0 -0.30590408814E+02  0.88230615795E+01 -0.68735091598E+00  0.31844810853E+02  0.00000000000E+00 0. -1.
</event>
<event>
 7    1  0.5138511E-013  0.5052887E+02  0.7816164E-02  0.1300439E+00
        -11   -1    0    0    0    0  0.00000000000E+00  0.00000000000E+00  0.45593999997E+02  0.45594000000E+02  0.51100000000E-03 0.  1.
         11   -1    0    0    0    0 -0.00000000000E+00 -0.00000000000E+00 -0.45593999997E+02  0.45594000000E+02  0.51100000000E-03 0. -1.
    9900012    2    1    2    0    0  0.27630843255E+02  0.27200659055E+02 -0.12240338852E+02  0.50528865145E+02  0.30000016094E+02 0.  0.
        -12    1    1    2    0    0 -0.27630843255E+02 -0.27200659055E+02  0.12240338852E+02  0.40659134855E+02  0.00000000000E+00 0.  1.
         11    1    3    3    0    0  0.16836741189E+02  0.11875467302E+01 -0.35037274547E+01  0.17238393993E+02  0.51100000000E-03 0. -1.
        -11    1    3    3    0    0  0.10945545898E+02  0.10757747961E+02 -0.94402904839E+01  0.18018135333E+02  0.51100000000E-03 0.  1.
        -12    1    3    3    0    0 -0.15144383322E+00  0.15255364364E+02  0.70367908681E+00  0.15272335819E+02  0.00000000000E+00 0.  1.
</event>
<event>
 7    1  0.5138511E-013  0.5052886E+02  0.7816164E-02  0.1300439E+00
        -11   -1    0    0    0    0  0.00000000000E+00  0.00000000000E+00  0.45593999997E+02  0.45594000000E+02  0.51100000000E-03 0.  1.
         11   -1    0    0    0    0 -0.00000000000E+00 -0.00000000000E+00 -0.45593999997E+02  0.45594000000E+02  0.51100000000E-03 0. -1.
    9900012    2    1    2    0    0 -0.39158914201E+02 -0.68419658190E+01 -0.85400587915E+01  0.50528860046E+02  0.30000000596E+02 0.  0.
        -12    1    1    2    0    0  0.39158914201E+02  0.68419658190E+01  0.85400587915E+01  0.40659139954E+02  0.00000000000E+00 0.  1.
         11    1    3    3    0    0 -0.31354756717E+02 -0.75147768166E+01  0.27243349432E+01  0.32357605605E+02  0.51100000000E-03 0. -1.
        -11    1    3    3    0    0 -0.10494968035E+02  0.44379875156E+00 -0.56180631796E+01  0.11912344251E+02  0.51100000000E-03 0.  1.
        -12    1    3    3    0    0  0.26908105512E+01  0.22901224607E+00 -0.56463305552E+01  0.62589101902E+01  0.00000000000E+00 0.  1.
</event>
<event>
 7    1  0.5138511E-013  0.5052889E+02  0.7816164E-02  0.1300439E+00
        -11   -1    0    0    0    0  0.00000000000E+00  0.00000000000E+00  0.45593999997E+02  0.45594000000E+02  0.51100000000E-03 0. -1.
         11   -1    0    0    0    0 -0.00000000000E+00 -0.00000000000E+00 -0.45593999997E+02  0.45594000000E+02  0.51100000000E-03 0.  1.
    9900012    2    1    2    0    0  0.14782935246E+02  0.21912163368E+02  0.30894740902E+02  0.50528891631E+02  0.30000096602E+02 0.  0.
        -12    1    1    2    0    0 -0.14782935246E+02 -0.21912163368E+02 -0.30894740902E+02  0.40659108369E+02  0.00000000000E+00 0.  1.
         11    1    3    3    0    0 -0.16528403114E+01 -0.15114058434E+01  0.12206271645E+02  0.12410048205E+02  0.51100000000E-03 0. -1.
        -11    1    3    3    0    0  0.12090719082E+02  0.37452375558E+01  0.10182809372E+02  0.16245057686E+02  0.51100000000E-03 0.  1.
         12    1    3    3    0    0  0.43450564756E+01  0.19678331656E+02  0.85056598850E+01  0.21873785740E+02  0.00000000000E+00 0. -1.
</event>
<event>
 7    1  0.5138511E-013  0.5052886E+02  0.7816164E-02  0.1300439E+00
        -11   -1    0    0    0    0  0.00000000000E+00  0.00000000000E+00  0.45593999997E+02  0.45594000000E+02  0.51100000000E-03 0. -1.
         11   -1    0    0    0    0 -0.00000000000E+00 -0.00000000000E+00 -0.45593999997E+02  0.45594000000E+02  0.51100000000E-03 0.  1.
    9900012    2    1    2    0    0  0.36990298071E+02 -0.86003144237E+01  0.14523019551E+02  0.50528860112E+02  0.30000000796E+02 0.  0.
        -12    1    1    2    0    0 -0.36990298071E+02  0.86003144237E+01 -0.14523019551E+02  0.40659139888E+02  0.00000000000E+00 0.  1.
         11    1    3    3    0    0 -0.69233196264E+00  0.34276548156E+01  0.63414696134E+00  0.35539110443E+01  0.51100000000E-03 0. -1.
        -11    1    3    3    0    0  0.48321356844E+01 -0.87901869168E+01 -0.21753198590E+01  0.10263963077E+02  0.51100000000E-03 0.  1.
         12    1    3    3    0    0  0.32850494349E+02 -0.32377823225E+01  0.16064192449E+02  0.36710985990E+02  0.00000000000E+00 0. -1.
</event>
<event>
 7    1  0.5138511E-013  0.5052887E+02  0.7816164E-02  0.1300439E+00
        -11   -1    0    0    0    0  0.00000000000E+00  0.00000000000E+00  0.45593999997E+02  0.45594000000E+02  0.51100000000E-03 0.  1.
         11   -1    0    0    0    0 -0.00000000000E+00 -0.00000000000E+00 -0.45593999997E+02  0.45594000000E+02  0.51100000000E-03 0. -1.
    9900012    2    1    2    0    0 -0.23182062257E+02 -0.11181848626E+02 -0.31475754637E+02  0.50528869670E+02  0.30000029850E+02 0.  0.
        -12    1    1    2    0    0  0.23182062257E+02  0.11181848626E+02  0.31475754637E+02  0.40659130330E+02  0.00000000000E+00 0.  1.
         11    1    3    3    0    0 -0.14790574737E+02 -0.96317002769E+01 -0.32897868945E+00  0.17653299366E+02  0.51100000000E-03 0.  1.
        -11    1    3    3    0    0 -0.14324116242E+01  0.16623615100E+01 -0.30848816741E+01  0.37857289992E+01  0.51100000000E-03 0. -1.
        -12    1    3    3    0    0 -0.69590758961E+01 -0.32125098593E+01 -0.28061894274E+02  0.29089841305E+02  0.00000000000E+00 0.  1.
</event>
<event>
 7    1  0.5138511E-013  0.5052885E+02  0.7816164E-02  0.1300439E+00
        -11   -1    0    0    0    0  0.00000000000E+00  0.00000000000E+00  0.45593999997E+02  0.45594000000E+02  0.51100000000E-03 0.  1.
         11   -1    0    0    0    0 -0.00000000000E+00 -0.00000000000E+00 -0.45593999997E+02  0.45594000000E+02  0.51100000000E-03 0. -1.
    9900012    2    1    2    0    0  0.15604271031E+02  0.57434795957E+01 -0.37103711030E+02  0.50528853372E+02  0.29999980310E+02 0.  0.
        -12    1    1    2    0    0 -0.15604271031E+02 -0.57434795957E+01  0.37103711030E+02  0.40659146628E+02  0.00000000000E+00 0.  1.
         11    1    3    3    0    0  0.28956317375E+01 -0.25794741073E+01 -0.40277844314E+01  0.55911910642E+01  0.51100000000E-03 0. -1.
        -11    1    3    3    0    0 -0.49112135595E+00 -0.84044520326E+01 -0.14009640630E+02  0.16344602932E+02  0.51100000000E-03 0.  1.
         12    1    3    3    0    0  0.13199760649E+02  0.16727405736E+02 -0.19066285969E+02  0.28593059377E+02  0.00000000000E+00 0. -1.
</event>
<event>
 7    1  0.5138511E-013  0.5052886E+02  0.7816164E-02  0.1300439E+00
        -11   -1    0    0    0    0  0.00000000000E+00  0.00000000000E+00  0.45593999997E+02  0.45594000000E+02  0.51100000000E-03 0. -1.
         11   -1    0    0    0    0 -0.00000000000E+00 -0.00000000000E+00 -0.45593999997E+02  0.45594000000E+02  0.51100000000E-03 0.  1.
    9900012    2    1    2    0    0 -0.17947476237E+02 -0.14653491708E+02  0.33411513410E+02  0.50528856491E+02  0.29999989791E+02 0.  0.
        -12    1    1    2    0    0  0.17947476237E+02  0.14653491708E+02 -0.33411513410E+02  0.40659143509E+02  0.00000000000E+00 0.  1.
         11    1    3    3    0    0 -0.50282323341E+01 -0.63198059378E+01  0.44950823065E+01  0.92427719165E+01  0.51100000000E-03 0. -1.
        -11    1    3    3    0    0 -0.18331448983E+02 -0.60976777645E+01  0.29645738588E+02  0.35384933413E+02  0.51100000000E-03 0.  1.
        -12    1    3    3    0    0  0.54122050800E+01 -0.22360080057E+01 -0.72930748476E+00  0.59011511620E+01  0.00000000000E+00 0.  1.
</event>
<event>
 7    1  0.5138511E-013  0.5052888E+02  0.7816164E-02  0.1300439E+00
        -11   -1    0    0    0    0  0.00000000000E+00  0.00000000000E+00  0.45593999997E+02  0.45594000000E+02  0.51100000000E-03 0.  1.
         11   -1    0    0    0    0 -0.00000000000E+00 -0.00000000000E+00 -0.45593999997E+02  0.45594000000E+02  0.51100000000E-03 0. -1.
    9900012    2    1    2    0    0 -0.17275961234E+02  0.34275612492E+02 -0.13412206289E+02  0.50528883854E+02  0.30000072962E+02 0.  0.
        -12    1    1    2    0    0  0.17275961234E+02 -0.34275612492E+02  0.13412206289E+02  0.40659116146E+02  0.00000000000E+00 0.  1.
         11    1    3    3    0    0  0.49925626850E+01  0.41890000735E+01 -0.32323017078E+01  0.72746943833E+01  0.51100000000E-03 0. -1.
        -11    1    3    3    0    0  0.27583889292E+01  0.16032518470E-01 -0.16437691512E+01  0.32110658370E+01  0.51100000000E-03 0.  1.
         12    1    3    3    0    0 -0.25026912849E+02  0.30070579900E+02 -0.85361354296E+01  0.40043123633E+02  0.00000000000E+00 0. -1.
</event>
<event>
 7    1  0.5138511E-013  0.5052886E+02  0.7816164E-02  0.1300439E+00
        -11   -1    0    0    0    0  0.00000000000E+00  0.00000000000E+00  0.45593999997E+02  0.45594000000E+02  0.51100000000E-03 0.  1.
         11   -1    0    0    0    0 -0.00000000000E+00 -0.00000000000E+00 -0.45593999997E+02  0.45594000000E+02  0.51100000000E-03 0. -1.
    9900012    2    1    2    0    0 -0.17283218028E+02 -0.28416953256E+02 -0.23386586985E+02  0.50528864389E+02  0.30000013798E+02 0.  0.
        -12    1    1    2    0    0  0.17283218028E+02  0.28416953256E+02  0.23386586985E+02  0.40659135611E+02  0.00000000000E+00 0.  1.
         11    1    3    3    0    0 -0.65581453887E+01  0.25383698847E+01 -0.76837630161E+01  0.10415988045E+02  0.51100000000E-03 0. -1.
        -11    1    3    3    0    0 -0.11974715262E+02 -0.17438973992E+02 -0.16018907142E+02  0.26535203142E+02  0.51100000000E-03 0.  1.
        -12    1    3    3    0    0  0.12496426224E+01 -0.13516349149E+02  0.31608317341E+00  0.13577673202E+02  0.00000000000E+00 0.  1.
</event>
<event>
 7    1  0.5138511E-013  0.5052886E+02  0.7816164E-02  0.1300439E+00
        -11   -1    0    0    0    0  0.00000000000E+00  0.00000000000E+00  0.45593999997E+02  0.45594000000E+02  0.51100000000E-03 0. -1.
         11   -1    0    0    0    0 -0.00000000000E+00 -0.00000000000E+00 -0.45593999997E+02  0.45594000000E+02  0.51100000000E-03 0.  1.
    9900012    2    1    2    0    0  0.20310222357E+02  0.23127300592E+02  0.26566675554E+02  0.50528863083E+02  0.30000009827E+02 0.  0.
        -12    1    1    2    0    0 -0.20310222357E+02 -0.23127300592E+02 -0.26566675554E+02  0.40659136917E+02  0.00000000000E+00 0.  1.
         11    1    3    3    0    0  0.11591688232E+02  0.18721224057E+02  0.20443910692E+02  0.30046712814E+02  0.51100000000E-03 0. -1.
        -11    1    3    3    0    0  0.11432469041E+02  0.87493107683E+01  0.40303937114E+01  0.14949777959E+02  0.51100000000E-03 0.  1.
        -12    1    3    3    0    0 -0.27139349167E+01 -0.43432342336E+01  0.20923711504E+01  0.55323723095E+01  0.00000000000E+00 0.  1.
</event>
<event>
 7    1  0.5138511E-013  0.5052883E+02  0.7816164E-02  0.1300439E+00
        -11   -1    0    0    0    0  0.00000000000E+00  0.00000000000E+00  0.45593999997E+02  0.45594000000E+02  0.51100000000E-03 0.  1.
         11   -1    0    0    0    0 -0.00000000000E+00 -0.00000000000E+00 -0.45593999997E+02  0.45594000000E+02  0.51100000000E-03 0. -1.
    9900012    2    1    2    0    0  0.14243752860E+02  0.77580548492E+01 -0.37283988775E+02  0.50528834618E+02  0.29999923305E+02 0.  0.
        -12    1    1    2    0    0 -0.14243752860E+02 -0.77580548492E+01  0.37283988775E+02  0.40659165382E+02  0.00000000000E+00 0.  1.
         11    1    3    3    0    0 -0.44620702851E+01  0.60993607391E+01 -0.51034811883E+00  0.75744787358E+01  0.51100000000E-03 0. -1.
        -11    1    3    3    0    0  0.60382494095E+01 -0.40703507625E+01 -0.70293676200E+01  0.10121275644E+02  0.51100000000E-03 0.  1.
         12    1    3    3    0    0  0.12667573735E+02  0.57290448726E+01 -0.29744273036E+02  0.32833080238E+02  0.00000000000E+00 0. -1.
</event>
<event>
 7    1  0.5138511E-013  0.5052886E+02  0.7816164E-02  0.1300439E+00
        -11   -1    0    0    0    0  0.00000000000E+00  0.00000000000E+00  0.45593999997E+02  0.45594000000E+02  0.51100000000E-03 0.  1.
         11   -1    0    0    0    0 -0.00000000000E+00 -0.00000000000E+00 -0.45593999997E+02  0.45594000000E+02  0.51100000000E-03 0. -1.
    9900012    2    1    2    0    0 -0.63371198630E+01 -0.47167468537E+01 -0.39884323611E+02  0.50528855162E+02  0.29999985752E+02 0.  0.
        -12    1    1    2    0    0  0.63371198630E+01  0.47167468537E+01  0.39884323611E+02  0.40659144838E+02  0.00000000000E+00 0.  1.
         11    1    3    3    0    0 -0.12600831555E+01  0.51485137526E+01 -0.28242588195E+01  0.60059505126E+01  0.51100000000E-03 0. -1.
        -11    1    3    3    0    0 -0.90791851601E+01  0.21314762323E+01 -0.62727604579E+01  0.11239320181E+02  0.51100000000E-03 0.  1.
         12    1    3    3    0    0  0.40021484526E+01 -0.11996736839E+02 -0.30787304333E+02  0.33283584469E+02  0.00000000000E+00 0. -1.
</event>
<event>
 7    1  0.5138511E-013  0.5052887E+02  0.7816164E-02  0.1300439E+00
        -11   -1    0    0    0    0  0.00000000000E+00  0.00000000000E+00  0.45593999997E+02  0.45594000000E+02  0.51100000000E-03 0.  1.
         11   -1    0    0    0    0 -0.00000000000E+00 -0.00000000000E+00 -0.45593999997E+02  0.45594000000E+02  0.51100000000E-03 0. -1.
    9900012    2    1    2    0    0 -0.16764360864E+02  0.12041867936E+02 -0.35030196945E+02  0.50528867243E+02  0.30000022472E+02 0.  0.
        -12    1    1    2    0    0  0.16764360864E+02 -0.12041867936E+02  0.35030196945E+02  0.40659132757E+02  0.00000000000E+00 0.  1.
         11    1    3    3    0    0 -0.60823676266E+01  0.12863456043E+02 -0.18168601879E+02  0.23077300358E+02  0.51100000000E-03 0. -1.
        -11    1    3    3    0    0  0.73149387923E+00  0.63519177596E+01 -0.74010817652E+00  0.64365909373E+01  0.51100000000E-03 0.  1.
        -12    1    3    3    0    0 -0.11413487116E+02 -0.71735058663E+01 -0.16121486889E+02  0.21014975948E+02  0.00000000000E+00 0.  1.
</event>
<event>
 7    1  0.5138511E-013  0.5052887E+02  0.7816164E-02  0.1300439E+00
        -11   -1    0    0    0    0  0.00000000000E+00  0.00000000000E+00  0.45593999997E+02  0.45594000000E+02  0.51100000000E-03 0.  1.
         11   -1    0    0    0    0 -0.00000000000E+00 -0.00000000000E+00 -0.45593999997E+02  0.45594000000E+02  0.51100000000E-03 0. -1.
    9900012    2    1    2    0    0 -0.11934470266E+02  0.37104543842E+02 -0.11575251689E+02  0.50528865652E+02  0.30000017637E+02 0.  0.
        -12    1    1    2    0    0  0.11934470266E+02 -0.37104543842E+02  0.11575251689E+02  0.40659134348E+02  0.00000000000E+00 0.  1.
         11    1    3    3    0    0  0.18125918382E+00  0.79234942721E+01  0.59628763987E+01  0.99181909429E+01  0.51100000000E-03 0. -1.
        -11    1    3    3    0    0  0.41893008436E+01  0.30883791359E+01 -0.54975878081E+01  0.75704556807E+01  0.51100000000E-03 0.  1.
         12    1    3    3    0    0 -0.16305030294E+02  0.26092670434E+02 -0.12040540279E+02  0.33040219029E+02  0.00000000000E+00 0. -1.
</event>
<event>
 7    1  0.5138511E-013  0.5052886E+02  0.7816164E-02  0.1300439E+00
        -11   -1    0    0    0    0  0.00000000000E+00  0.00000000000E+00  0.45593999997E+02  0.45594000000E+02  0.51100000000E-03 0. -1.
         11   -1    0    0    0    0 -0.00000000000E+00 -0.00000000000E+00 -0.45593999997E+02  0.45594000000E+02  0.51100000000E-03 0.  1.
    9900012    2    1    2    0    0 -0.21385571996E+02 -0.26592901657E+02  0.22105211969E+02  0.50528861982E+02  0.30000006482E+02 0.  0.
        -12    1    1    2    0    0  0.21385571996E+02  0.26592901657E+02 -0.22105211969E+02  0.40659138018E+02  0.00000000000E+00 0.  1.
         11    1    3    3    0    0  0.33232195953E+01 -0.60016467349E+01  0.26051220844E+01  0.73382704600E+01  0.51100000000E-03 0. -1.
        -11    1    3    3    0    0 -0.53370168762E+01 -0.32564314393E+01  0.15725263582E+02  0.16922529652E+02  0.51100000000E-03 0.  1.
         12    1    3    3    0    0 -0.19371774715E+02 -0.17334823483E+02  0.37748263028E+01  0.26268061870E+02  0.00000000000E+00 0. -1.
</event>
<event>
 7    1  0.5138511E-013  0.5052886E+02  0.7816164E-02  0.1300439E+00
        -11   -1    0    0    0    0  0.00000000000E+00  0.00000000000E+00  0.45593999997E+02  0.45594000000E+02  0.51100000000E-03 0.  1.
         11   -1    0    0    0    0 -0.00000000000E+00 -0.00000000000E+00 -0.45593999997E+02  0.45594000000E+02  0.51100000000E-03 0. -1.
    9900012    2    1    2    0    0 -0.15946997798E+02 -0.33778154616E+02 -0.16059111181E+02  0.50528861790E+02  0.30000005897E+02 0.  0.
        -12    1    1    2    0    0  0.15946997798E+02  0.33778154616E+02  0.16059111181E+02  0.40659138210E+02  0.00000000000E+00 0.  1.
         11    1    3    3    0    0 -0.37015050481E+01 -0.20093724597E+02 -0.19400646474E+02  0.28175237207E+02  0.51100000000E-03 0. -1.
        -11    1    3    3    0    0  0.24211138615E+01 -0.99792078913E+00 -0.25374804702E+00  0.26309744515E+01  0.51100000000E-03 0.  1.
         12    1    3    3    0    0 -0.14666606612E+02 -0.12686509230E+02  0.35952833395E+01  0.19722650132E+02  0.00000000000E+00 0. -1.
</event>
<event>
 7    1  0.5138511E-013  0.5052886E+02  0.7816164E-02  0.1300439E+00
        -11   -1    0    0    0    0  0.00000000000E+00  0.00000000000E+00  0.45593999997E+02  0.45594000000E+02  0.51100000000E-03 0. -1.
         11   -1    0    0    0    0 -0.00000000000E+00 -0.00000000000E+00 -0.45593999997E+02  0.45594000000E+02  0.51100000000E-03 0.  1.
    9900012    2    1    2    0    0 -0.23617541299E+02  0.26476321254E+02  0.19859052134E+02  0.50528858398E+02  0.29999995586E+02 0.  0.
        -12    1    1    2    0    0  0.23617541299E+02 -0.26476321254E+02 -0.19859052134E+02  0.40659141602E+02  0.00000000000E+00 0.  1.
         11    1    3    3    0    0 -0.82069477074E+01  0.97537507277E+01  0.20192972478E+02  0.23879819549E+02  0.51100000000E-03 0. -1.
        -11    1    3    3    0    0 -0.15210823258E+02  0.72313023754E+01  0.17396742092E+01  0.16931844106E+02  0.51100000000E-03 0.  1.
        -12    1    3    3    0    0 -0.19977033367E+00  0.94912681509E+01 -0.20735945529E+01  0.97171947427E+01  0.00000000000E+00 0.  1.
</event>
<event>
 7    1  0.5138511E-013  0.5052887E+02  0.7816164E-02  0.1300439E+00
        -11   -1    0    0    0    0  0.00000000000E+00  0.00000000000E+00  0.45593999997E+02  0.45594000000E+02  0.51100000000E-03 0.  1.
         11   -1    0    0    0    0 -0.00000000000E+00 -0.00000000000E+00 -0.45593999997E+02  0.45594000000E+02  0.51100000000E-03 0. -1.
    9900012    2    1    2    0    0  0.28490852968E+02 -0.10409948021E+02 -0.27075256657E+02  0.50528865188E+02  0.30000016224E+02 0.  0.
        -12    1    1    2    0    0 -0.28490852968E+02  0.10409948021E+02  0.27075256657E+02  0.40659134812E+02  0.00000000000E+00 0.  1.
         11    1    3    3    0    0  0.21151992576E+01 -0.77147575901E+01 -0.10114792197E+02  0.12895757986E+02  0.51100000000E-03 0.  1.
        -11    1    3    3    0    0  0.21164220774E+02  0.56365603581E+01 -0.17128467201E+02  0.27804306187E+02  0.51100000000E-03 0. -1.
         12    1    3    3    0    0  0.52114329365E+01 -0.83317507892E+01  0.16800274116E+00  0.98288010147E+01  0.00000000000E+00 0. -1.
</event>
<event>
 7    1  0.5138511E-013  0.5052886E+02  0.7816164E-02  0.1300439E+00
        -11   -1    0    0    0    0  0.00000000000E+00  0.00000000000E+00  0.45593999997E+02  0.45594000000E+02  0.51100000000E-03 0.  1.
         11   -1    0    0    0    0 -0.00000000000E+00 -0.00000000000E+00 -0.45593999997E+02  0.45594000000E+02  0.51100000000E-03 0. -1.
    9900012    2    1    2    0    0  0.14077661039E+02 -0.37228464396E+02 -0.83082348202E+01  0.50528857518E+02  0.29999992911E+02 0.  0.
        -12    1    1    2    0    0 -0.14077661039E+02  0.37228464396E+02  0.83082348202E+01  0.40659142482E+02  0.00000000000E+00 0.  1.
         11    1    3    3    0    0 -0.28000814985E+01 -0.16535821595E+02 -0.35192966893E+01  0.17136490355E+02  0.51100000000E-03 0. -1.
        -11    1    3    3    0    0 -0.98398434172E-01 -0.60306486984E+01  0.59945208023E+01  0.85036866056E+01  0.51100000000E-03 0.  1.
         12    1    3    3    0    0  0.16976140971E+02 -0.14661994102E+02 -0.10783458933E+02  0.24888680557E+02  0.00000000000E+00 0. -1.
</event>
<event>
 7    1  0.5138511E-013  0.5052885E+02  0.7816164E-02  0.1300439E+00
        -11   -1    0    0    0    0  0.00000000000E+00  0.00000000000E+00  0.45593999997E+02  0.45594000000E+02  0.51100000000E-03 0. -1.
         11   -1    0    0    0    0 -0.00000000000E+00 -0.00000000000E+00 -0.45593999997E+02  0.45594000000E+02  0.51100000000E-03 0.  1.
    9900012    2    1    2    0    0  0.32678127364E+02  0.15398632287E+02 -0.18659804847E+02  0.50528853412E+02  0.29999980432E+02 0.  0.
        -12    1    1    2    0    0 -0.32678127364E+02 -0.15398632287E+02  0.18659804847E+02  0.40659146588E+02  0.00000000000E+00 0.  1.
         11    1    3    3    0    0  0.16480760405E+02  0.15560393692E+02 -0.16005464606E+01  0.22722303242E+02  0.51100000000E-03 0. -1.
        -11    1    3    3    0    0  0.13825419971E+02  0.62022017750E+01 -0.11312513490E+02  0.18909852087E+02  0.51100000000E-03 0.  1.
         12    1    3    3    0    0  0.23719469878E+01 -0.63639631806E+01 -0.57467448963E+01  0.88966980830E+01  0.00000000000E+00 0. -1.
</event>
<event>
 7    1  0.5138511E-013  0.5052887E+02  0.7816164E-02  0.1300439E+00
        -11   -1    0    0    0    0  0.00000000000E+00  0.00000000000E+00  0.45593999997E+02  0.45594000000E+02  0.51100000000E-03 0.  1.
         11   -1    0    0    0    0 -0.00000000000E+00 -0.00000000000E+00 -0.45593999997E+02  0.45594000000E+02  0.51100000000E-03 0. -1.
    9900012    2    1    2    0    0 -0.22600141948E+02 -0.27092305776E+02 -0.20209051740E+02  0.50528865472E+02  0.30000017089E+02 0.  0.
        -12    1    1    2    0    0  0.22600141948E+02  0.27092305776E+02  0.20209051740E+02  0.40659134528E+02  0.00000000000E+00 0.  1.
         11    1    3    3    0    0 -0.19939796236E+02 -0.86963558635E+01 -0.69791635427E+01  0.22845804937E+02  0.51100000000E-03 0. -1.
        -11    1    3    3    0    0  0.14208218827E+01 -0.75136703281E+00 -0.89242887142E+01  0.90678672551E+01  0.51100000000E-03 0.  1.
        -12    1    3    3    0    0 -0.40811675950E+01 -0.17644582879E+02 -0.43055994836E+01  0.18615193280E+02  0.00000000000E+00 0.  1.
</event>
<event>
 7    1  0.5138511E-013  0.5052886E+02  0.7816164E-02  0.1300439E+00
        -11   -1    0    0    0    0  0.00000000000E+00  0.00000000000E+00  0.45593999997E+02  0.45594000000E+02  0.51100000000E-03 0.  1.
         11   -1    0    0    0    0 -0.00000000000E+00 -0.00000000000E+00 -0.45593999997E+02  0.45594000000E+02  0.51100000000E-03 0. -1.
    9900012    2    1    2    0    0  0.15034327052E+02  0.53353050101E+00 -0.37773667886E+02  0.50528860434E+02  0.30000001775E+02 0.  0.
        -12    1    1    2    0    0 -0.15034327052E+02 -0.53353050101E+00  0.37773667886E+02  0.40659139566E+02  0.00000000000E+00 0.  1.
         11    1    3    3    0    0  0.87596288229E+01 -0.64243036894E+01 -0.23865629811E+02  0.26221576260E+02  0.51100000000E-03 0. -1.
        -11    1    3    3    0    0 -0.60372535516E+01  0.16510495458E+01 -0.63527007956E+01  0.89180268394E+01  0.51100000000E-03 0.  1.
         12    1    3    3    0    0  0.12311951781E+02  0.53067846446E+01 -0.75553372788E+01  0.15389257335E+02  0.00000000000E+00 0. -1.
</event>
<event>
 7    1  0.5138511E-013  0.5052886E+02  0.7816164E-02  0.1300439E+00
        -11   -1    0    0    0    0  0.00000000000E+00  0.00000000000E+00  0.45593999997E+02  0.45594000000E+02  0.51100000000E-03 0.  1.
         11   -1    0    0    0    0 -0.00000000000E+00 -0.00000000000E+00 -0.45593999997E+02  0.45594000000E+02  0.51100000000E-03 0. -1.
    9900012    2    1    2    0    0  0.22518469468E+02 -0.23822189968E+02 -0.24053849407E+02  0.50528857444E+02  0.29999992687E+02 0.  0.
        -12    1    1    2    0    0 -0.22518469468E+02  0.23822189968E+02  0.24053849407E+02  0.40659142556E+02  0.00000000000E+00 0.  1.
         11    1    3    3    0    0  0.10895196706E+02 -0.10843157193E+02 -0.16599236766E+02  0.22623307243E+02  0.51100000000E-03 0. -1.
        -11    1    3    3    0    0  0.11802070050E+02 -0.18142720019E+02 -0.68594254038E+01  0.22704600069E+02  0.51100000000E-03 0.  1.
        -12    1    3    3    0    0 -0.17879728790E+00  0.51636872440E+01 -0.59518723797E+00  0.52009501316E+01  0.00000000000E+00 0.  1.
</event>
<event>
 7    1  0.5138511E-013  0.5052895E+02  0.7816164E-02  0.1300438E+00
        -11   -1    0    0    0    0  0.00000000000E+00  0.00000000000E+00  0.45593999997E+02  0.45594000000E+02  0.51100000000E-03 0.  1.
         11   -1    0    0    0    0 -0.00000000000E+00 -0.00000000000E+00 -0.45593999997E+02  0.45594000000E+02  0.51100000000E-03 0. -1.
    9900012    2    1    2    0    0  0.29942737890E+00 -0.22548381731E+02 -0.33832521446E+02  0.50528945869E+02  0.30000261463E+02 0.  0.
        -12    1    1    2    0    0 -0.29942737890E+00  0.22548381731E+02  0.33832521446E+02  0.40659054131E+02  0.00000000000E+00 0.  1.
         11    1    3    3    0    0 -0.24968975813E+01 -0.12734790264E+02 -0.21843451174E+02  0.25407592174E+02  0.51100000000E-03 0. -1.
        -11    1    3    3    0    0 -0.74017324928E+01  0.19827643356E+00 -0.63623044414E+01  0.97623703835E+01  0.51100000000E-03 0.  1.
        -12    1    3    3    0    0  0.10198057453E+02 -0.10011867900E+02 -0.56267658302E+01  0.15358983312E+02  0.00000000000E+00 0.  1.
</event>
<event>
 7    1  0.5138511E-013  0.5052886E+02  0.7816164E-02  0.1300439E+00
        -11   -1    0    0    0    0  0.00000000000E+00  0.00000000000E+00  0.45593999997E+02  0.45594000000E+02  0.51100000000E-03 0.  1.
         11   -1    0    0    0    0 -0.00000000000E+00 -0.00000000000E+00 -0.45593999997E+02  0.45594000000E+02  0.51100000000E-03 0. -1.
    9900012    2    1    2    0    0 -0.14591316844E+02 -0.37858624170E+02  0.26426209511E+01  0.50528863305E+02  0.30000010502E+02 0.  0.
        -12    1    1    2    0    0  0.14591316844E+02  0.37858624170E+02 -0.26426209511E+01  0.40659136695E+02  0.00000000000E+00 0.  1.
         11    1    3    3    0    0 -0.54791253380E+01  0.11999384796E+00 -0.29328012674E+01  0.62158295125E+01  0.51100000000E-03 0. -1.
        -11    1    3    3    0    0 -0.13420140923E+02 -0.15229796481E+02  0.59630095427E+01  0.21156662457E+02  0.51100000000E-03 0.  1.
         12    1    3    3    0    0  0.43079494173E+01 -0.22748821537E+02 -0.38758732430E+00  0.23156371336E+02  0.00000000000E+00 0. -1.
</event>
<event>
 7    1  0.5138511E-013  0.5052886E+02  0.7816164E-02  0.1300439E+00
        -11   -1    0    0    0    0  0.00000000000E+00  0.00000000000E+00  0.45593999997E+02  0.45594000000E+02  0.51100000000E-03 0.  1.
         11   -1    0    0    0    0 -0.00000000000E+00 -0.00000000000E+00 -0.45593999997E+02  0.45594000000E+02  0.51100000000E-03 0. -1.
    9900012    2    1    2    0    0  0.38922498815E+02  0.26718220468E+01 -0.11448408900E+02  0.50528860641E+02  0.30000002405E+02 0.  0.
        -12    1    1    2    0    0 -0.38922498815E+02 -0.26718220468E+01  0.11448408900E+02  0.40659139359E+02  0.00000000000E+00 0.  1.
         11    1    3    3    0    0  0.15824527465E+02 -0.10629145516E+02 -0.75590869030E+01  0.20506930510E+02  0.51100000000E-03 0. -1.
        -11    1    3    3    0    0 -0.13360400102E+01  0.71080731976E+00 -0.19476233942E+01  0.24664726030E+01  0.51100000000E-03 0.  1.
         12    1    3    3    0    0  0.24434011361E+02  0.12590160243E+02 -0.19416986025E+01  0.27555457528E+02  0.00000000000E+00 0. -1.
</event>
<event>
 7    1  0.5138511E-013  0.5052886E+02  0.7816164E-02  0.1300439E+00
        -11   -1    0    0    0    0  0.00000000000E+00  0.00000000000E+00  0.45593999997E+02  0.45594000000E+02  0.51100000000E-03 0.  1.
         11   -1    0    0    0    0 -0.00000000000E+00 -0.00000000000E+00 -0.45593999997E+02  0.45594000000E+02  0.51100000000E-03 0. -1.
    9900012    2    1    2    0    0  0.14694531771E+01  0.31000148638E+02 -0.26267800852E+02  0.50528857488E+02  0.29999992821E+02 0.  0.
        -12    1    1    2    0    0 -0.14694531771E+01 -0.31000148638E+02  0.26267800852E+02  0.40659142512E+02  0.00000000000E+00 0.  1.
         11    1    3    3    0    0  0.43590202802E+01  0.10187362678E+01  0.12626700267E+01  0.46511522490E+01  0.51100000000E-03 0.  1.
        -11    1    3    3    0    0  0.85731660961E+00  0.26945944405E+02 -0.11807504200E+02  0.29431888613E+02  0.51100000000E-03 0. -1.
         12    1    3    3    0    0 -0.37468837127E+01  0.30354679654E+01 -0.15722966678E+02  0.16445816626E+02  0.00000000000E+00 0. -1.
</event>
<event>
 7    1  0.5138511E-013  0.5052886E+02  0.7816164E-02  0.1300439E+00
        -11   -1    0    0    0    0  0.00000000000E+00  0.00000000000E+00  0.45593999997E+02  0.45594000000E+02  0.51100000000E-03 0.  1.
         11   -1    0    0    0    0 -0.00000000000E+00 -0.00000000000E+00 -0.45593999997E+02  0.45594000000E+02  0.51100000000E-03 0. -1.
    9900012    2    1    2    0    0  0.39567666545E+02  0.15818192043E+01 -0.92229639929E+01  0.50528862619E+02  0.30000008415E+02 0.  0.
        -12    1    1    2    0    0 -0.39567666545E+02 -0.15818192043E+01  0.92229639929E+01  0.40659137381E+02  0.00000000000E+00 0.  1.
         11    1    3    3    0    0 -0.45505667810E+00 -0.78690525323E+00 -0.18581141840E+01  0.20685466008E+01  0.51100000000E-03 0.  1.
        -11    1    3    3    0    0  0.35074747044E+02 -0.60164294789E+01  0.10340909271E+01  0.35602031517E+02  0.51100000000E-03 0. -1.
         12    1    3    3    0    0  0.49479761792E+01  0.83851539364E+01 -0.83989407360E+01  0.12858284500E+02  0.00000000000E+00 0. -1.
</event>
<event>
 7    1  0.5138511E-013  0.5052886E+02  0.7816164E-02  0.1300439E+00
        -11   -1    0    0    0    0  0.00000000000E+00  0.00000000000E+00  0.45593999997E+02  0.45594000000E+02  0.51100000000E-03 0.  1.
         11   -1    0    0    0    0 -0.00000000000E+00 -0.00000000000E+00 -0.45593999997E+02  0.45594000000E+02  0.51100000000E-03 0. -1.
    9900012    2    1    2    0    0  0.29854200903E+02 -0.26306401346E+01 -0.27476754440E+02  0.50528860638E+02  0.30000002395E+02 0.  0.
        -12    1    1    2    0    0 -0.29854200903E+02  0.26306401346E+01  0.27476754440E+02  0.40659139362E+02  0.00000000000E+00 0.  1.
         11    1    3    3    0    0  0.13005636487E+02  0.82062316509E+01 -0.13332530081E+02  0.20353013953E+02  0.51100000000E-03 0. -1.
        -11    1    3    3    0    0 -0.24286803450E+01 -0.12968520426E+01 -0.69832484202E+01  0.75064020807E+01  0.51100000000E-03 0.  1.
        -12    1    3    3    0    0  0.19277244761E+02 -0.95400197429E+01 -0.71609759390E+01  0.22669444605E+02  0.00000000000E+00 0.  1.
</event>
<event>
 7    1  0.5138511E-013  0.5052876E+02  0.7816164E-02  0.1300439E+00
        -11   -1    0    0    0    0  0.00000000000E+00  0.00000000000E+00  0.45593999997E+02  0.45594000000E+02  0.51100000000E-03 0.  1.
         11   -1    0    0    0    0 -0.00000000000E+00 -0.00000000000E+00 -0.45593999997E+02  0.45594000000E+02  0.51100000000E-03 0. -1.
    9900012    2    1    2    0    0  0.26764564280E+02  0.12270435903E+02 -0.28040472320E+02  0.50528762596E+02  0.29999704386E+02 0.  0.
        -12    1    1    2    0    0 -0.26764564280E+02 -0.12270435903E+02  0.28040472320E+02  0.40659237404E+02  0.00000000000E+00 0.  1.
         11    1    3    3    0    0  0.79558909546E+01 -0.75491567307E+01 -0.14628417652E+02  0.18283231976E+02  0.51100000000E-03 0. -1.
        -11    1    3    3    0    0  0.10091986977E+02  0.80893429519E+01 -0.82890239126E+00  0.12960430161E+02  0.51100000000E-03 0.  1.
        -12    1    3    3    0    0  0.87166863489E+01  0.11730249682E+02 -0.12583152276E+02  0.19285100459E+02  0.00000000000E+00 0.  1.
</event>
<event>
 7    1  0.5138511E-013  0.5052886E+02  0.7816164E-02  0.1300439E+00
        -11   -1    0    0    0    0  0.00000000000E+00  0.00000000000E+00  0.45593999997E+02  0.45594000000E+02  0.51100000000E-03 0.  1.
         11   -1    0    0    0    0 -0.00000000000E+00 -0.00000000000E+00 -0.45593999997E+02  0.45594000000E+02  0.51100000000E-03 0. -1.
    9900012    2    1    2    0    0 -0.22607902775E+02  0.25414416289E+02 -0.22274563205E+02  0.50528856020E+02  0.29999988358E+02 0.  0.
        -12    1    1    2    0    0  0.22607902775E+02 -0.25414416289E+02  0.22274563205E+02  0.40659143980E+02  0.00000000000E+00 0.  1.
         11    1    3    3    0    0  0.27646116772E+00  0.34528157797E+01 -0.41831570417E+01  0.54311297796E+01  0.51100000000E-03 0. -1.
        -11    1    3    3    0    0 -0.41338692740E+01 -0.39165957869E+00  0.59752506675E+01  0.72763928701E+01  0.51100000000E-03 0.  1.
         12    1    3    3    0    0 -0.18750494668E+02  0.22353260088E+02 -0.24066656831E+02  0.37821333370E+02  0.00000000000E+00 0. -1.
</event>
<event>
 7    1  0.5138511E-013  0.5052886E+02  0.7816164E-02  0.1300439E+00
        -11   -1    0    0    0    0  0.00000000000E+00  0.00000000000E+00  0.45593999997E+02  0.45594000000E+02  0.51100000000E-03 0.  1.
         11   -1    0    0    0    0 -0.00000000000E+00 -0.00000000000E+00 -0.45593999997E+02  0.45594000000E+02  0.51100000000E-03 0. -1.
    9900012    2    1    2    0    0  0.20037985670E+02 -0.32692345332E+02 -0.13522405728E+02  0.50528858719E+02  0.29999996563E+02 0.  0.
        -12    1    1    2    0    0 -0.20037985670E+02  0.32692345332E+02  0.13522405728E+02  0.40659141281E+02  0.00000000000E+00 0.  1.
         11    1    3    3    0    0  0.16524888897E+02 -0.14061469806E+02 -0.11438332873E+02  0.24528194906E+02  0.51100000000E-03 0. -1.
        -11    1    3    3    0    0  0.36855797992E+01 -0.39508551417E+01 -0.84250987782E+01  0.10008748398E+02  0.51100000000E-03 0.  1.
        -12    1    3    3    0    0 -0.17248302692E+00 -0.14680020384E+02  0.63410259238E+01  0.15991915415E+02  0.00000000000E+00 0.  1.
</event>
<event>
 7    1  0.5138511E-013  0.5052886E+02  0.7816164E-02  0.1300439E+00
        -11   -1    0    0    0    0  0.00000000000E+00  0.00000000000E+00  0.45593999997E+02  0.45594000000E+02  0.51100000000E-03 0.  1.
         11   -1    0    0    0    0 -0.00000000000E+00 -0.00000000000E+00 -0.45593999997E+02  0.45594000000E+02  0.51100000000E-03 0. -1.
    9900012    2    1    2    0    0  0.10436973237E+02  0.14619699956E+02 -0.36476018704E+02  0.50528856161E+02  0.29999988788E+02 0.  0.
        -12    1    1    2    0    0 -0.10436973237E+02 -0.14619699956E+02  0.36476018704E+02  0.40659143839E+02  0.00000000000E+00 0.  1.
         11    1    3    3    0    0  0.52272930474E+01 -0.26372037380E+01 -0.65573982731E+01  0.87908423107E+01  0.51100000000E-03 0. -1.
        -11    1    3    3    0    0  0.48601185250E+01 -0.46140233284E+01 -0.10675291084E+02  0.12604435860E+02  0.51100000000E-03 0.  1.
        -12    1    3    3    0    0  0.34956166492E+00  0.21870927023E+02 -0.19243329347E+02  0.29133577991E+02  0.00000000000E+00 0.  1.
</event>
<event>
 7    1  0.5138511E-013  0.5052882E+02  0.7816164E-02  0.1300439E+00
        -11   -1    0    0    0    0  0.00000000000E+00  0.00000000000E+00  0.45593999997E+02  0.45594000000E+02  0.51100000000E-03 0.  1.
         11   -1    0    0    0    0 -0.00000000000E+00 -0.00000000000E+00 -0.45593999997E+02  0.45594000000E+02  0.51100000000E-03 0. -1.
    9900012    2    1    2    0    0  0.15698769682E+02  0.62586152302E+01 -0.36980366839E+02  0.50528816957E+02  0.29999869623E+02 0.  0.
        -12    1    1    2    0    0 -0.15698769682E+02 -0.62586152302E+01  0.36980366839E+02  0.40659183043E+02  0.00000000000E+00 0.  1.
         11    1    3    3    0    0 -0.27821984821E+01  0.94448055676E+00  0.15644047936E+01  0.33286685830E+01  0.51100000000E-03 0. -1.
        -11    1    3    3    0    0  0.14002061900E+02  0.12502504100E+02 -0.26784280516E+02  0.32707308499E+02  0.51100000000E-03 0.  1.
         12    1    3    3    0    0  0.44789062640E+01 -0.71883694270E+01 -0.11760491117E+02  0.14492839875E+02  0.00000000000E+00 0. -1.
</event>
<event>
 7    1  0.5138511E-013  0.5052886E+02  0.7816164E-02  0.1300439E+00
        -11   -1    0    0    0    0  0.00000000000E+00  0.00000000000E+00  0.45593999997E+02  0.45594000000E+02  0.51100000000E-03 0.  1.
         11   -1    0    0    0    0 -0.00000000000E+00 -0.00000000000E+00 -0.45593999997E+02  0.45594000000E+02  0.51100000000E-03 0. -1.
    9900012    2    1    2    0    0  0.32635301201E+01  0.40498265505E+02 -0.15509191431E+01  0.50528862184E+02  0.30000007095E+02 0.  0.
        -12    1    1    2    0    0 -0.32635301201E+01 -0.40498265505E+02  0.15509191431E+01  0.40659137816E+02  0.00000000000E+00 0.  1.
         11    1    3    3    0    0  0.10752446473E+02  0.17807822898E+02  0.14355971609E+01  0.20851728969E+02  0.51100000000E-03 0. -1.
        -11    1    3    3    0    0  0.12854321491E+01 -0.14997105309E+01 -0.34106391203E+01  0.39413103096E+01  0.51100000000E-03 0.  1.
        -12    1    3    3    0    0 -0.87743485022E+01  0.24190153138E+02  0.42412281628E+00  0.25735822905E+02  0.00000000000E+00 0.  1.
</event>
<event>
 7    1  0.5138511E-013  0.5052890E+02  0.7816164E-02  0.1300439E+00
        -11   -1    0    0    0    0  0.00000000000E+00  0.00000000000E+00  0.45593999997E+02  0.45594000000E+02  0.51100000000E-03 0.  1.
         11   -1    0    0    0    0 -0.00000000000E+00 -0.00000000000E+00 -0.45593999997E+02  0.45594000000E+02  0.51100000000E-03 0. -1.
    9900012    2    1    2    0    0  0.25640396896E+02 -0.28850665147E+02 -0.12781692692E+02  0.50528898922E+02  0.30000118764E+02 0.  0.
        -12    1    1    2    0    0 -0.25640396896E+02  0.28850665147E+02  0.12781692692E+02  0.40659101078E+02  0.00000000000E+00 0.  1.
         11    1    3    3    0    0 -0.36953326292E+00 -0.13111638246E+01 -0.71683816140E+01  0.72966705169E+01  0.51100000000E-03 0. -1.
        -11    1    3    3    0    0 -0.27856999651E+01 -0.80342050520E+00  0.15549280402E+01  0.32898951769E+01  0.51100000000E-03 0.  1.
         12    1    3    3    0    0  0.28795630124E+02 -0.26736080817E+02 -0.71682391179E+01  0.39942333228E+02  0.00000000000E+00 0. -1.
</event>
<event>
 7    1  0.5138511E-013  0.5052886E+02  0.7816164E-02  0.1300439E+00
        -11   -1    0    0    0    0  0.00000000000E+00  0.00000000000E+00  0.45593999997E+02  0.45594000000E+02  0.51100000000E-03 0.  1.
         11   -1    0    0    0    0 -0.00000000000E+00 -0.00000000000E+00 -0.45593999997E+02  0.45594000000E+02  0.51100000000E-03 0. -1.
    9900012    2    1    2    0    0 -0.11446990379E+02 -0.30183547624E+02 -0.24720150729E+02  0.50528856035E+02  0.29999988405E+02 0.  0.
        -12    1    1    2    0    0  0.11446990379E+02  0.30183547624E+02  0.24720150729E+02  0.40659143965E+02  0.00000000000E+00 0.  1.
         11    1    3    3    0    0 -0.37485968025E+01  0.19099246904E+01 -0.84076897325E+00  0.42903010428E+01  0.51100000000E-03 0. -1.
        -11    1    3    3    0    0  0.60531499224E+01 -0.20842933004E+02 -0.11306046300E+02  0.24472334654E+02  0.51100000000E-03 0.  1.
         12    1    3    3    0    0 -0.13751543498E+02 -0.11250539310E+02 -0.12573335456E+02  0.21766220339E+02  0.00000000000E+00 0. -1.
</event>
<event>
 7    1  0.5138511E-013  0.5052887E+02  0.7816164E-02  0.1300439E+00
        -11   -1    0    0    0    0  0.00000000000E+00  0.00000000000E+00  0.45593999997E+02  0.45594000000E+02  0.51100000000E-03 0.  1.
         11   -1    0    0    0    0 -0.00000000000E+00 -0.00000000000E+00 -0.45593999997E+02  0.45594000000E+02  0.51100000000E-03 0. -1.
    9900012    2    1    2    0    0 -0.17379476823E+02  0.18148976648E+02 -0.31964564892E+02  0.50528868470E+02  0.30000026200E+02 0.  0.
        -12    1    1    2    0    0  0.17379476823E+02 -0.18148976648E+02  0.31964564892E+02  0.40659131530E+02  0.00000000000E+00 0.  1.
         11    1    3    3    0    0 -0.45823834149E+01  0.93462826001E+01 -0.21694194418E+02  0.24062196656E+02  0.51100000000E-03 0. -1.
        -11    1    3    3    0    0 -0.15658862975E+02  0.37636583251E+01 -0.12365653857E+02  0.20304544054E+02  0.51100000000E-03 0.  1.
        -12    1    3    3    0    0  0.28617695669E+01  0.50390357232E+01  0.20952833827E+01  0.61621277597E+01  0.00000000000E+00 0.  1.
</event>
<event>
 7    1  0.5138511E-013  0.5052886E+02  0.7816164E-02  0.1300439E+00
        -11   -1    0    0    0    0  0.00000000000E+00  0.00000000000E+00  0.45593999997E+02  0.45594000000E+02  0.51100000000E-03 0.  1.
         11   -1    0    0    0    0 -0.00000000000E+00 -0.00000000000E+00 -0.45593999997E+02  0.45594000000E+02  0.51100000000E-03 0. -1.
    9900012    2    1    2    0    0  0.21204593456E+02 -0.31004942395E+02 -0.15563564939E+02  0.50528858467E+02  0.29999995797E+02 0.  0.
        -12    1    1    2    0    0 -0.21204593456E+02  0.31004942395E+02  0.15563564939E+02  0.40659141533E+02  0.00000000000E+00 0.  1.
         11    1    3    3    0    0  0.14206418066E+02 -0.14169771231E+02 -0.10619113321E+00  0.20065293614E+02  0.51100000000E-03 0. -1.
        -11    1    3    3    0    0  0.61620583288E+01  0.24552782498E+01 -0.20004503094E+01  0.69282866449E+01  0.51100000000E-03 0.  1.
        -12    1    3    3    0    0  0.83611706064E+00 -0.19290449415E+02 -0.13456923497E+02  0.23535278208E+02  0.00000000000E+00 0.  1.
</event>
<event>
 7    1  0.5138511E-013  0.5052886E+02  0.7816164E-02  0.1300439E+00
        -11   -1    0    0    0    0  0.00000000000E+00  0.00000000000E+00  0.45593999997E+02  0.45594000000E+02  0.51100000000E-03 0. -1.
         11   -1    0    0    0    0 -0.00000000000E+00 -0.00000000000E+00 -0.45593999997E+02  0.45594000000E+02  0.51100000000E-03 0.  1.
    9900012    2    1    2    0    0  0.24787085212E+02  0.32203597686E+02 -0.13015576606E+01  0.50528863885E+02  0.30000012265E+02 0.  0.
        -12    1    1    2    0    0 -0.24787085212E+02 -0.32203597686E+02  0.13015576606E+01  0.40659136115E+02  0.00000000000E+00 0.  1.
         11    1    3    3    0    0  0.16673600431E+02  0.21634180117E+02  0.57842396232E+01  0.27919601160E+02  0.51100000000E-03 0. -1.
        -11    1    3    3    0    0  0.46005838580E+01  0.14902382519E+02 -0.35193817401E+01  0.15988509144E+02  0.51100000000E-03 0.  1.
        -12    1    3    3    0    0  0.35129009230E+01 -0.43329649489E+01 -0.35664155437E+01  0.66207535805E+01  0.00000000000E+00 0.  1.
</event>
<event>
 7    1  0.6966870E-013  0.5052886E+02  0.7816164E-02  0.1300439E+00
        -11   -1    0    0    0    0  0.00000000000E+00  0.00000000000E+00  0.45593999997E+02  0.45594000000E+02  0.51100000000E-03 0.  1.
         11   -1    0    0    0    0 -0.00000000000E+00 -0.00000000000E+00 -0.45593999997E+02  0.45594000000E+02  0.51100000000E-03 0. -1.
    9900012    2    1    2    0    0 -0.82959806623E+01  0.21914685802E+02  0.33227833934E+02  0.50528859614E+02  0.29999999283E+02 0.  0.
        -12    1    1    2    0    0  0.82959806623E+01 -0.21914685802E+02 -0.33227833934E+02  0.40659140386E+02  0.00000000000E+00 0.  1.
         11    1    3    3    0    0 -0.13122560374E+02  0.14545745166E+02  0.14391429958E+02  0.24308302074E+02  0.51100000000E-03 0. -1.
        -11    1    3    3    0    0 -0.46500962537E+01 -0.14539979290E+01  0.28358789506E+01  0.56373499829E+01  0.51100000000E-03 0.  1.
        -12    1    3    3    0    0  0.94766759650E+01  0.88229385653E+01  0.16000525025E+02  0.20583207558E+02  0.00000000000E+00 0.  1.
</event>
<event>
 7    1  0.5138511E-013  0.5052885E+02  0.7816164E-02  0.1300439E+00
        -11   -1    0    0    0    0  0.00000000000E+00  0.00000000000E+00  0.45593999997E+02  0.45594000000E+02  0.51100000000E-03 0. -1.
         11   -1    0    0    0    0 -0.00000000000E+00 -0.00000000000E+00 -0.45593999997E+02  0.45594000000E+02  0.51100000000E-03 0.  1.
    9900012    2    1    2    0    0  0.25858305083E+02 -0.23182690194E+02  0.21144196996E+02  0.50528854251E+02  0.29999982983E+02 0.  0.
        -12    1    1    2    0    0 -0.25858305083E+02  0.23182690194E+02 -0.21144196996E+02  0.40659145749E+02  0.00000000000E+00 0.  1.
         11    1    3    3    0    0 -0.14303652463E+01  0.11262297130E+01  0.46888215903E+01  0.50298495276E+01  0.51100000000E-03 0.  1.
        -11    1    3    3    0    0  0.20362801871E+02 -0.42085347524E+01  0.51568407930E+01  0.21423082692E+02  0.51100000000E-03 0. -1.
        -12    1    3    3    0    0  0.69258684574E+01 -0.20100385155E+02  0.11298534613E+02  0.24075922031E+02  0.00000000000E+00 0.  1.
</event>
<event>
 7    1  0.5138511E-013  0.5052886E+02  0.7816164E-02  0.1300439E+00
        -11   -1    0    0    0    0  0.00000000000E+00  0.00000000000E+00  0.45593999997E+02  0.45594000000E+02  0.51100000000E-03 0. -1.
         11   -1    0    0    0    0 -0.00000000000E+00 -0.00000000000E+00 -0.45593999997E+02  0.45594000000E+02  0.51100000000E-03 0.  1.
    9900012    2    1    2    0    0 -0.31556132711E+02  0.25112209969E+02  0.51723110404E+01  0.50528863232E+02  0.30000010281E+02 0.  0.
        -12    1    1    2    0    0  0.31556132711E+02 -0.25112209969E+02 -0.51723110404E+01  0.40659136768E+02  0.00000000000E+00 0.  1.
         11    1    3    3    0    0  0.15195956850E+01  0.87114474415E+01 -0.20625927094E+01  0.90803511231E+01  0.51100000000E-03 0. -1.
        -11    1    3    3    0    0 -0.23323252036E+02  0.63356442312E+01 -0.26281183418E+01  0.24310933335E+02  0.51100000000E-03 0.  1.
         12    1    3    3    0    0 -0.97524763601E+01  0.10065118296E+02  0.98630220915E+01  0.17137578774E+02  0.00000000000E+00 0. -1.
</event>
<event>
 7    1  0.5138511E-013  0.5052887E+02  0.7816164E-02  0.1300439E+00
        -11   -1    0    0    0    0  0.00000000000E+00  0.00000000000E+00  0.45593999997E+02  0.45594000000E+02  0.51100000000E-03 0.  1.
         11   -1    0    0    0    0 -0.00000000000E+00 -0.00000000000E+00 -0.45593999997E+02  0.45594000000E+02  0.51100000000E-03 0. -1.
    9900012    2    1    2    0    0 -0.14207926867E+02 -0.15910816611E+02 -0.34614244747E+02  0.50528865596E+02  0.30000017465E+02 0.  0.
        -12    1    1    2    0    0  0.14207926867E+02  0.15910816611E+02  0.34614244747E+02  0.40659134404E+02  0.00000000000E+00 0.  1.
         11    1    3    3    0    0 -0.45292627546E+01  0.47216679515E+01 -0.47684989242E+01  0.80961071877E+01  0.51100000000E-03 0. -1.
        -11    1    3    3    0    0 -0.11796390708E+02 -0.96177282839E+01 -0.65350401980E+01  0.16563884862E+02  0.51100000000E-03 0.  1.
        -12    1    3    3    0    0  0.21177265955E+01 -0.11014756279E+02 -0.23310705625E+02  0.25868873546E+02  0.00000000000E+00 0.  1.
</event>
<event>
 7    1  0.5138511E-013  0.5052888E+02  0.7816164E-02  0.1300439E+00
        -11   -1    0    0    0    0  0.00000000000E+00  0.00000000000E+00  0.45593999997E+02  0.45594000000E+02  0.51100000000E-03 0. -1.
         11   -1    0    0    0    0 -0.00000000000E+00 -0.00000000000E+00 -0.45593999997E+02  0.45594000000E+02  0.51100000000E-03 0.  1.
    9900012    2    1    2    0    0 -0.21382806329E+02  0.19024946161E+02 -0.28878898169E+02  0.50528883650E+02  0.30000072344E+02 0.  0.
        -12    1    1    2    0    0  0.21382806329E+02 -0.19024946161E+02  0.28878898169E+02  0.40659116350E+02  0.00000000000E+00 0.  1.
         11    1    3    3    0    0 -0.57846800759E+01  0.32591092360E+01  0.18310977785E+01  0.68874694866E+01  0.51100000000E-03 0. -1.
        -11    1    3    3    0    0  0.13843631530E+01 -0.40206120220E+01 -0.15561904058E+01  0.45280803008E+01  0.51100000000E-03 0.  1.
         12    1    3    3    0    0 -0.16982489406E+02  0.19786448947E+02 -0.29153805541E+02  0.39113333863E+02  0.00000000000E+00 0. -1.
</event>
<event>
 7    1  0.5138511E-013  0.5052888E+02  0.7816164E-02  0.1300439E+00
        -11   -1    0    0    0    0  0.00000000000E+00  0.00000000000E+00  0.45593999997E+02  0.45594000000E+02  0.51100000000E-03 0.  1.
         11   -1    0    0    0    0 -0.00000000000E+00 -0.00000000000E+00 -0.45593999997E+02  0.45594000000E+02  0.51100000000E-03 0. -1.
    9900012    2    1    2    0    0 -0.56496450371E+01 -0.38394826626E+02  0.12127781891E+02  0.50528876862E+02  0.30000051711E+02 0.  0.
        -12    1    1    2    0    0  0.56496450371E+01  0.38394826626E+02 -0.12127781891E+02  0.40659123138E+02  0.00000000000E+00 0.  1.
         11    1    3    3    0    0  0.21261998244E+00 -0.96973116201E+00  0.75886560518E+01  0.76533186735E+01  0.51100000000E-03 0. -1.
        -11    1    3    3    0    0 -0.45917878377E+01 -0.48046873630E+01 -0.56014381158E+01  0.86916998009E+01  0.51100000000E-03 0.  1.
         12    1    3    3    0    0 -0.12704771818E+01 -0.32620408101E+02  0.10140563955E+02  0.34183858388E+02  0.00000000000E+00 0. -1.
</event>
<event>
 7    1  0.5138511E-013  0.5052886E+02  0.7816164E-02  0.1300439E+00
        -11   -1    0    0    0    0  0.00000000000E+00  0.00000000000E+00  0.45593999997E+02  0.45594000000E+02  0.51100000000E-03 0.  1.
         11   -1    0    0    0    0 -0.00000000000E+00 -0.00000000000E+00 -0.45593999997E+02  0.45594000000E+02  0.51100000000E-03 0. -1.
    9900012    2    1    2    0    0  0.26143000566E+02 -0.17106108948E+02 -0.26020949962E+02  0.50528864755E+02  0.30000014908E+02 0.  0.
        -12    1    1    2    0    0 -0.26143000566E+02  0.17106108948E+02  0.26020949962E+02  0.40659135245E+02  0.00000000000E+00 0.  1.
         11    1    3    3    0    0  0.12461599366E+02 -0.98638444873E+01 -0.15447772181E+02  0.22163495943E+02  0.51100000000E-03 0. -1.
        -11    1    3    3    0    0  0.54653494374E+01 -0.69304077791E+00 -0.15725898661E+02  0.16662960090E+02  0.51100000000E-03 0.  1.
        -12    1    3    3    0    0  0.82160517635E+01 -0.65492236831E+01  0.51527208792E+01  0.11702408722E+02  0.00000000000E+00 0.  1.
</event>
<event>
 7    1  0.5507410E-013  0.5052886E+02  0.7816164E-02  0.1300439E+00
        -11   -1    0    0    0    0  0.00000000000E+00  0.00000000000E+00  0.45593999997E+02  0.45594000000E+02  0.51100000000E-03 0. -1.
         11   -1    0    0    0    0 -0.00000000000E+00 -0.00000000000E+00 -0.45593999997E+02  0.45594000000E+02  0.51100000000E-03 0.  1.
    9900012    2    1    2    0    0 -0.12985021827E+02 -0.28873795766E+02  0.25511928300E+02  0.50528863765E+02  0.30000011901E+02 0.  0.
        -12    1    1    2    0    0  0.12985021827E+02  0.28873795766E+02 -0.25511928300E+02  0.40659136235E+02  0.00000000000E+00 0.  1.
         11    1    3    3    0    0 -0.37801460116E+01 -0.14568510163E+02  0.86868622062E+01  0.17377933349E+02  0.51100000000E-03 0. -1.
        -11    1    3    3    0    0 -0.14272429913E+02 -0.11095508427E+02  0.33291276082E+01  0.18381938248E+02  0.51100000000E-03 0.  1.
        -12    1    3    3    0    0  0.50675540974E+01 -0.32097771762E+01  0.13495938485E+02  0.14768992168E+02  0.00000000000E+00 0.  1.
</event>
<event>
 7    1  0.5138511E-013  0.5052887E+02  0.7816164E-02  0.1300439E+00
        -11   -1    0    0    0    0  0.00000000000E+00  0.00000000000E+00  0.45593999997E+02  0.45594000000E+02  0.51100000000E-03 0.  1.
         11   -1    0    0    0    0 -0.00000000000E+00 -0.00000000000E+00 -0.45593999997E+02  0.45594000000E+02  0.51100000000E-03 0. -1.
    9900012    2    1    2    0    0  0.30981947130E+02 -0.18536643580E+02 -0.18699651012E+02  0.50528866325E+02  0.30000019682E+02 0.  0.
        -12    1    1    2    0    0 -0.30981947130E+02  0.18536643580E+02  0.18699651012E+02  0.40659133675E+02  0.00000000000E+00 0.  1.
         11    1    3    3    0    0  0.13942271329E+02 -0.10320038284E+02 -0.20503066957E+02  0.26856393557E+02  0.51100000000E-03 0. -1.
        -11    1    3    3    0    0  0.48926151981E+00 -0.24031031579E+01 -0.44238878897E+01  0.50581682400E+01  0.51100000000E-03 0.  1.
         12    1    3    3    0    0  0.16550414282E+02 -0.58135021383E+01  0.62273038342E+01  0.18614304528E+02  0.00000000000E+00 0. -1.
</event>
<event>
 7    1  0.5138511E-013  0.5052886E+02  0.7816164E-02  0.1300439E+00
        -11   -1    0    0    0    0  0.00000000000E+00  0.00000000000E+00  0.45593999997E+02  0.45594000000E+02  0.51100000000E-03 0.  1.
         11   -1    0    0    0    0 -0.00000000000E+00 -0.00000000000E+00 -0.45593999997E+02  0.45594000000E+02  0.51100000000E-03 0. -1.
    9900012    2    1    2    0    0  0.33800893671E+02 -0.16984769167E+01 -0.22533976429E+02  0.50528864120E+02  0.30000012979E+02 0.  0.
        -12    1    1    2    0    0 -0.33800893671E+02  0.16984769167E+01  0.22533976429E+02  0.40659135880E+02  0.00000000000E+00 0.  1.
         11    1    3    3    0    0  0.63845286172E+01  0.46590051973E+01 -0.13770096833E+02  0.15877156614E+02  0.51100000000E-03 0. -1.
        -11    1    3    3    0    0  0.58063737881E+01  0.55239909169E+01  0.11036614329E+01  0.80899024120E+01  0.51100000000E-03 0.  1.
         12    1    3    3    0    0  0.21609991266E+02 -0.11881473031E+02 -0.98675410289E+01  0.26561805094E+02  0.00000000000E+00 0. -1.
</event>
<event>
 7    1  0.5138511E-013  0.5052887E+02  0.7816164E-02  0.1300439E+00
        -11   -1    0    0    0    0  0.00000000000E+00  0.00000000000E+00  0.45593999997E+02  0.45594000000E+02  0.51100000000E-03 0.  1.
         11   -1    0    0    0    0 -0.00000000000E+00 -0.00000000000E+00 -0.45593999997E+02  0.45594000000E+02  0.51100000000E-03 0. -1.
    9900012    2    1    2    0    0  0.19375935395E+02  0.26602223402E+02 -0.23875927796E+02  0.50528867072E+02  0.30000021951E+02 0.  0.
        -12    1    1    2    0    0 -0.19375935395E+02 -0.26602223402E+02  0.23875927796E+02  0.40659132928E+02  0.00000000000E+00 0.  1.
         11    1    3    3    0    0  0.46778658877E+01  0.20449343367E+01 -0.37349404375E+01  0.63256593362E+01  0.51100000000E-03 0. -1.
        -11    1    3    3    0    0 -0.77909203404E+00  0.22191459674E+02 -0.17615604589E+02  0.28343912788E+02  0.51100000000E-03 0.  1.
        -12    1    3    3    0    0  0.15477161541E+02  0.23658293914E+01 -0.25253827698E+01  0.15859294947E+02  0.00000000000E+00 0.  1.
</event>
<event>
 7    1  0.5138511E-013  0.5052888E+02  0.7816164E-02  0.1300439E+00
        -11   -1    0    0    0    0  0.00000000000E+00  0.00000000000E+00  0.45593999997E+02  0.45594000000E+02  0.51100000000E-03 0.  1.
         11   -1    0    0    0    0 -0.00000000000E+00 -0.00000000000E+00 -0.45593999997E+02  0.45594000000E+02  0.51100000000E-03 0. -1.
    9900012    2    1    2    0    0  0.18388225023E+02 -0.26818947170E+02 -0.24408637542E+02  0.50528876382E+02  0.30000050249E+02 0.  0.
        -12    1    1    2    0    0 -0.18388225023E+02  0.26818947170E+02  0.24408637542E+02  0.40659123618E+02  0.00000000000E+00 0.  1.
         11    1    3    3    0    0  0.91132000997E+01 -0.22123467550E+02 -0.14356782291E+02  0.27903681307E+02  0.51100000000E-03 0. -1.
        -11    1    3    3    0    0  0.47581383765E+01 -0.82767058659E+01  0.15484121854E+01  0.96716762435E+01  0.51100000000E-03 0.  1.
         12    1    3    3    0    0  0.45168865468E+01  0.35812262464E+01 -0.11600267436E+02  0.12953518831E+02  0.00000000000E+00 0. -1.
</event>
<event>
 7    1  0.5138511E-013  0.5052885E+02  0.7816164E-02  0.1300439E+00
        -11   -1    0    0    0    0  0.00000000000E+00  0.00000000000E+00  0.45593999997E+02  0.45594000000E+02  0.51100000000E-03 0.  1.
         11   -1    0    0    0    0 -0.00000000000E+00 -0.00000000000E+00 -0.45593999997E+02  0.45594000000E+02  0.51100000000E-03 0. -1.
    9900012    2    1    2    0    0 -0.18589755038E+02  0.35461240101E+02 -0.70772632403E+01  0.50528853467E+02  0.29999980597E+02 0.  0.
        -12    1    1    2    0    0  0.18589755038E+02 -0.35461240101E+02  0.70772632403E+01  0.40659146533E+02  0.00000000000E+00 0.  1.
         11    1    3    3    0    0  0.38681293219E+01  0.85585491886E+00 -0.19838572246E+01  0.44306435020E+01  0.51100000000E-03 0. -1.
        -11    1    3    3    0    0 -0.83948842043E+01  0.25001196583E+01  0.43757923388E+01  0.97914369713E+01  0.51100000000E-03 0.  1.
         12    1    3    3    0    0 -0.14063000155E+02  0.32105265524E+02 -0.94691983545E+01  0.36306772993E+02  0.00000000000E+00 0. -1.
</event>
<event>
 7    1  0.5138511E-013  0.5052887E+02  0.7816164E-02  0.1300439E+00
        -11   -1    0    0    0    0  0.00000000000E+00  0.00000000000E+00  0.45593999997E+02  0.45594000000E+02  0.51100000000E-03 0. -1.
         11   -1    0    0    0    0 -0.00000000000E+00 -0.00000000000E+00 -0.45593999997E+02  0.45594000000E+02  0.51100000000E-03 0.  1.
    9900012    2    1    2    0    0 -0.40059309567E+02  0.56107727825E+01  0.41152824137E+01  0.50528873060E+02  0.30000040152E+02 0.  0.
        -12    1    1    2    0    0  0.40059309567E+02 -0.56107727825E+01 -0.41152824137E+01  0.40659126940E+02  0.00000000000E+00 0.  1.
         11    1    3    3    0    0 -0.19213152013E+01 -0.41796319864E+00  0.62827933134E+01  0.65832846982E+01  0.51100000000E-03 0. -1.
        -11    1    3    3    0    0 -0.21154070563E+02 -0.72186862110E+01 -0.12386768726E+01  0.22386121876E+02  0.51100000000E-03 0.  1.
         12    1    3    3    0    0 -0.16983923803E+02  0.13247422192E+02 -0.92883402703E+00  0.21559466485E+02  0.00000000000E+00 0. -1.
</event>
<event>
 7    1  0.5138511E-013  0.5052885E+02  0.7816164E-02  0.1300439E+00
        -11   -1    0    0    0    0  0.00000000000E+00  0.00000000000E+00  0.45593999997E+02  0.45594000000E+02  0.51100000000E-03 0.  1.
         11   -1    0    0    0    0 -0.00000000000E+00 -0.00000000000E+00 -0.45593999997E+02  0.45594000000E+02  0.51100000000E-03 0. -1.
    9900012    2    1    2    0    0 -0.20910885834E+02 -0.33190675060E+02 -0.10690185149E+02  0.50528854463E+02  0.29999983625E+02 0.  0.
        -12    1    1    2    0    0  0.20910885834E+02  0.33190675060E+02  0.10690185149E+02  0.40659145537E+02  0.00000000000E+00 0.  1.
         11    1    3    3    0    0 -0.59706959692E+01 -0.17461584054E+02 -0.86218349764E+00  0.18474292643E+02  0.51100000000E-03 0. -1.
        -11    1    3    3    0    0 -0.21204564332E+01  0.74528187059E+00  0.56414809653E+01  0.60727331816E+01  0.51100000000E-03 0.  1.
         12    1    3    3    0    0 -0.12819733431E+02 -0.16474372877E+02 -0.15469482617E+02  0.25981828638E+02  0.00000000000E+00 0. -1.
</event>
<event>
 7    1  0.5138511E-013  0.5052886E+02  0.7816164E-02  0.1300439E+00
        -11   -1    0    0    0    0  0.00000000000E+00  0.00000000000E+00  0.45593999997E+02  0.45594000000E+02  0.51100000000E-03 0.  1.
         11   -1    0    0    0    0 -0.00000000000E+00 -0.00000000000E+00 -0.45593999997E+02  0.45594000000E+02  0.51100000000E-03 0. -1.
    9900012    2    1    2    0    0 -0.33554862509E+02 -0.15521506322E+02 -0.16920985188E+02  0.50528859622E+02  0.29999999308E+02 0.  0.
        -12    1    1    2    0    0  0.33554862509E+02  0.15521506322E+02  0.16920985188E+02  0.40659140378E+02  0.00000000000E+00 0.  1.
         11    1    3    3    0    0  0.29574051889E+01 -0.92597831305E+00 -0.44473031669E+01  0.54205338305E+01  0.51100000000E-03 0. -1.
        -11    1    3    3    0    0 -0.13872790289E+02 -0.13837004800E+02 -0.10851736886E+02  0.22398151841E+02  0.51100000000E-03 0.  1.
        -12    1    3    3    0    0 -0.22639477410E+02 -0.75852320984E+00 -0.16219451348E+01  0.22710173950E+02  0.00000000000E+00 0.  1.
</event>
<event>
 7    1  0.5138511E-013  0.5052886E+02  0.7816164E-02  0.1300439E+00
        -11   -1    0    0    0    0  0.00000000000E+00  0.00000000000E+00  0.45593999997E+02  0.45594000000E+02  0.51100000000E-03 0.  1.
         11   -1    0    0    0    0 -0.00000000000E+00 -0.00000000000E+00 -0.45593999997E+02  0.45594000000E+02  0.51100000000E-03 0. -1.
    9900012    2    1    2    0    0  0.36107567187E+01  0.76362020511E+01 -0.39772057827E+02  0.50528859212E+02  0.29999998061E+02 0.  0.
        -12    1    1    2    0    0 -0.36107567187E+01 -0.76362020511E+01  0.39772057827E+02  0.40659140788E+02  0.00000000000E+00 0.  1.
         11    1    3    3    0    0  0.61692236744E+01  0.10751289776E+02 -0.23368059994E+02  0.26452141326E+02  0.51100000000E-03 0. -1.
        -11    1    3    3    0    0  0.68448911968E+01  0.18310930320E+00 -0.32640344399E+01  0.75855115581E+01  0.51100000000E-03 0.  1.
        -12    1    3    3    0    0 -0.94033581525E+01 -0.32981970284E+01 -0.13139963392E+02  0.16491206328E+02  0.00000000000E+00 0.  1.
</event>
<event>
 7    1  0.5138511E-013  0.5052886E+02  0.7816164E-02  0.1300439E+00
        -11   -1    0    0    0    0  0.00000000000E+00  0.00000000000E+00  0.45593999997E+02  0.45594000000E+02  0.51100000000E-03 0. -1.
         11   -1    0    0    0    0 -0.00000000000E+00 -0.00000000000E+00 -0.45593999997E+02  0.45594000000E+02  0.51100000000E-03 0.  1.
    9900012    2    1    2    0    0 -0.86073726979E+01 -0.15197265488E+02  0.36716782534E+02  0.50528857575E+02  0.29999993086E+02 0.  0.
        -12    1    1    2    0    0  0.86073726979E+01  0.15197265488E+02 -0.36716782534E+02  0.40659142425E+02  0.00000000000E+00 0.  1.
         11    1    3    3    0    0  0.89280475470E+00 -0.66017777852E+01  0.48547403831E+01  0.82431228733E+01  0.51100000000E-03 0. -1.
        -11    1    3    3    0    0 -0.50476413975E+01 -0.17195610254E+02  0.18227628914E+02  0.25561966899E+02  0.51100000000E-03 0.  1.
         12    1    3    3    0    0 -0.44525360551E+01  0.86001225511E+01  0.13634413236E+02  0.16723767803E+02  0.00000000000E+00 0. -1.
</event>
<event>
 7    1  0.5138511E-013  0.5052886E+02  0.7816164E-02  0.1300439E+00
        -11   -1    0    0    0    0  0.00000000000E+00  0.00000000000E+00  0.45593999997E+02  0.45594000000E+02  0.51100000000E-03 0. -1.
         11   -1    0    0    0    0 -0.00000000000E+00 -0.00000000000E+00 -0.45593999997E+02  0.45594000000E+02  0.51100000000E-03 0.  1.
    9900012    2    1    2    0    0  0.39583332377E+01 -0.19805282527E+02  0.35288075773E+02  0.50528856997E+02  0.29999991329E+02 0.  0.
        -12    1    1    2    0    0 -0.39583332377E+01  0.19805282527E+02 -0.35288075773E+02  0.40659143003E+02  0.00000000000E+00 0.  1.
         11    1    3    3    0    0 -0.40101683975E+01 -0.72345780686E+01  0.20010285127E+02  0.21652530604E+02  0.51100000000E-03 0. -1.
        -11    1    3    3    0    0 -0.59280086835E+01 -0.44699446575E+01  0.12405344261E+01  0.75273247649E+01  0.51100000000E-03 0.  1.
         12    1    3    3    0    0  0.13896510319E+02 -0.81007598005E+01  0.14037256219E+02  0.21349001629E+02  0.00000000000E+00 0. -1.
</event>
<event>
 7    1  0.5138511E-013  0.5052886E+02  0.7816164E-02  0.1300439E+00
        -11   -1    0    0    0    0  0.00000000000E+00  0.00000000000E+00  0.45593999997E+02  0.45594000000E+02  0.51100000000E-03 0. -1.
         11   -1    0    0    0    0 -0.00000000000E+00 -0.00000000000E+00 -0.45593999997E+02  0.45594000000E+02  0.51100000000E-03 0.  1.
    9900012    2    1    2    0    0 -0.17555446180E+02  0.34397331380E+02  0.12719896114E+02  0.50528857685E+02  0.29999993419E+02 0.  0.
        -12    1    1    2    0    0  0.17555446180E+02 -0.34397331380E+02 -0.12719896114E+02  0.40659142315E+02  0.00000000000E+00 0.  1.
         11    1    3    3    0    0 -0.47602748741E+01  0.51612537396E+01  0.63375385904E+01  0.94584963227E+01  0.51100000000E-03 0. -1.
        -11    1    3    3    0    0 -0.16128269303E+02  0.28328063035E+02 -0.13247352682E+01  0.32624456314E+02  0.51100000000E-03 0.  1.
         12    1    3    3    0    0  0.33330979970E+01  0.90801460575E+00  0.77070927914E+01  0.84459050478E+01  0.00000000000E+00 0. -1.
</event>
<event>
 7    1  0.5138511E-013  0.5052885E+02  0.7816164E-02  0.1300439E+00
        -11   -1    0    0    0    0  0.00000000000E+00  0.00000000000E+00  0.45593999997E+02  0.45594000000E+02  0.51100000000E-03 0. -1.
         11   -1    0    0    0    0 -0.00000000000E+00 -0.00000000000E+00 -0.45593999997E+02  0.45594000000E+02  0.51100000000E-03 0.  1.
    9900012    2    1    2    0    0  0.25130607161E+02 -0.18014385878E+02 -0.26402662377E+02  0.50528854714E+02  0.29999984388E+02 0.  0.
        -12    1    1    2    0    0 -0.25130607161E+02  0.18014385878E+02  0.26402662377E+02  0.40659145286E+02  0.00000000000E+00 0.  1.
         11    1    3    3    0    0  0.85527626268E+00  0.25478265981E+01 -0.54992844400E+00  0.27432352094E+01  0.51100000000E-03 0.  1.
        -11    1    3    3    0    0  0.61661822106E+01 -0.10186121427E+02 -0.24050706974E+02  0.26836828780E+02  0.51100000000E-03 0. -1.
         12    1    3    3    0    0  0.18109148687E+02 -0.10376091050E+02 -0.18020269588E+01  0.20948790724E+02  0.00000000000E+00 0. -1.
</event>
<event>
 7    1  0.5138511E-013  0.5052886E+02  0.7816164E-02  0.1300439E+00
        -11   -1    0    0    0    0  0.00000000000E+00  0.00000000000E+00  0.45593999997E+02  0.45594000000E+02  0.51100000000E-03 0.  1.
         11   -1    0    0    0    0 -0.00000000000E+00 -0.00000000000E+00 -0.45593999997E+02  0.45594000000E+02  0.51100000000E-03 0. -1.
    9900012    2    1    2    0    0  0.32068647768E+02 -0.16669532064E+02 -0.18625095617E+02  0.50528860122E+02  0.30000000827E+02 0.  0.
        -12    1    1    2    0    0 -0.32068647768E+02  0.16669532064E+02  0.18625095617E+02  0.40659139878E+02  0.00000000000E+00 0.  1.
         11    1    3    3    0    0  0.19742555356E+02 -0.10947756269E+02 -0.10735772841E+02  0.24997573443E+02  0.51100000000E-03 0. -1.
        -11    1    3    3    0    0  0.14983992803E+02  0.13472954678E+01 -0.63267151955E+00  0.15057739502E+02  0.51100000000E-03 0.  1.
        -12    1    3    3    0    0 -0.26579003911E+01 -0.70690712622E+01 -0.72566512568E+01  0.10473547177E+02  0.00000000000E+00 0.  1.
</event>
<event>
 7    1  0.5138511E-013  0.5052886E+02  0.7816164E-02  0.1300439E+00
        -11   -1    0    0    0    0  0.00000000000E+00  0.00000000000E+00  0.45593999997E+02  0.45594000000E+02  0.51100000000E-03 0.  1.
         11   -1    0    0    0    0 -0.00000000000E+00 -0.00000000000E+00 -0.45593999997E+02  0.45594000000E+02  0.51100000000E-03 0. -1.
    9900012    2    1    2    0    0 -0.12421195002E+02 -0.27423472066E+02 -0.27328245715E+02  0.50528856879E+02  0.29999990969E+02 0.  0.
        -12    1    1    2    0    0  0.12421195002E+02  0.27423472066E+02  0.27328245715E+02  0.40659143121E+02  0.00000000000E+00 0.  1.
         11    1    3    3    0    0  0.15773031517E+01 -0.12563203889E+02 -0.14218254105E+02  0.19038926631E+02  0.51100000000E-03 0. -1.
        -11    1    3    3    0    0 -0.59355939666E+01  0.10417672092E+00  0.41668282822E+01  0.72529019517E+01  0.51100000000E-03 0.  1.
         12    1    3    3    0    0 -0.80629041875E+01 -0.14964444898E+02 -0.17276819892E+02  0.24237028296E+02  0.00000000000E+00 0. -1.
</event>
<event>
 7    1  0.5138511E-013  0.5052885E+02  0.7816164E-02  0.1300439E+00
        -11   -1    0    0    0    0  0.00000000000E+00  0.00000000000E+00  0.45593999997E+02  0.45594000000E+02  0.51100000000E-03 0.  1.
         11   -1    0    0    0    0 -0.00000000000E+00 -0.00000000000E+00 -0.45593999997E+02  0.45594000000E+02  0.51100000000E-03 0. -1.
    9900012    2    1    2    0    0  0.73135174970E+01  0.38325707612E+02 -0.11437610571E+02  0.50528851734E+02  0.29999975330E+02 0.  0.
        -12    1    1    2    0    0 -0.73135174970E+01 -0.38325707612E+02  0.11437610571E+02  0.40659148266E+02  0.00000000000E+00 0.  1.
         11    1    3    3    0    0  0.14447547559E+02  0.14062682033E+02 -0.16554289405E+01  0.20229461231E+02  0.51100000000E-03 0. -1.
        -11    1    3    3    0    0 -0.14081579151E+01 -0.11717065596E+01  0.99936478130E+00  0.20867523099E+01  0.51100000000E-03 0.  1.
         12    1    3    3    0    0 -0.57258721469E+01  0.25434732139E+02 -0.10781546412E+02  0.28212638193E+02  0.00000000000E+00 0. -1.
</event>
<event>
 7    1  0.5138511E-013  0.5052886E+02  0.7816164E-02  0.1300439E+00
        -11   -1    0    0    0    0  0.00000000000E+00  0.00000000000E+00  0.45593999997E+02  0.45594000000E+02  0.51100000000E-03 0.  1.
         11   -1    0    0    0    0 -0.00000000000E+00 -0.00000000000E+00 -0.45593999997E+02  0.45594000000E+02  0.51100000000E-03 0. -1.
    9900012    2    1    2    0    0 -0.20715827719E+02 -0.34488153141E+02  0.58811069632E+01  0.50528860261E+02  0.30000001250E+02 0.  0.
        -12    1    1    2    0    0  0.20715827719E+02  0.34488153141E+02 -0.58811069632E+01  0.40659139739E+02  0.00000000000E+00 0.  1.
         11    1    3    3    0    0 -0.13950402596E+02 -0.17904951421E+02  0.52550960395E+01  0.23298434553E+02  0.51100000000E-03 0. -1.
        -11    1    3    3    0    0 -0.50520052256E+01 -0.57897143822E+01  0.10152509360E+02  0.12732517269E+02  0.51100000000E-03 0.  1.
         12    1    3    3    0    0 -0.17134198975E+01 -0.10793487338E+02 -0.95264984364E+01  0.14497908440E+02  0.00000000000E+00 0. -1.
</event>
<event>
 7    1  0.5138511E-013  0.5052886E+02  0.7816164E-02  0.1300439E+00
        -11   -1    0    0    0    0  0.00000000000E+00  0.00000000000E+00  0.45593999997E+02  0.45594000000E+02  0.51100000000E-03 0. -1.
         11   -1    0    0    0    0 -0.00000000000E+00 -0.00000000000E+00 -0.45593999997E+02  0.45594000000E+02  0.51100000000E-03 0.  1.
    9900012    2    1    2    0    0 -0.22671585652E+02 -0.91505613890E+01  0.32487411634E+02  0.50528862227E+02  0.30000007227E+02 0.  0.
        -12    1    1    2    0    0  0.22671585652E+02  0.91505613890E+01 -0.32487411634E+02  0.40659137773E+02  0.00000000000E+00 0.  1.
         11    1    3    3    0    0 -0.29776953872E+01 -0.69418037665E+01 -0.15075514462E+01  0.77024684988E+01  0.51100000000E-03 0.  1.
        -11    1    3    3    0    0 -0.17666477147E+02 -0.81737724132E+01  0.22789389141E+02  0.29971173283E+02  0.51100000000E-03 0. -1.
         12    1    3    3    0    0 -0.20274131175E+01  0.59650147907E+01  0.11205573940E+02  0.12855220446E+02  0.00000000000E+00 0. -1.
</event>
<event>
 7    1  0.5138511E-013  0.5052886E+02  0.7816164E-02  0.1300439E+00
        -11   -1    0    0    0    0  0.00000000000E+00  0.00000000000E+00  0.45593999997E+02  0.45594000000E+02  0.51100000000E-03 0.  1.
         11   -1    0    0    0    0 -0.00000000000E+00 -0.00000000000E+00 -0.45593999997E+02  0.45594000000E+02  0.51100000000E-03 0. -1.
    9900012    2    1    2    0    0 -0.12443369600E+02 -0.37340488663E+02 -0.10198847997E+02  0.50528855382E+02  0.29999986420E+02 0.  0.
        -12    1    1    2    0    0  0.12443369600E+02  0.37340488663E+02  0.10198847997E+02  0.40659144618E+02  0.00000000000E+00 0.  1.
         11    1    3    3    0    0  0.24776862077E+01 -0.97454985224E+01 -0.53215964178E+01  0.11376865082E+02  0.51100000000E-03 0. -1.
        -11    1    3    3    0    0 -0.98930435962E+01 -0.29658878151E+02  0.82259083983E+00  0.31276157384E+02  0.51100000000E-03 0.  1.
        -12    1    3    3    0    0 -0.50280122110E+01  0.20638880108E+01 -0.56998424194E+01  0.78758329161E+01  0.00000000000E+00 0.  1.
</event>
<event>
 7    1  0.5138511E-013  0.5052886E+02  0.7816164E-02  0.1300439E+00
        -11   -1    0    0    0    0  0.00000000000E+00  0.00000000000E+00  0.45593999997E+02  0.45594000000E+02  0.51100000000E-03 0. -1.
         11   -1    0    0    0    0 -0.00000000000E+00 -0.00000000000E+00 -0.45593999997E+02  0.45594000000E+02  0.51100000000E-03 0.  1.
    9900012    2    1    2    0    0  0.25368117922E+02  0.12213611602E+02  0.29333455292E+02  0.50528864315E+02  0.30000013573E+02 0.  0.
        -12    1    1    2    0    0 -0.25368117922E+02 -0.12213611602E+02 -0.29333455292E+02  0.40659135685E+02  0.00000000000E+00 0.  1.
         11    1    3    3    0    0  0.39123957162E+01  0.10045132864E+02  0.21516172156E+00  0.10782292397E+02  0.51100000000E-03 0. -1.
        -11    1    3    3    0    0  0.15788361651E+02  0.72905815932E+01  0.12378086270E+02  0.21345771562E+02  0.51100000000E-03 0.  1.
         12    1    3    3    0    0  0.56673605547E+01 -0.51221028557E+01  0.16740207301E+02  0.18400800357E+02  0.00000000000E+00 0. -1.
</event>
<event>
 7    1  0.5138511E-013  0.5052886E+02  0.7816164E-02  0.1300439E+00
        -11   -1    0    0    0    0  0.00000000000E+00  0.00000000000E+00  0.45593999997E+02  0.45594000000E+02  0.51100000000E-03 0. -1.
         11   -1    0    0    0    0 -0.00000000000E+00 -0.00000000000E+00 -0.45593999997E+02  0.45594000000E+02  0.51100000000E-03 0.  1.
    9900012    2    1    2    0    0  0.40194064740E+02 -0.46761812087E+01  0.39669111365E+01  0.50528857179E+02  0.29999991880E+02 0.  0.
        -12    1    1    2    0    0 -0.40194064740E+02  0.46761812087E+01 -0.39669111365E+01  0.40659142821E+02  0.00000000000E+00 0.  1.
         11    1    3    3    0    0  0.21040368396E+02 -0.28978773056E+01  0.81727846580E+01  0.22757179185E+02  0.51100000000E-03 0. -1.
        -11    1    3    3    0    0  0.11164671666E+02  0.87799448907E+01 -0.25073320069E+01  0.14423038506E+02  0.51100000000E-03 0.  1.
        -12    1    3    3    0    0  0.79890246772E+01 -0.10558248794E+02 -0.16985415145E+01  0.13348639487E+02  0.00000000000E+00 0.  1.
</event>
<event>
 7    1  0.5138511E-013  0.5052886E+02  0.7816164E-02  0.1300439E+00
        -11   -1    0    0    0    0  0.00000000000E+00  0.00000000000E+00  0.45593999997E+02  0.45594000000E+02  0.51100000000E-03 0.  1.
         11   -1    0    0    0    0 -0.00000000000E+00 -0.00000000000E+00 -0.45593999997E+02  0.45594000000E+02  0.51100000000E-03 0. -1.
    9900012    2    1    2    0    0 -0.17256960419E+01  0.20776255294E+02 -0.34907517801E+02  0.50528860685E+02  0.30000002537E+02 0.  0.
        -12    1    1    2    0    0  0.17256960419E+01 -0.20776255294E+02  0.34907517801E+02  0.40659139315E+02  0.00000000000E+00 0.  1.
         11    1    3    3    0    0  0.50827652279E+01  0.89415584768E+01 -0.41836457177E+01  0.11103551779E+02  0.51100000000E-03 0. -1.
        -11    1    3    3    0    0  0.52686319189E+01  0.67870537628E+01 -0.22201067912E+02  0.23805671547E+02  0.51100000000E-03 0.  1.
        -12    1    3    3    0    0 -0.12077093189E+02  0.50476430541E+01 -0.85228041708E+01  0.15619637359E+02  0.00000000000E+00 0.  1.
</event>
<event>
 7    1  0.5138512E-013  0.5052886E+02  0.7816164E-02  0.1300439E+00
        -11   -1    0    0    0    0  0.00000000000E+00  0.00000000000E+00  0.45593999997E+02  0.45594000000E+02  0.51100000000E-03 0.  1.
         11   -1    0    0    0    0 -0.00000000000E+00 -0.00000000000E+00 -0.45593999997E+02  0.45594000000E+02  0.51100000000E-03 0. -1.
    9900012    2    1    2    0    0  0.22191866782E+01 -0.38801096792E+02 -0.11946366317E+02  0.50528861176E+02  0.30000004029E+02 0.  0.
        -12    1    1    2    0    0 -0.22191866782E+01  0.38801096792E+02  0.11946366317E+02  0.40659138824E+02  0.00000000000E+00 0.  1.
         11    1    3    3    0    0  0.52423497783E+01 -0.18678290897E+02 -0.16526219014E+01  0.19470283548E+02  0.51100000000E-03 0. -1.
        -11    1    3    3    0    0  0.70840319142E+01 -0.16766799204E+01  0.72101749637E+00  0.73153694513E+01  0.51100000000E-03 0.  1.
        -12    1    3    3    0    0 -0.10107195014E+02 -0.18446125974E+02 -0.11014761912E+02  0.23743208176E+02  0.00000000000E+00 0.  1.
</event>
<event>
 7    1  0.5138511E-013  0.5052886E+02  0.7816164E-02  0.1300439E+00
        -11   -1    0    0    0    0  0.00000000000E+00  0.00000000000E+00  0.45593999997E+02  0.45594000000E+02  0.51100000000E-03 0.  1.
         11   -1    0    0    0    0 -0.00000000000E+00 -0.00000000000E+00 -0.45593999997E+02  0.45594000000E+02  0.51100000000E-03 0. -1.
    9900012    2    1    2    0    0 -0.33301751575E+02  0.14548635171E+02 -0.18234476282E+02  0.50528861192E+02  0.30000004079E+02 0.  0.
        -12    1    1    2    0    0  0.33301751575E+02 -0.14548635171E+02  0.18234476282E+02  0.40659138808E+02  0.00000000000E+00 0.  1.
         11    1    3    3    0    0 -0.19647245376E+02  0.40254894237E+01 -0.12468365076E+02  0.23615226950E+02  0.51100000000E-03 0. -1.
        -11    1    3    3    0    0 -0.14792394738E+02  0.22743264793E+01  0.25079595323E+01  0.15174892562E+02  0.51100000000E-03 0.  1.
        -12    1    3    3    0    0  0.11378885380E+01  0.82488192684E+01 -0.82740707378E+01  0.11738741680E+02  0.00000000000E+00 0.  1.
</event>
<event>
 7    1  0.5138511E-013  0.5052873E+02  0.7816164E-02  0.1300439E+00
        -11   -1    0    0    0    0  0.00000000000E+00  0.00000000000E+00  0.45593999997E+02  0.45594000000E+02  0.51100000000E-03 0. -1.
         11   -1    0    0    0    0 -0.00000000000E+00 -0.00000000000E+00 -0.45593999997E+02  0.45594000000E+02  0.51100000000E-03 0.  1.
    9900012    2    1    2    0    0 -0.11953955592E+02  0.31407400102E+02  0.22887872629E+02  0.50528726163E+02  0.29999593642E+02 0.  0.
        -12    1    1    2    0    0  0.11953955592E+02 -0.31407400102E+02 -0.22887872629E+02  0.40659273837E+02  0.00000000000E+00 0.  1.
         11    1    3    3    0    0 -0.13191810755E+02  0.95315572903E+01  0.15963146166E+02  0.22796852659E+02  0.51100000000E-03 0. -1.
        -11    1    3    3    0    0 -0.56723347926E+01  0.13963177285E+02 -0.14006522369E+00  0.15072004526E+02  0.51100000000E-03 0.  1.
        -12    1    3    3    0    0  0.69101899555E+01  0.79126655267E+01  0.70647916867E+01  0.12659868978E+02  0.00000000000E+00 0.  1.
</event>
<event>
 7    1  0.5138511E-013  0.5052886E+02  0.7816164E-02  0.1300439E+00
        -11   -1    0    0    0    0  0.00000000000E+00  0.00000000000E+00  0.45593999997E+02  0.45594000000E+02  0.51100000000E-03 0. -1.
         11   -1    0    0    0    0 -0.00000000000E+00 -0.00000000000E+00 -0.45593999997E+02  0.45594000000E+02  0.51100000000E-03 0.  1.
    9900012    2    1    2    0    0  0.58099145674E+01  0.35075663321E+02  0.19725825871E+02  0.50528862393E+02  0.30000007728E+02 0.  0.
        -12    1    1    2    0    0 -0.58099145674E+01 -0.35075663321E+02 -0.19725825871E+02  0.40659137607E+02  0.00000000000E+00 0.  1.
         11    1    3    3    0    0 -0.60637614125E+01  0.82481990443E+01  0.77251951655E+00  0.10266390632E+02  0.51100000000E-03 0. -1.
        -11    1    3    3    0    0  0.11565636620E+02  0.41513734188E+01  0.33552767724E+01  0.12737964287E+02  0.51100000000E-03 0.  1.
         12    1    3    3    0    0  0.30803935988E+00  0.22676090858E+02  0.15598029582E+02  0.27524507474E+02  0.00000000000E+00 0. -1.
</event>
<event>
 7    1  0.5138511E-013  0.5052887E+02  0.7816164E-02  0.1300439E+00
        -11   -1    0    0    0    0  0.00000000000E+00  0.00000000000E+00  0.45593999997E+02  0.45594000000E+02  0.51100000000E-03 0.  1.
         11   -1    0    0    0    0 -0.00000000000E+00 -0.00000000000E+00 -0.45593999997E+02  0.45594000000E+02  0.51100000000E-03 0. -1.
    9900012    2    1    2    0    0  0.93573971488E+01 -0.45377030641E+01 -0.39306658483E+02  0.50528867796E+02  0.30000024151E+02 0.  0.
        -12    1    1    2    0    0 -0.93573971488E+01  0.45377030641E+01  0.39306658483E+02  0.40659132204E+02  0.00000000000E+00 0.  1.
         11    1    3    3    0    0  0.33018612052E+01 -0.13516546454E+02 -0.36575097728E+02  0.39132302379E+02  0.51100000000E-03 0. -1.
        -11    1    3    3    0    0  0.84081223196E+00  0.18960711200E+01 -0.13964214009E+01  0.25004087449E+01  0.51100000000E-03 0.  1.
         12    1    3    3    0    0  0.52147237117E+01  0.70827722702E+01 -0.13351393547E+01  0.88961566711E+01  0.00000000000E+00 0. -1.
</event>
<event>
 7    1  0.5138511E-013  0.5052886E+02  0.7816164E-02  0.1300439E+00
        -11   -1    0    0    0    0  0.00000000000E+00  0.00000000000E+00  0.45593999997E+02  0.45594000000E+02  0.51100000000E-03 0.  1.
         11   -1    0    0    0    0 -0.00000000000E+00 -0.00000000000E+00 -0.45593999997E+02  0.45594000000E+02  0.51100000000E-03 0. -1.
    9900012    2    1    2    0    0 -0.15091147329E+02  0.42257427432E+00 -0.37752412988E+02  0.50528856094E+02  0.29999988585E+02 0.  0.
        -12    1    1    2    0    0  0.15091147329E+02 -0.42257427432E+00  0.37752412988E+02  0.40659143906E+02  0.00000000000E+00 0.  1.
         11    1    3    3    0    0 -0.33283296114E+01 -0.44132080720E+01 -0.25197604648E+02  0.25796772352E+02  0.51100000000E-03 0. -1.
        -11    1    3    3    0    0  0.31944282739E+01 -0.19450671035E+01  0.47282273764E+00  0.37697771335E+01  0.51100000000E-03 0.  1.
        -12    1    3    3    0    0 -0.14957245991E+02  0.67808494498E+01 -0.13027631077E+02  0.20962306609E+02  0.00000000000E+00 0.  1.
</event>
<event>
 7    1  0.5138511E-013  0.5052887E+02  0.7816164E-02  0.1300439E+00
        -11   -1    0    0    0    0  0.00000000000E+00  0.00000000000E+00  0.45593999997E+02  0.45594000000E+02  0.51100000000E-03 0. -1.
         11   -1    0    0    0    0 -0.00000000000E+00 -0.00000000000E+00 -0.45593999997E+02  0.45594000000E+02  0.51100000000E-03 0.  1.
    9900012    2    1    2    0    0  0.34229443133E+01 -0.37858533498E+02 -0.14428446637E+02  0.50528865986E+02  0.30000018652E+02 0.  0.
        -12    1    1    2    0    0 -0.34229443133E+01  0.37858533498E+02  0.14428446637E+02  0.40659134014E+02  0.00000000000E+00 0.  1.
         11    1    3    3    0    0  0.28143201364E+01 -0.22612906827E+02 -0.14621651180E+02  0.27075018679E+02  0.51100000000E-03 0. -1.
        -11    1    3    3    0    0  0.76657337631E+01 -0.14296975920E+02  0.11796596858E+01  0.16265257201E+02  0.51100000000E-03 0.  1.
         12    1    3    3    0    0 -0.70571095862E+01 -0.94865075129E+00 -0.98645514238E+00  0.71885901057E+01  0.00000000000E+00 0. -1.
</event>
<event>
 7    1  0.5138511E-013  0.5052886E+02  0.7816164E-02  0.1300439E+00
        -11   -1    0    0    0    0  0.00000000000E+00  0.00000000000E+00  0.45593999997E+02  0.45594000000E+02  0.51100000000E-03 0.  1.
         11   -1    0    0    0    0 -0.00000000000E+00 -0.00000000000E+00 -0.45593999997E+02  0.45594000000E+02  0.51100000000E-03 0. -1.
    9900012    2    1    2    0    0 -0.22709694050E+02 -0.15731660097E+02 -0.29832035180E+02  0.50528860115E+02  0.30000000806E+02 0.  0.
        -12    1    1    2    0    0  0.22709694050E+02  0.15731660097E+02  0.29832035180E+02  0.40659139885E+02  0.00000000000E+00 0.  1.
         11    1    3    3    0    0 -0.17186229215E+02 -0.89378166333E+01 -0.10144834279E+02  0.21867068930E+02  0.51100000000E-03 0. -1.
        -11    1    3    3    0    0 -0.68392093077E+00  0.27031536002E+01  0.26907838776E+01  0.38749329495E+01  0.51100000000E-03 0.  1.
        -12    1    3    3    0    0 -0.48395439039E+01 -0.94969970638E+01 -0.22377984778E+02  0.24786858235E+02  0.00000000000E+00 0.  1.
</event>
<event>
 7    1  0.5860934E-013  0.5052886E+02  0.7816164E-02  0.1300439E+00
        -11   -1    0    0    0    0  0.00000000000E+00  0.00000000000E+00  0.45593999997E+02  0.45594000000E+02  0.51100000000E-03 0. -1.
         11   -1    0    0    0    0 -0.00000000000E+00 -0.00000000000E+00 -0.45593999997E+02  0.45594000000E+02  0.51100000000E-03 0.  1.
    9900012    2    1    2    0    0  0.32345727354E+01 -0.16980955698E+02  0.36801500644E+02  0.50528858754E+02  0.29999996669E+02 0.  0.
        -12    1    1    2    0    0 -0.32345727354E+01  0.16980955698E+02 -0.36801500644E+02  0.40659141246E+02  0.00000000000E+00 0.  1.
         11    1    3    3    0    0  0.11119779880E+02 -0.23037980507E+01  0.18395264563E+02  0.21618111589E+02  0.51100000000E-03 0.  1.
        -11    1    3    3    0    0 -0.23847779930E+01 -0.13556707868E+02  0.18780689474E+02  0.23284883329E+02  0.51100000000E-03 0. -1.
        -12    1    3    3    0    0 -0.55004291518E+01 -0.11204497794E+01 -0.37445339261E+00  0.56258638363E+01  0.00000000000E+00 0.  1.
</event>
<event>
 7    1  0.5138511E-013  0.5052886E+02  0.7816164E-02  0.1300439E+00
        -11   -1    0    0    0    0  0.00000000000E+00  0.00000000000E+00  0.45593999997E+02  0.45594000000E+02  0.51100000000E-03 0.  1.
         11   -1    0    0    0    0 -0.00000000000E+00 -0.00000000000E+00 -0.45593999997E+02  0.45594000000E+02  0.51100000000E-03 0. -1.
    9900012    2    1    2    0    0  0.38389498857E+02  0.25894537332E+01 -0.13141794873E+02  0.50528859999E+02  0.30000000453E+02 0.  0.
        -12    1    1    2    0    0 -0.38389498857E+02 -0.25894537332E+01  0.13141794873E+02  0.40659140001E+02  0.00000000000E+00 0.  1.
         11    1    3    3    0    0  0.52793580866E+01  0.44632140242E+01 -0.12888856682E+01  0.70322917857E+01  0.51100000000E-03 0. -1.
        -11    1    3    3    0    0  0.23644366365E+01 -0.12358359365E+01 -0.12455817358E+02  0.12738337308E+02  0.51100000000E-03 0.  1.
         12    1    3    3    0    0  0.30745704134E+02 -0.63792435450E+00  0.60290815313E+00  0.30758230905E+02  0.00000000000E+00 0. -1.
</event>
<event>
 7    1  0.5138511E-013  0.5052886E+02  0.7816164E-02  0.1300439E+00
        -11   -1    0    0    0    0  0.00000000000E+00  0.00000000000E+00  0.45593999997E+02  0.45594000000E+02  0.51100000000E-03 0.  1.
         11   -1    0    0    0    0 -0.00000000000E+00 -0.00000000000E+00 -0.45593999997E+02  0.45594000000E+02  0.51100000000E-03 0. -1.
    9900012    2    1    2    0    0  0.26164952522E+02 -0.23437991434E+02 -0.20474904222E+02  0.50528857291E+02  0.29999992222E+02 0.  0.
        -12    1    1    2    0    0 -0.26164952522E+02  0.23437991434E+02  0.20474904222E+02  0.40659142709E+02  0.00000000000E+00 0.  1.
         11    1    3    3    0    0  0.15531395922E+01 -0.95170888381E+00 -0.46624781530E+01  0.50056663074E+01  0.51100000000E-03 0. -1.
        -11    1    3    3    0    0 -0.41994037090E+01 -0.82696623801E+00 -0.73392435901E+01  0.84960791784E+01  0.51100000000E-03 0.  1.
         12    1    3    3    0    0  0.28811216639E+02 -0.21659316312E+02 -0.84731824786E+01  0.37027111805E+02  0.00000000000E+00 0. -1.
</event>
<event>
 7    1  0.5138511E-013  0.5052887E+02  0.7816164E-02  0.1300439E+00
        -11   -1    0    0    0    0  0.00000000000E+00  0.00000000000E+00  0.45593999997E+02  0.45594000000E+02  0.51100000000E-03 0.  1.
         11   -1    0    0    0    0 -0.00000000000E+00 -0.00000000000E+00 -0.45593999997E+02  0.45594000000E+02  0.51100000000E-03 0. -1.
    9900012    2    1    2    0    0  0.63153390824E+00  0.70353379439E+01 -0.40040853032E+02  0.50528871547E+02  0.30000035554E+02 0.  0.
        -12    1    1    2    0    0 -0.63153390824E+00 -0.70353379439E+01  0.40040853032E+02  0.40659128453E+02  0.00000000000E+00 0.  1.
         11    1    3    3    0    0 -0.35590246796E+01  0.17506048725E+01 -0.23410263931E+02  0.23743877772E+02  0.51100000000E-03 0. -1.
        -11    1    3    3    0    0  0.36715307547E+01  0.11038613001E+02 -0.17427040414E+02  0.20953110817E+02  0.51100000000E-03 0.  1.
        -12    1    3    3    0    0  0.51902783313E+00 -0.57538799295E+01  0.79645131348E+00  0.58318829575E+01  0.00000000000E+00 0.  1.
</event>
<event>
 7    1  0.5138511E-013  0.5052886E+02  0.7816164E-02  0.1300439E+00
        -11   -1    0    0    0    0  0.00000000000E+00  0.00000000000E+00  0.45593999997E+02  0.45594000000E+02  0.51100000000E-03 0.  1.
         11   -1    0    0    0    0 -0.00000000000E+00 -0.00000000000E+00 -0.45593999997E+02  0.45594000000E+02  0.51100000000E-03 0. -1.
    9900012    2    1    2    0    0  0.11915656234E+02 -0.35136075880E+02 -0.16632475741E+02  0.50528856612E+02  0.29999990158E+02 0.  0.
        -12    1    1    2    0    0 -0.11915656234E+02  0.35136075880E+02  0.16632475741E+02  0.40659143388E+02  0.00000000000E+00 0.  1.
         11    1    3    3    0    0  0.52699928836E+01 -0.46317793722E+01  0.32928156772E+00  0.70238615987E+01  0.51100000000E-03 0. -1.
        -11    1    3    3    0    0 -0.14962881560E+00 -0.26541247149E+02 -0.20193282160E+01  0.26618374776E+02  0.51100000000E-03 0.  1.
        -12    1    3    3    0    0  0.67952921661E+01 -0.39630493589E+01 -0.14942429093E+02  0.16886620237E+02  0.00000000000E+00 0.  1.
</event>
<event>
 7    1  0.5138511E-013  0.5052886E+02  0.7816164E-02  0.1300439E+00
        -11   -1    0    0    0    0  0.00000000000E+00  0.00000000000E+00  0.45593999997E+02  0.45594000000E+02  0.51100000000E-03 0. -1.
         11   -1    0    0    0    0 -0.00000000000E+00 -0.00000000000E+00 -0.45593999997E+02  0.45594000000E+02  0.51100000000E-03 0.  1.
    9900012    2    1    2    0    0  0.18888027912E+02  0.28085105078E+02  0.22530754011E+02  0.50528860782E+02  0.30000002833E+02 0.  0.
        -12    1    1    2    0    0 -0.18888027912E+02 -0.28085105078E+02 -0.22530754011E+02  0.40659139218E+02  0.00000000000E+00 0.  1.
         11    1    3    3    0    0  0.27516917159E+01  0.16075841663E+02  0.22412301784E+02  0.27718509412E+02  0.51100000000E-03 0.  1.
        -11    1    3    3    0    0  0.30156647367E+01  0.61337830902E+01  0.39999798883E+01  0.79194297882E+01  0.51100000000E-03 0. -1.
         12    1    3    3    0    0  0.13120671459E+02  0.58754803246E+01 -0.38815276612E+01  0.14890921582E+02  0.00000000000E+00 0. -1.
</event>
<event>
 7    1  0.5138511E-013  0.5052886E+02  0.7816164E-02  0.1300439E+00
        -11   -1    0    0    0    0  0.00000000000E+00  0.00000000000E+00  0.45593999997E+02  0.45594000000E+02  0.51100000000E-03 0.  1.
         11   -1    0    0    0    0 -0.00000000000E+00 -0.00000000000E+00 -0.45593999997E+02  0.45594000000E+02  0.51100000000E-03 0. -1.
    9900012    2    1    2    0    0 -0.52153325238E+01  0.37988203652E+02 -0.13522669892E+02  0.50528856981E+02  0.29999991278E+02 0.  0.
        -12    1    1    2    0    0  0.52153325238E+01 -0.37988203652E+02  0.13522669892E+02  0.40659143019E+02  0.00000000000E+00 0.  1.
         11    1    3    3    0    0 -0.72679762954E+00  0.49403332451E+01 -0.13286792646E+02  0.14194153248E+02  0.51100000000E-03 0. -1.
        -11    1    3    3    0    0  0.36711487648E+01  0.10991979871E+02 -0.45046745884E+01  0.12433545277E+02  0.51100000000E-03 0.  1.
        -12    1    3    3    0    0 -0.81596836590E+01  0.22055890536E+02  0.42687973421E+01  0.23901158455E+02  0.00000000000E+00 0.  1.
</event>
<event>
 7    1  0.5138511E-013  0.5052886E+02  0.7816164E-02  0.1300439E+00
        -11   -1    0    0    0    0  0.00000000000E+00  0.00000000000E+00  0.45593999997E+02  0.45594000000E+02  0.51100000000E-03 0.  1.
         11   -1    0    0    0    0 -0.00000000000E+00 -0.00000000000E+00 -0.45593999997E+02  0.45594000000E+02  0.51100000000E-03 0. -1.
    9900012    2    1    2    0    0 -0.21307896055E+02 -0.33426395300E+02 -0.90451657024E+01  0.50528863762E+02  0.30000011891E+02 0.  0.
        -12    1    1    2    0    0  0.21307896055E+02  0.33426395300E+02  0.90451657024E+01  0.40659136238E+02  0.00000000000E+00 0.  1.
         11    1    3    3    0    0  0.62614066306E+00  0.20247865695E+01 -0.46683872397E+01  0.51269535265E+01  0.51100000000E-03 0. -1.
        -11    1    3    3    0    0 -0.13245027113E+02 -0.70144529049E+01 -0.45621496154E+01  0.15666732338E+02  0.51100000000E-03 0.  1.
         12    1    3    3    0    0 -0.86890096053E+01 -0.28436728965E+02  0.18537115275E+00  0.29735177897E+02  0.00000000000E+00 0. -1.
</event>
<event>
 7    1  0.8055935E-013  0.5052886E+02  0.7816164E-02  0.1300439E+00
        -11   -1    0    0    0    0  0.00000000000E+00  0.00000000000E+00  0.45593999997E+02  0.45594000000E+02  0.51100000000E-03 0. -1.
         11   -1    0    0    0    0 -0.00000000000E+00 -0.00000000000E+00 -0.45593999997E+02  0.45594000000E+02  0.51100000000E-03 0.  1.
    9900012    2    1    2    0    0  0.63006708439E+01 -0.39270223261E+02  0.84449235266E+01  0.50528860542E+02  0.30000002105E+02 0.  0.
        -12    1    1    2    0    0 -0.63006708439E+01  0.39270223261E+02 -0.84449235266E+01  0.40659139458E+02  0.00000000000E+00 0.  1.
         11    1    3    3    0    0  0.22411300175E+01 -0.29215876341E+02  0.82640542838E+01  0.30444780958E+02  0.51100000000E-03 0. -1.
        -11    1    3    3    0    0  0.72579934352E+01 -0.95240216720E+01  0.60221085778E+01  0.13403404400E+02  0.51100000000E-03 0.  1.
        -12    1    3    3    0    0 -0.31984526088E+01 -0.53032524864E+00 -0.58412393350E+01  0.66806751851E+01  0.00000000000E+00 0.  1.
</event>
<event>
 7    1  0.5138511E-013  0.5052880E+02  0.7816164E-02  0.1300439E+00
        -11   -1    0    0    0    0  0.00000000000E+00  0.00000000000E+00  0.45593999997E+02  0.45594000000E+02  0.51100000000E-03 0.  1.
         11   -1    0    0    0    0 -0.00000000000E+00 -0.00000000000E+00 -0.45593999997E+02  0.45594000000E+02  0.51100000000E-03 0. -1.
    9900012    2    1    2    0    0 -0.16843034090E+02 -0.19514356136E+02 -0.31443159943E+02  0.50528804239E+02  0.29999830963E+02 0.  0.
        -12    1    1    2    0    0  0.16843034090E+02  0.19514356136E+02  0.31443159943E+02  0.40659195761E+02  0.00000000000E+00 0.  1.
         11    1    3    3    0    0 -0.28202295148E+01 -0.85757299755E+00  0.14638321292E+01  0.32911898648E+01  0.51100000000E-03 0. -1.
        -11    1    3    3    0    0 -0.15472424033E+02 -0.10980511630E+02 -0.70730066943E+01  0.20248332402E+02  0.51100000000E-03 0.  1.
         12    1    3    3    0    0  0.14496194575E+01 -0.76762715076E+01 -0.25833985378E+02  0.26989281972E+02  0.00000000000E+00 0. -1.
</event>
<event>
 7    1  0.5138511E-013  0.5052886E+02  0.7816164E-02  0.1300439E+00
        -11   -1    0    0    0    0  0.00000000000E+00  0.00000000000E+00  0.45593999997E+02  0.45594000000E+02  0.51100000000E-03 0.  1.
         11   -1    0    0    0    0 -0.00000000000E+00 -0.00000000000E+00 -0.45593999997E+02  0.45594000000E+02  0.51100000000E-03 0. -1.
    9900012    2    1    2    0    0 -0.28261924485E+02  0.11494279118E+01 -0.29208016672E+02  0.50528858370E+02  0.29999995502E+02 0.  0.
        -12    1    1    2    0    0  0.28261924485E+02 -0.11494279118E+01  0.29208016672E+02  0.40659141630E+02  0.00000000000E+00 0.  1.
         11    1    3    3    0    0  0.43067537600E+01 -0.22363669171E+01  0.19543845266E+00  0.48567130229E+01  0.51100000000E-03 0.  1.
        -11    1    3    3    0    0 -0.77744411365E+01 -0.44327420684E+01 -0.76914021270E+01  0.11800373052E+02  0.51100000000E-03 0. -1.
        -12    1    3    3    0    0 -0.24794237109E+02  0.78185368972E+01 -0.21712052998E+02  0.33871772295E+02  0.00000000000E+00 0.  1.
</event>
<event>
 7    1  0.5138511E-013  0.5052884E+02  0.7816164E-02  0.1300439E+00
        -11   -1    0    0    0    0  0.00000000000E+00  0.00000000000E+00  0.45593999997E+02  0.45594000000E+02  0.51100000000E-03 0.  1.
         11   -1    0    0    0    0 -0.00000000000E+00 -0.00000000000E+00 -0.45593999997E+02  0.45594000000E+02  0.51100000000E-03 0. -1.
    9900012    2    1    2    0    0  0.27754375722E+02  0.21594629767E+02 -0.20409157050E+02  0.50528842384E+02  0.29999946912E+02 0.  0.
        -12    1    1    2    0    0 -0.27754375722E+02 -0.21594629767E+02  0.20409157050E+02  0.40659157616E+02  0.00000000000E+00 0.  1.
         11    1    3    3    0    0  0.25328051846E+01  0.14041276821E+02 -0.88335717716E+01  0.16781077062E+02  0.51100000000E-03 0. -1.
        -11    1    3    3    0    0 -0.26270144065E+00 -0.19288495186E+01 -0.55712340034E+01  0.59015354861E+01  0.51100000000E-03 0.  1.
         12    1    3    3    0    0  0.25484271978E+02  0.94822024647E+01 -0.60043512752E+01  0.27846229836E+02  0.00000000000E+00 0. -1.
</event>
<event>
 7    1  0.5138511E-013  0.5052886E+02  0.7816164E-02  0.1300439E+00
        -11   -1    0    0    0    0  0.00000000000E+00  0.00000000000E+00  0.45593999997E+02  0.45594000000E+02  0.51100000000E-03 0.  1.
         11   -1    0    0    0    0 -0.00000000000E+00 -0.00000000000E+00 -0.45593999997E+02  0.45594000000E+02  0.51100000000E-03 0. -1.
    9900012    2    1    2    0    0  0.26076972561E+02  0.11013928841E+02 -0.29186481534E+02  0.50528857968E+02  0.29999994279E+02 0.  0.
        -12    1    1    2    0    0 -0.26076972561E+02 -0.11013928841E+02  0.29186481534E+02  0.40659142032E+02  0.00000000000E+00 0.  1.
         11    1    3    3    0    0  0.13888689834E+02  0.57937614698E+01 -0.23173505190E+02  0.27631046313E+02  0.51100000000E-03 0. -1.
        -11    1    3    3    0    0  0.63356864898E+01 -0.48420772323E+01 -0.77602260248E+01  0.11126892802E+02  0.51100000000E-03 0.  1.
         12    1    3    3    0    0  0.58525962377E+01  0.10062244603E+02  0.17472496815E+01  0.11770918852E+02  0.00000000000E+00 0. -1.
</event>
<event>
 7    1  0.5138511E-013  0.5052887E+02  0.7816164E-02  0.1300439E+00
        -11   -1    0    0    0    0  0.00000000000E+00  0.00000000000E+00  0.45593999997E+02  0.45594000000E+02  0.51100000000E-03 0. -1.
         11   -1    0    0    0    0 -0.00000000000E+00 -0.00000000000E+00 -0.45593999997E+02  0.45594000000E+02  0.51100000000E-03 0.  1.
    9900012    2    1    2    0    0 -0.22668539783E+02  0.28417179654E+01  0.33633719631E+02  0.50528866301E+02  0.30000019610E+02 0.  0.
        -12    1    1    2    0    0  0.22668539783E+02 -0.28417179654E+01 -0.33633719631E+02  0.40659133699E+02  0.00000000000E+00 0.  1.
         11    1    3    3    0    0 -0.10945024082E+02  0.90769872070E+00  0.94868384039E+01  0.14512669371E+02  0.51100000000E-03 0. -1.
        -11    1    3    3    0    0 -0.99527980583E+01  0.12438708035E+02  0.12645933107E+02  0.20339598599E+02  0.51100000000E-03 0.  1.
         12    1    3    3    0    0 -0.17707176425E+01 -0.10504688791E+02  0.11500948120E+02  0.15676598331E+02  0.00000000000E+00 0. -1.
</event>
<event>
 7    1  0.5138511E-013  0.5052888E+02  0.7816164E-02  0.1300439E+00
        -11   -1    0    0    0    0  0.00000000000E+00  0.00000000000E+00  0.45593999997E+02  0.45594000000E+02  0.51100000000E-03 0. -1.
         11   -1    0    0    0    0 -0.00000000000E+00 -0.00000000000E+00 -0.45593999997E+02  0.45594000000E+02  0.51100000000E-03 0.  1.
    9900012    2    1    2    0    0  0.19508357472E+02 -0.24639113015E+02  0.25797328165E+02  0.50528879967E+02  0.30000061148E+02 0.  0.
        -12    1    1    2    0    0 -0.19508357472E+02  0.24639113015E+02 -0.25797328165E+02  0.40659120033E+02  0.00000000000E+00 0.  1.
         11    1    3    3    0    0  0.66412618000E+01 -0.10170657255E+02  0.32719043535E+00  0.12151365402E+02  0.51100000000E-03 0. -1.
        -11    1    3    3    0    0 -0.53593782046E+01 -0.63382653112E+01  0.45544301067E+01  0.94678073361E+01  0.51100000000E-03 0.  1.
         12    1    3    3    0    0  0.18226473876E+02 -0.81301904491E+01  0.20915707623E+02  0.28909707229E+02  0.00000000000E+00 0. -1.
</event>
<event>
 7    1  0.5138511E-013  0.5052887E+02  0.7816164E-02  0.1300439E+00
        -11   -1    0    0    0    0  0.00000000000E+00  0.00000000000E+00  0.45593999997E+02  0.45594000000E+02  0.51100000000E-03 0.  1.
         11   -1    0    0    0    0 -0.00000000000E+00 -0.00000000000E+00 -0.45593999997E+02  0.45594000000E+02  0.51100000000E-03 0. -1.
    9900012    2    1    2    0    0 -0.10621861181E+02  0.27020619221E+02 -0.28464489603E+02  0.50528868598E+02  0.30000026590E+02 0.  0.
        -12    1    1    2    0    0  0.10621861181E+02 -0.27020619221E+02  0.28464489603E+02  0.40659131402E+02  0.00000000000E+00 0.  1.
         11    1    3    3    0    0  0.38912636663E+00  0.16920881262E+02 -0.74790272034E+01  0.18504147918E+02  0.51100000000E-03 0.  1.
        -11    1    3    3    0    0  0.34547206712E+01  0.20201572106E+01  0.13418924877E+01  0.42209958282E+01  0.51100000000E-03 0. -1.
        -12    1    3    3    0    0 -0.14465708219E+02  0.80795807482E+01 -0.22327354887E+02  0.27803724851E+02  0.00000000000E+00 0.  1.
</event>
<event>
 7    1  0.5138511E-013  0.5052885E+02  0.7816164E-02  0.1300439E+00
        -11   -1    0    0    0    0  0.00000000000E+00  0.00000000000E+00  0.45593999997E+02  0.45594000000E+02  0.51100000000E-03 0. -1.
         11   -1    0    0    0    0 -0.00000000000E+00 -0.00000000000E+00 -0.45593999997E+02  0.45594000000E+02  0.51100000000E-03 0.  1.
    9900012    2    1    2    0    0 -0.24485925100E+02 -0.24033298687E+02  0.21817565519E+02  0.50528854178E+02  0.29999982760E+02 0.  0.
        -12    1    1    2    0    0  0.24485925100E+02  0.24033298687E+02 -0.21817565519E+02  0.40659145822E+02  0.00000000000E+00 0.  1.
         11    1    3    3    0    0  0.43011155291E+01 -0.92472641560E+01  0.18531079221E+01  0.10365592043E+02  0.51100000000E-03 0. -1.
        -11    1    3    3    0    0 -0.13561563261E+02 -0.15261267560E+01  0.34424946149E+01  0.14074652053E+02  0.51100000000E-03 0.  1.
        -12    1    3    3    0    0 -0.15225477368E+02 -0.13259907775E+02  0.16521962982E+02  0.26088610083E+02  0.00000000000E+00 0.  1.
</event>
<event>
 7    1  0.5138511E-013  0.5052892E+02  0.7816164E-02  0.1300439E+00
        -11   -1    0    0    0    0  0.00000000000E+00  0.00000000000E+00  0.45593999997E+02  0.45594000000E+02  0.51100000000E-03 0. -1.
         11   -1    0    0    0    0 -0.00000000000E+00 -0.00000000000E+00 -0.45593999997E+02  0.45594000000E+02  0.51100000000E-03 0.  1.
    9900012    2    1    2    0    0  0.30739166447E+02  0.85016843431E+01  0.25218758440E+02  0.50528920229E+02  0.30000183527E+02 0.  0.
        -12    1    1    2    0    0 -0.30739166447E+02 -0.85016843431E+01 -0.25218758440E+02  0.40659079771E+02  0.00000000000E+00 0.  1.
         11    1    3    3    0    0  0.99283747193E+01  0.69235443243E+01  0.10319853660E+02  0.15906208549E+02  0.51100000000E-03 0. -1.
        -11    1    3    3    0    0  0.12887252533E+02  0.97414235771E+01  0.16549654266E+02  0.23127206224E+02  0.51100000000E-03 0.  1.
        -12    1    3    3    0    0  0.79235391952E+01 -0.81632835583E+01 -0.16507494849E+01  0.11495505456E+02  0.00000000000E+00 0.  1.
</event>
<event>
 7    1  0.6895848E-013  0.5052886E+02  0.7816164E-02  0.1300439E+00
        -11   -1    0    0    0    0  0.00000000000E+00  0.00000000000E+00  0.45593999997E+02  0.45594000000E+02  0.51100000000E-03 0. -1.
         11   -1    0    0    0    0 -0.00000000000E+00 -0.00000000000E+00 -0.45593999997E+02  0.45594000000E+02  0.51100000000E-03 0.  1.
    9900012    2    1    2    0    0  0.34839075534E+02  0.20692786850E+02  0.33485608437E+01  0.50528862388E+02  0.30000007713E+02 0.  0.
        -12    1    1    2    0    0 -0.34839075534E+02 -0.20692786850E+02 -0.33485608437E+01  0.40659137612E+02  0.00000000000E+00 0.  1.
         11    1    3    3    0    0  0.20154032915E+02  0.12368332913E+02  0.92696573768E+00  0.23664741019E+02  0.51100000000E-03 0. -1.
        -11    1    3    3    0    0  0.17064778258E+02  0.13057505887E+01  0.66153237818E+01  0.18348682530E+02  0.51100000000E-03 0.  1.
        -12    1    3    3    0    0 -0.23797356386E+01  0.70187033484E+01 -0.41937286758E+01  0.85154388383E+01  0.00000000000E+00 0.  1.
</event>
<event>
 7    1  0.5138511E-013  0.5052886E+02  0.7816164E-02  0.1300439E+00
        -11   -1    0    0    0    0  0.00000000000E+00  0.00000000000E+00  0.45593999997E+02  0.45594000000E+02  0.51100000000E-03 0.  1.
         11   -1    0    0    0    0 -0.00000000000E+00 -0.00000000000E+00 -0.45593999997E+02  0.45594000000E+02  0.51100000000E-03 0. -1.
    9900012    2    1    2    0    0 -0.32075647256E+02 -0.24942495710E+02 -0.14800237531E+01  0.50528859460E+02  0.29999998815E+02 0.  0.
        -12    1    1    2    0    0  0.32075647256E+02  0.24942495710E+02  0.14800237531E+01  0.40659140540E+02  0.00000000000E+00 0.  1.
         11    1    3    3    0    0 -0.12729036451E+02 -0.20126525004E+02 -0.22012269260E+01  0.23915492425E+02  0.51100000000E-03 0. -1.
        -11    1    3    3    0    0 -0.65720827649E+01 -0.52235411779E+01  0.82577753850E+01  0.11775759376E+02  0.51100000000E-03 0.  1.
        -12    1    3    3    0    0 -0.12774528040E+02  0.40757047205E+00 -0.75365722120E+01  0.14837607659E+02  0.00000000000E+00 0.  1.
</event>
<event>
 7    1  0.5138511E-013  0.5052886E+02  0.7816164E-02  0.1300439E+00
        -11   -1    0    0    0    0  0.00000000000E+00  0.00000000000E+00  0.45593999997E+02  0.45594000000E+02  0.51100000000E-03 0.  1.
         11   -1    0    0    0    0 -0.00000000000E+00 -0.00000000000E+00 -0.45593999997E+02  0.45594000000E+02  0.51100000000E-03 0. -1.
    9900012    2    1    2    0    0 -0.32423820327E+02 -0.22419053091E+02 -0.99622896109E+01  0.50528864737E+02  0.30000014854E+02 0.  0.
        -12    1    1    2    0    0  0.32423820327E+02  0.22419053091E+02  0.99622896109E+01  0.40659135263E+02  0.00000000000E+00 0.  1.
         11    1    3    3    0    0  0.85763459775E-01 -0.33519442323E+01  0.15793089065E+01  0.37063597223E+01  0.51100000000E-03 0. -1.
        -11    1    3    3    0    0 -0.30720180237E+01  0.45354312544E+01 -0.68950282836E+01  0.88061822996E+01  0.51100000000E-03 0.  1.
         12    1    3    3    0    0 -0.29437565763E+02 -0.23602540113E+02 -0.46465702339E+01  0.38016322715E+02  0.00000000000E+00 0. -1.
</event>
<event>
 7    1  0.5138511E-013  0.5052887E+02  0.7816164E-02  0.1300439E+00
        -11   -1    0    0    0    0  0.00000000000E+00  0.00000000000E+00  0.45593999997E+02  0.45594000000E+02  0.51100000000E-03 0.  1.
         11   -1    0    0    0    0 -0.00000000000E+00 -0.00000000000E+00 -0.45593999997E+02  0.45594000000E+02  0.51100000000E-03 0. -1.
    9900012    2    1    2    0    0 -0.43940192176E+01 -0.10946911061E+02 -0.38910444231E+02  0.50528868960E+02  0.30000027691E+02 0.  0.
        -12    1    1    2    0    0  0.43940192176E+01  0.10946911061E+02  0.38910444231E+02  0.40659131040E+02  0.00000000000E+00 0.  1.
         11    1    3    3    0    0  0.26240271457E+01 -0.41740228776E+01 -0.27692495219E+02  0.28127962549E+02  0.51100000000E-03 0. -1.
        -11    1    3    3    0    0 -0.62849184913E+01  0.17463646255E+00 -0.13629903553E+02  0.15010162207E+02  0.51100000000E-03 0.  1.
        -12    1    3    3    0    0 -0.73312787207E+00 -0.69475246460E+01  0.24119545413E+01  0.73907442043E+01  0.00000000000E+00 0.  1.
</event>
<event>
 7    1  0.5138511E-013  0.5052886E+02  0.7816164E-02  0.1300439E+00
        -11   -1    0    0    0    0  0.00000000000E+00  0.00000000000E+00  0.45593999997E+02  0.45594000000E+02  0.51100000000E-03 0.  1.
         11   -1    0    0    0    0 -0.00000000000E+00 -0.00000000000E+00 -0.45593999997E+02  0.45594000000E+02  0.51100000000E-03 0. -1.
    9900012    2    1    2    0    0  0.36696621119E+02  0.57272604753E+01 -0.16544539214E+02  0.50528864595E+02  0.30000014422E+02 0.  0.
        -12    1    1    2    0    0 -0.36696621119E+02 -0.57272604753E+01  0.16544539214E+02  0.40659135405E+02  0.00000000000E+00 0.  1.
         11    1    3    3    0    0  0.10919029015E+02 -0.13422575828E+01 -0.81193270090E+01  0.13672977780E+02  0.51100000000E-03 0. -1.
        -11    1    3    3    0    0  0.28477061552E+02  0.52295795765E+01 -0.12595389825E+01  0.28980648300E+02  0.51100000000E-03 0.  1.
         12    1    3    3    0    0 -0.26994694478E+01  0.18399384816E+01 -0.71656732228E+01  0.78752385139E+01  0.00000000000E+00 0. -1.
</event>
<event>
 7    1  0.5138511E-013  0.5052886E+02  0.7816164E-02  0.1300439E+00
        -11   -1    0    0    0    0  0.00000000000E+00  0.00000000000E+00  0.45593999997E+02  0.45594000000E+02  0.51100000000E-03 0. -1.
         11   -1    0    0    0    0 -0.00000000000E+00 -0.00000000000E+00 -0.45593999997E+02  0.45594000000E+02  0.51100000000E-03 0.  1.
    9900012    2    1    2    0    0 -0.43602505978E+01 -0.27883072428E+02  0.29269234853E+02  0.50528860533E+02  0.30000002076E+02 0.  0.
        -12    1    1    2    0    0  0.43602505978E+01  0.27883072428E+02 -0.29269234853E+02  0.40659139467E+02  0.00000000000E+00 0.  1.
         11    1    3    3    0    0  0.53915956524E+00 -0.75667692062E+01  0.50850281483E+01  0.91325900371E+01  0.51100000000E-03 0. -1.
        -11    1    3    3    0    0 -0.31191187555E+01 -0.98344840172E+01 -0.41594455375E+01  0.11124161323E+02  0.51100000000E-03 0.  1.
         12    1    3    3    0    0 -0.17802914075E+01 -0.10481819205E+02  0.28343652243E+02  0.30272109173E+02  0.00000000000E+00 0. -1.
</event>
<event>
 7    1  0.5138511E-013  0.5052886E+02  0.7816164E-02  0.1300439E+00
        -11   -1    0    0    0    0  0.00000000000E+00  0.00000000000E+00  0.45593999997E+02  0.45594000000E+02  0.51100000000E-03 0.  1.
         11   -1    0    0    0    0 -0.00000000000E+00 -0.00000000000E+00 -0.45593999997E+02  0.45594000000E+02  0.51100000000E-03 0. -1.
    9900012    2    1    2    0    0 -0.10996180904E+02  0.38064776499E+02 -0.91281264372E+01  0.50528857158E+02  0.29999991818E+02 0.  0.
        -12    1    1    2    0    0  0.10996180904E+02 -0.38064776499E+02  0.91281264372E+01  0.40659142842E+02  0.00000000000E+00 0.  1.
         11    1    3    3    0    0 -0.71027769290E+01  0.36297207647E+02 -0.23942916349E+01  0.37063045690E+02  0.51100000000E-03 0. -1.
        -11    1    3    3    0    0  0.14798888271E+00  0.12715906248E+01  0.28110013339E+01  0.30887816671E+01  0.51100000000E-03 0.  1.
         12    1    3    3    0    0 -0.40413928573E+01  0.49597822690E+00 -0.95448361362E+01  0.10377029801E+02  0.00000000000E+00 0. -1.
</event>
<event>
 7    1  0.5138511E-013  0.5052886E+02  0.7816164E-02  0.1300439E+00
        -11   -1    0    0    0    0  0.00000000000E+00  0.00000000000E+00  0.45593999997E+02  0.45594000000E+02  0.51100000000E-03 0.  1.
         11   -1    0    0    0    0 -0.00000000000E+00 -0.00000000000E+00 -0.45593999997E+02  0.45594000000E+02  0.51100000000E-03 0. -1.
    9900012    2    1    2    0    0 -0.22931445683E+02  0.21866258584E+02 -0.25479030238E+02  0.50528862682E+02  0.30000008609E+02 0.  0.
        -12    1    1    2    0    0  0.22931445683E+02 -0.21866258584E+02  0.25479030238E+02  0.40659137318E+02  0.00000000000E+00 0.  1.
         11    1    3    3    0    0 -0.62964151659E+01  0.14498217890E+02 -0.99119112771E+01  0.18657147460E+02  0.51100000000E-03 0. -1.
        -11    1    3    3    0    0 -0.18459534278E+02  0.10904034747E+02 -0.72162778897E+01  0.22621384714E+02  0.51100000000E-03 0.  1.
        -12    1    3    3    0    0  0.18245037611E+01 -0.35359940530E+01 -0.83508410707E+01  0.92503305079E+01  0.00000000000E+00 0.  1.
</event>
<event>
 7    1  0.5138511E-013  0.5052886E+02  0.7816164E-02  0.1300439E+00
        -11   -1    0    0    0    0  0.00000000000E+00  0.00000000000E+00  0.45593999997E+02  0.45594000000E+02  0.51100000000E-03 0.  1.
         11   -1    0    0    0    0 -0.00000000000E+00 -0.00000000000E+00 -0.45593999997E+02  0.45594000000E+02  0.51100000000E-03 0. -1.
    9900012    2    1    2    0    0  0.30275019335E+01  0.13324580887E+02 -0.38294324414E+02  0.50528861960E+02  0.30000006415E+02 0.  0.
        -12    1    1    2    0    0 -0.30275019335E+01 -0.13324580887E+02  0.38294324414E+02  0.40659138040E+02  0.00000000000E+00 0.  1.
         11    1    3    3    0    0 -0.22951732189E+01 -0.85531017966E+00  0.23827920702E+01  0.34171733815E+01  0.51100000000E-03 0. -1.
        -11    1    3    3    0    0  0.78370842838E+01  0.12337701715E+02 -0.13955141803E+02  0.20208531780E+02  0.51100000000E-03 0.  1.
         12    1    3    3    0    0 -0.25144091314E+01  0.18421893514E+01 -0.26721974681E+02  0.26903156799E+02  0.00000000000E+00 0. -1.
</event>
<event>
 7    1  0.5138511E-013  0.5052887E+02  0.7816164E-02  0.1300439E+00
        -11   -1    0    0    0    0  0.00000000000E+00  0.00000000000E+00  0.45593999997E+02  0.45594000000E+02  0.51100000000E-03 0. -1.
         11   -1    0    0    0    0 -0.00000000000E+00 -0.00000000000E+00 -0.45593999997E+02  0.45594000000E+02  0.51100000000E-03 0.  1.
    9900012    2    1    2    0    0  0.18128868454E+02 -0.73637778253E+01  0.35641043113E+02  0.50528867576E+02  0.30000023483E+02 0.  0.
        -12    1    1    2    0    0 -0.18128868454E+02  0.73637778253E+01 -0.35641043113E+02  0.40659132424E+02  0.00000000000E+00 0.  1.
         11    1    3    3    0    0  0.13866405063E+01  0.78576519499E+01  0.16513136691E+02  0.18339824146E+02  0.51100000000E-03 0. -1.
        -11    1    3    3    0    0  0.78051371018E+01  0.47100136295E+00  0.53501430044E+01  0.94744940704E+01  0.51100000000E-03 0.  1.
        -12    1    3    3    0    0  0.89370908464E+01 -0.15692431138E+02  0.13777763418E+02  0.22714549360E+02  0.00000000000E+00 0.  1.
</event>
<event>
 7    1  0.5138511E-013  0.5052884E+02  0.7816164E-02  0.1300439E+00
        -11   -1    0    0    0    0  0.00000000000E+00  0.00000000000E+00  0.45593999997E+02  0.45594000000E+02  0.51100000000E-03 0.  1.
         11   -1    0    0    0    0 -0.00000000000E+00 -0.00000000000E+00 -0.45593999997E+02  0.45594000000E+02  0.51100000000E-03 0. -1.
    9900012    2    1    2    0    0 -0.33322569229E+02  0.23030637899E+02 -0.35161552356E+01  0.50528840518E+02  0.29999941240E+02 0.  0.
        -12    1    1    2    0    0  0.33322569229E+02 -0.23030637899E+02  0.35161552356E+01  0.40659159482E+02  0.00000000000E+00 0.  1.
         11    1    3    3    0    0 -0.92457797328E+01  0.43043175184E+01 -0.12682140046E+02  0.16274159535E+02  0.51100000000E-03 0. -1.
        -11    1    3    3    0    0 -0.86924961525E+01  0.10241646782E+02 -0.17864912197E+01  0.13551471112E+02  0.51100000000E-03 0.  1.
        -12    1    3    3    0    0 -0.15384293344E+02  0.84846735994E+01  0.10952476030E+02  0.20703209871E+02  0.00000000000E+00 0.  1.
</event>
<event>
 7    1  0.5138511E-013  0.5052887E+02  0.7816164E-02  0.1300439E+00
        -11   -1    0    0    0    0  0.00000000000E+00  0.00000000000E+00  0.45593999997E+02  0.45594000000E+02  0.51100000000E-03 0. -1.
         11   -1    0    0    0    0 -0.00000000000E+00 -0.00000000000E+00 -0.45593999997E+02  0.45594000000E+02  0.51100000000E-03 0.  1.
    9900012    2    1    2    0    0  0.21080956931E+02  0.26534333884E+02  0.22465242570E+02  0.50528871339E+02  0.30000034921E+02 0.  0.
        -12    1    1    2    0    0 -0.21080956931E+02 -0.26534333884E+02 -0.22465242570E+02  0.40659128661E+02  0.00000000000E+00 0.  1.
         11    1    3    3    0    0  0.11689622204E+02  0.62922152565E+01  0.43799085831E+01  0.13979371930E+02  0.51100000000E-03 0. -1.
        -11    1    3    3    0    0  0.64364066801E+01  0.24078623745E+02  0.94623054536E+01  0.26659757635E+02  0.51100000000E-03 0.  1.
         12    1    3    3    0    0  0.29549280467E+01 -0.38365051170E+01  0.86230285328E+01  0.98897417738E+01  0.00000000000E+00 0. -1.
</event>
<event>
 7    1  0.5138511E-013  0.5052886E+02  0.7816164E-02  0.1300439E+00
        -11   -1    0    0    0    0  0.00000000000E+00  0.00000000000E+00  0.45593999997E+02  0.45594000000E+02  0.51100000000E-03 0. -1.
         11   -1    0    0    0    0 -0.00000000000E+00 -0.00000000000E+00 -0.45593999997E+02  0.45594000000E+02  0.51100000000E-03 0.  1.
    9900012    2    1    2    0    0  0.21391945691E+00  0.68617736158E+00  0.40652787876E+02  0.50528858801E+02  0.29999996812E+02 0.  0.
        -12    1    1    2    0    0 -0.21391945691E+00 -0.68617736158E+00 -0.40652787876E+02  0.40659141199E+02  0.00000000000E+00 0.  1.
         11    1    3    3    0    0 -0.70706895691E+01 -0.42387171505E+01  0.27745722832E+02  0.28944541969E+02  0.51100000000E-03 0. -1.
        -11    1    3    3    0    0  0.68214766125E+01 -0.40108119117E+01  0.84891299764E+01  0.11605364423E+02  0.51100000000E-03 0.  1.
         12    1    3    3    0    0  0.46313241360E+00  0.89357064238E+01  0.44179350677E+01  0.99789524093E+01  0.00000000000E+00 0. -1.
</event>
<event>
 7    1  0.5138511E-013  0.5052887E+02  0.7816164E-02  0.1300439E+00
        -11   -1    0    0    0    0  0.00000000000E+00  0.00000000000E+00  0.45593999997E+02  0.45594000000E+02  0.51100000000E-03 0.  1.
         11   -1    0    0    0    0 -0.00000000000E+00 -0.00000000000E+00 -0.45593999997E+02  0.45594000000E+02  0.51100000000E-03 0. -1.
    9900012    2    1    2    0    0 -0.34616713868E+02 -0.16037097153E+02 -0.14059155619E+02  0.50528865469E+02  0.30000017080E+02 0.  0.
        -12    1    1    2    0    0  0.34616713868E+02  0.16037097153E+02  0.14059155619E+02  0.40659134531E+02  0.00000000000E+00 0.  1.
         11    1    3    3    0    0 -0.17117198423E+02 -0.60996148245E+01 -0.18712856990E+01  0.18267607760E+02  0.51100000000E-03 0. -1.
        -11    1    3    3    0    0 -0.20279425272E+02 -0.10575568682E+02 -0.15696589150E+02  0.27739514298E+02  0.51100000000E-03 0.  1.
        -12    1    3    3    0    0  0.27799098270E+01  0.63808635377E+00  0.35087192295E+01  0.45217434107E+01  0.00000000000E+00 0.  1.
</event>
<event>
 7    1  0.5138511E-013  0.5052886E+02  0.7816164E-02  0.1300439E+00
        -11   -1    0    0    0    0  0.00000000000E+00  0.00000000000E+00  0.45593999997E+02  0.45594000000E+02  0.51100000000E-03 0.  1.
         11   -1    0    0    0    0 -0.00000000000E+00 -0.00000000000E+00 -0.45593999997E+02  0.45594000000E+02  0.51100000000E-03 0. -1.
    9900012    2    1    2    0    0  0.86480611739E+01 -0.14304605005E+02 -0.37064200573E+02  0.50528860185E+02  0.30000001018E+02 0.  0.
        -12    1    1    2    0    0 -0.86480611739E+01  0.14304605005E+02  0.37064200573E+02  0.40659139815E+02  0.00000000000E+00 0.  1.
         11    1    3    3    0    0  0.16103543327E+02 -0.11793997734E+02 -0.25291325518E+02  0.32219150158E+02  0.51100000000E-03 0. -1.
        -11    1    3    3    0    0  0.14414569818E+01  0.22054318928E+01 -0.63452112425E+01  0.68704755321E+01  0.51100000000E-03 0.  1.
        -12    1    3    3    0    0 -0.88969391344E+01 -0.47160391638E+01 -0.54276638121E+01  0.11439234494E+02  0.00000000000E+00 0.  1.
</event>
<event>
 7    1  0.5138511E-013  0.5052886E+02  0.7816164E-02  0.1300439E+00
        -11   -1    0    0    0    0  0.00000000000E+00  0.00000000000E+00  0.45593999997E+02  0.45594000000E+02  0.51100000000E-03 0. -1.
         11   -1    0    0    0    0 -0.00000000000E+00 -0.00000000000E+00 -0.45593999997E+02  0.45594000000E+02  0.51100000000E-03 0.  1.
    9900012    2    1    2    0    0 -0.25705707455E+02  0.13472058638E+02  0.28476054890E+02  0.50528862505E+02  0.30000008071E+02 0.  0.
        -12    1    1    2    0    0  0.25705707455E+02 -0.13472058638E+02 -0.28476054890E+02  0.40659137495E+02  0.00000000000E+00 0.  1.
         11    1    3    3    0    0 -0.16864640501E+02  0.23349968805E+01  0.21438355999E+02  0.27376475629E+02  0.51100000000E-03 0. -1.
        -11    1    3    3    0    0 -0.12474671000E+02  0.25846106441E+01  0.35251846726E+01  0.13218341650E+02  0.51100000000E-03 0.  1.
         12    1    3    3    0    0  0.36336040464E+01  0.85524511134E+01  0.35125142181E+01  0.99340452257E+01  0.00000000000E+00 0. -1.
</event>
<event>
 7    1  0.5138511E-013  0.5052884E+02  0.7816164E-02  0.1300439E+00
        -11   -1    0    0    0    0  0.00000000000E+00  0.00000000000E+00  0.45593999997E+02  0.45594000000E+02  0.51100000000E-03 0. -1.
         11   -1    0    0    0    0 -0.00000000000E+00 -0.00000000000E+00 -0.45593999997E+02  0.45594000000E+02  0.51100000000E-03 0.  1.
    9900012    2    1    2    0    0 -0.14501148982E+02  0.33896621555E+02 -0.17143595183E+02  0.50528841986E+02  0.29999945701E+02 0.  0.
        -12    1    1    2    0    0  0.14501148982E+02 -0.33896621555E+02  0.17143595183E+02  0.40659158014E+02  0.00000000000E+00 0.  1.
         11    1    3    3    0    0  0.51874701914E+01  0.13292009535E+02 -0.15404263965E+01  0.14351316253E+02  0.51100000000E-03 0. -1.
        -11    1    3    3    0    0  0.18540933913E+01  0.10148592038E+01  0.13268238119E+01  0.24956087827E+01  0.51100000000E-03 0.  1.
         12    1    3    3    0    0 -0.21542712565E+02  0.19589752816E+02 -0.16929992598E+02  0.33681916950E+02  0.00000000000E+00 0. -1.
</event>
<event>
 7    1  0.5138511E-013  0.5052887E+02  0.7816164E-02  0.1300439E+00
        -11   -1    0    0    0    0  0.00000000000E+00  0.00000000000E+00  0.45593999997E+02  0.45594000000E+02  0.51100000000E-03 0.  1.
         11   -1    0    0    0    0 -0.00000000000E+00 -0.00000000000E+00 -0.45593999997E+02  0.45594000000E+02  0.51100000000E-03 0. -1.
    9900012    2    1    2    0    0  0.22924317245E+02 -0.25860743565E+02 -0.21421079042E+02  0.50528868108E+02  0.30000025102E+02 0.  0.
        -12    1    1    2    0    0 -0.22924317245E+02  0.25860743565E+02  0.21421079042E+02  0.40659131892E+02  0.00000000000E+00 0.  1.
         11    1    3    3    0    0  0.55013202418E+01  0.34171302433E+01  0.16345910999E+01  0.66793107299E+01  0.51100000000E-03 0.  1.
        -11    1    3    3    0    0  0.35153582848E+01 -0.36399718586E+01 -0.11339161954E+02  0.12417074256E+02  0.51100000000E-03 0. -1.
         12    1    3    3    0    0  0.13907638719E+02 -0.25637901949E+02 -0.11716508188E+02  0.31432483122E+02  0.00000000000E+00 0. -1.
</event>
<event>
 7    1  0.5138511E-013  0.5052886E+02  0.7816164E-02  0.1300439E+00
        -11   -1    0    0    0    0  0.00000000000E+00  0.00000000000E+00  0.45593999997E+02  0.45594000000E+02  0.51100000000E-03 0. -1.
         11   -1    0    0    0    0 -0.00000000000E+00 -0.00000000000E+00 -0.45593999997E+02  0.45594000000E+02  0.51100000000E-03 0.  1.
    9900012    2    1    2    0    0 -0.35477724443E+02  0.19597805667E+02  0.32284285343E+01  0.50528859952E+02  0.30000000311E+02 0.  0.
        -12    1    1    2    0    0  0.35477724443E+02 -0.19597805667E+02 -0.32284285343E+01  0.40659140048E+02  0.00000000000E+00 0.  1.
         11    1    3    3    0    0 -0.12654781429E+02  0.12185663286E+02 -0.38519395098E+01  0.17985308476E+02  0.51100000000E-03 0. -1.
        -11    1    3    3    0    0 -0.20271404491E+02  0.38621054717E+01 -0.36503746812E+01  0.20956405567E+02  0.51100000000E-03 0.  1.
        -12    1    3    3    0    0 -0.25515385232E+01  0.35500369097E+01  0.10730742725E+02  0.11587145910E+02  0.00000000000E+00 0.  1.
</event>
<event>
 7    1  0.5138511E-013  0.5052886E+02  0.7816164E-02  0.1300439E+00
        -11   -1    0    0    0    0  0.00000000000E+00  0.00000000000E+00  0.45593999997E+02  0.45594000000E+02  0.51100000000E-03 0. -1.
         11   -1    0    0    0    0 -0.00000000000E+00 -0.00000000000E+00 -0.45593999997E+02  0.45594000000E+02  0.51100000000E-03 0.  1.
    9900012    2    1    2    0    0  0.31302684346E+02  0.25613909548E+02 -0.41514922005E+01  0.50528864531E+02  0.30000014229E+02 0.  0.
        -12    1    1    2    0    0 -0.31302684346E+02 -0.25613909548E+02  0.41514922005E+01  0.40659135469E+02  0.00000000000E+00 0.  1.
         11    1    3    3    0    0  0.15741539315E+02  0.14871915329E+02  0.31590316552E+01  0.21884912767E+02  0.51100000000E-03 0. -1.
        -11    1    3    3    0    0 -0.46898019059E+01  0.41176031823E+01 -0.43857332870E+00  0.62562964052E+01  0.51100000000E-03 0.  1.
         12    1    3    3    0    0  0.20250946936E+02  0.66243910367E+01 -0.68719505270E+01  0.22387655359E+02  0.00000000000E+00 0. -1.
</event>
<event>
 7    1  0.5138511E-013  0.5052886E+02  0.7816164E-02  0.1300439E+00
        -11   -1    0    0    0    0  0.00000000000E+00  0.00000000000E+00  0.45593999997E+02  0.45594000000E+02  0.51100000000E-03 0.  1.
         11   -1    0    0    0    0 -0.00000000000E+00 -0.00000000000E+00 -0.45593999997E+02  0.45594000000E+02  0.51100000000E-03 0. -1.
    9900012    2    1    2    0    0  0.22993623590E+01  0.23514116642E+02 -0.33090250654E+02  0.50528862810E+02  0.30000008997E+02 0.  0.
        -12    1    1    2    0    0 -0.22993623590E+01 -0.23514116642E+02  0.33090250654E+02  0.40659137190E+02  0.00000000000E+00 0.  1.
         11    1    3    3    0    0  0.11473356391E+00  0.14295214903E+02 -0.24129565733E+02  0.28046430711E+02  0.51100000000E-03 0. -1.
        -11    1    3    3    0    0  0.86006172698E+00  0.93626679631E+01 -0.14225411638E+02  0.17051732876E+02  0.51100000000E-03 0.  1.
        -12    1    3    3    0    0  0.13245670681E+01 -0.14376622352E+00  0.52647267167E+01  0.54306992227E+01  0.00000000000E+00 0.  1.
</event>
<event>
 7    1  0.5138511E-013  0.5052891E+02  0.7816164E-02  0.1300439E+00
        -11   -1    0    0    0    0  0.00000000000E+00  0.00000000000E+00  0.45593999997E+02  0.45594000000E+02  0.51100000000E-03 0. -1.
         11   -1    0    0    0    0 -0.00000000000E+00 -0.00000000000E+00 -0.45593999997E+02  0.45594000000E+02  0.51100000000E-03 0.  1.
    9900012    2    1    2    0    0  0.17658148497E+02 -0.79078120126E+01  0.35760566451E+02  0.50528907387E+02  0.30000144493E+02 0.  0.
        -12    1    1    2    0    0 -0.17658148497E+02  0.79078120126E+01 -0.35760566451E+02  0.40659092613E+02  0.00000000000E+00 0.  1.
         11    1    3    3    0    0  0.62711551130E+00 -0.10830327677E+02  0.40382648046E+01  0.11575701031E+02  0.51100000000E-03 0.  1.
        -11    1    3    3    0    0  0.29389057971E+01 -0.33753772304E+01  0.10215749018E+01  0.45906376761E+01  0.51100000000E-03 0. -1.
         12    1    3    3    0    0  0.14092127189E+02  0.62978928951E+01  0.30700726745E+02  0.34362568680E+02  0.00000000000E+00 0. -1.
</event>
<event>
 7    1  0.5138511E-013  0.5052886E+02  0.7816164E-02  0.1300439E+00
        -11   -1    0    0    0    0  0.00000000000E+00  0.00000000000E+00  0.45593999997E+02  0.45594000000E+02  0.51100000000E-03 0.  1.
         11   -1    0    0    0    0 -0.00000000000E+00 -0.00000000000E+00 -0.45593999997E+02  0.45594000000E+02  0.51100000000E-03 0. -1.
    9900012    2    1    2    0    0  0.20712920521E+02  0.28232228614E+02 -0.20665967172E+02  0.50528855786E+02  0.29999987648E+02 0.  0.
        -12    1    1    2    0    0 -0.20712920521E+02 -0.28232228614E+02  0.20665967172E+02  0.40659144214E+02  0.00000000000E+00 0.  1.
         11    1    3    3    0    0  0.52891534695E+01  0.12641905628E+02  0.28487500065E+01  0.13996724588E+02  0.51100000000E-03 0.  1.
        -11    1    3    3    0    0 -0.37815724025E+01  0.20266637561E+01 -0.23215160977E+01  0.48782264265E+01  0.51100000000E-03 0. -1.
         12    1    3    3    0    0  0.19205339454E+02  0.13563659230E+02 -0.21193201081E+02  0.31653904772E+02  0.00000000000E+00 0. -1.
</event>
<event>
 7    1  0.5138511E-013  0.5052885E+02  0.7816164E-02  0.1300439E+00
        -11   -1    0    0    0    0  0.00000000000E+00  0.00000000000E+00  0.45593999997E+02  0.45594000000E+02  0.51100000000E-03 0.  1.
         11   -1    0    0    0    0 -0.00000000000E+00 -0.00000000000E+00 -0.45593999997E+02  0.45594000000E+02  0.51100000000E-03 0. -1.
    9900012    2    1    2    0    0 -0.15504674731E+02  0.60117453998E+00 -0.37582042647E+02  0.50528852458E+02  0.29999977531E+02 0.  0.
        -12    1    1    2    0    0  0.15504674731E+02 -0.60117453998E+00  0.37582042647E+02  0.40659147542E+02  0.00000000000E+00 0.  1.
         11    1    3    3    0    0 -0.74181945310E+01  0.13843375362E+01 -0.37067537262E+01  0.84074980798E+01  0.51100000000E-03 0. -1.
        -11    1    3    3    0    0 -0.69434560474E+01  0.54888977779E+01 -0.13213970184E+01  0.89490597852E+01  0.51100000000E-03 0.  1.
         12    1    3    3    0    0 -0.11430241528E+01 -0.62720607742E+01 -0.32553891902E+02  0.33172294593E+02  0.00000000000E+00 0. -1.
</event>
<event>
 7    1  0.5138511E-013  0.5052886E+02  0.7816164E-02  0.1300439E+00
        -11   -1    0    0    0    0  0.00000000000E+00  0.00000000000E+00  0.45593999997E+02  0.45594000000E+02  0.51100000000E-03 0.  1.
         11   -1    0    0    0    0 -0.00000000000E+00 -0.00000000000E+00 -0.45593999997E+02  0.45594000000E+02  0.51100000000E-03 0. -1.
    9900012    2    1    2    0    0 -0.28308573231E+02 -0.31413706993E+01 -0.29015895983E+02  0.50528858987E+02  0.29999997377E+02 0.  0.
        -12    1    1    2    0    0  0.28308573231E+02  0.31413706993E+01  0.29015895983E+02  0.40659141013E+02  0.00000000000E+00 0.  1.
         11    1    3    3    0    0 -0.57836646945E+01  0.41736592922E+01 -0.15591710372E+02  0.17145601237E+02  0.51100000000E-03 0. -1.
        -11    1    3    3    0    0 -0.12596383381E+01  0.42867276778E+01  0.17504341180E+01  0.47986188418E+01  0.51100000000E-03 0.  1.
         12    1    3    3    0    0 -0.21265270198E+02 -0.11601757669E+02 -0.15174619728E+02  0.28584638908E+02  0.00000000000E+00 0. -1.
</event>
<event>
 7    1  0.5138511E-013  0.5052886E+02  0.7816164E-02  0.1300439E+00
        -11   -1    0    0    0    0  0.00000000000E+00  0.00000000000E+00  0.45593999997E+02  0.45594000000E+02  0.51100000000E-03 0. -1.
         11   -1    0    0    0    0 -0.00000000000E+00 -0.00000000000E+00 -0.45593999997E+02  0.45594000000E+02  0.51100000000E-03 0.  1.
    9900012    2    1    2    0    0 -0.29199538062E+02 -0.25770235410E+02 -0.11681077927E+02  0.50528860342E+02  0.30000001497E+02 0.  0.
        -12    1    1    2    0    0  0.29199538062E+02  0.25770235410E+02  0.11681077927E+02  0.40659139658E+02  0.00000000000E+00 0.  1.
         11    1    3    3    0    0 -0.98640196519E+01 -0.10195611232E+02 -0.66822835433E+01  0.15681271814E+02  0.51100000000E-03 0. -1.
        -11    1    3    3    0    0 -0.13021353907E+02 -0.19804662733E+00 -0.11129358769E+02  0.17130601476E+02  0.51100000000E-03 0.  1.
         12    1    3    3    0    0 -0.63141645032E+01 -0.15376577550E+02  0.61305643853E+01  0.17716987052E+02  0.00000000000E+00 0. -1.
</event>
<event>
 7    1  0.5138511E-013  0.5052886E+02  0.7816164E-02  0.1300439E+00
        -11   -1    0    0    0    0  0.00000000000E+00  0.00000000000E+00  0.45593999997E+02  0.45594000000E+02  0.51100000000E-03 0. -1.
         11   -1    0    0    0    0 -0.00000000000E+00 -0.00000000000E+00 -0.45593999997E+02  0.45594000000E+02  0.51100000000E-03 0.  1.
    9900012    2    1    2    0    0 -0.25412528119E+02  0.29312699168E+02 -0.12171050558E+02  0.50528863393E+02  0.30000010770E+02 0.  0.
        -12    1    1    2    0    0  0.25412528119E+02 -0.29312699168E+02  0.12171050558E+02  0.40659136607E+02  0.00000000000E+00 0.  1.
         11    1    3    3    0    0 -0.19647531582E+02  0.96421230945E+01  0.22053610537E+01  0.21996810057E+02  0.51100000000E-03 0. -1.
        -11    1    3    3    0    0 -0.88342328975E+01  0.63708192820E+01 -0.76903384661E+01  0.13333128485E+02  0.51100000000E-03 0.  1.
        -12    1    3    3    0    0  0.30692363602E+01  0.13299756791E+02 -0.66860731452E+01  0.15198924852E+02  0.00000000000E+00 0.  1.
</event>
<event>
 7    1  0.5138511E-013  0.5052885E+02  0.7816164E-02  0.1300439E+00
        -11   -1    0    0    0    0  0.00000000000E+00  0.00000000000E+00  0.45593999997E+02  0.45594000000E+02  0.51100000000E-03 0. -1.
         11   -1    0    0    0    0 -0.00000000000E+00 -0.00000000000E+00 -0.45593999997E+02  0.45594000000E+02  0.51100000000E-03 0.  1.
    9900012    2    1    2    0    0 -0.39380104750E+02 -0.10117534345E+02  0.96923847532E-01  0.50528849178E+02  0.29999967561E+02 0.  0.
        -12    1    1    2    0    0  0.39380104750E+02  0.10117534345E+02 -0.96923847532E-01  0.40659150822E+02  0.00000000000E+00 0.  1.
         11    1    3    3    0    0 -0.17046343742E+02 -0.10770026751E+01 -0.67333486417E+01  0.18359622924E+02  0.51100000000E-03 0. -1.
        -11    1    3    3    0    0 -0.11629579779E+02 -0.56331274020E+01 -0.67225582938E+01  0.14566126473E+02  0.51100000000E-03 0.  1.
        -12    1    3    3    0    0 -0.10704181230E+02 -0.34074042675E+01  0.13552830783E+02  0.17603099780E+02  0.00000000000E+00 0.  1.
</event>
<event>
 7    1  0.5138511E-013  0.5052883E+02  0.7816164E-02  0.1300439E+00
        -11   -1    0    0    0    0  0.00000000000E+00  0.00000000000E+00  0.45593999997E+02  0.45594000000E+02  0.51100000000E-03 0. -1.
         11   -1    0    0    0    0 -0.00000000000E+00 -0.00000000000E+00 -0.45593999997E+02  0.45594000000E+02  0.51100000000E-03 0.  1.
    9900012    2    1    2    0    0 -0.11687794192E+02  0.19297004402E+02  0.33825867168E+02  0.50528828813E+02  0.29999905659E+02 0.  0.
        -12    1    1    2    0    0  0.11687794192E+02 -0.19297004402E+02 -0.33825867168E+02  0.40659171187E+02  0.00000000000E+00 0.  1.
         11    1    3    3    0    0 -0.29944580778E+01  0.16907546159E+02  0.13701006137E+02  0.21967008575E+02  0.51100000000E-03 0. -1.
        -11    1    3    3    0    0  0.27808818087E+01  0.26557614003E+00  0.15912222654E+02  0.16155576881E+02  0.51100000000E-03 0.  1.
        -12    1    3    3    0    0 -0.11474217923E+02  0.21238821031E+01  0.42126383775E+01  0.12406243357E+02  0.00000000000E+00 0.  1.
</event>
<event>
 7    1  0.5138511E-013  0.5052888E+02  0.7816164E-02  0.1300439E+00
        -11   -1    0    0    0    0  0.00000000000E+00  0.00000000000E+00  0.45593999997E+02  0.45594000000E+02  0.51100000000E-03 0.  1.
         11   -1    0    0    0    0 -0.00000000000E+00 -0.00000000000E+00 -0.45593999997E+02  0.45594000000E+02  0.51100000000E-03 0. -1.
    9900012    2    1    2    0    0  0.23409158079E+02 -0.17689876104E+02 -0.28146826890E+02  0.50528877254E+02  0.30000052901E+02 0.  0.
        -12    1    1    2    0    0 -0.23409158079E+02  0.17689876104E+02  0.28146826890E+02  0.40659122746E+02  0.00000000000E+00 0.  1.
         11    1    3    3    0    0  0.68538205001E+01 -0.54405806412E+01 -0.17136037219E+02  0.19241064030E+02  0.51100000000E-03 0. -1.
        -11    1    3    3    0    0  0.19202510202E+02 -0.88052611539E+01 -0.14578100662E+02  0.25666905564E+02  0.51100000000E-03 0.  1.
        -12    1    3    3    0    0 -0.26471726236E+01 -0.34440343085E+01  0.35673109914E+01  0.56209076604E+01  0.00000000000E+00 0.  1.
</event>
<event>
 7    1  0.5138511E-013  0.5052886E+02  0.7816164E-02  0.1300439E+00
        -11   -1    0    0    0    0  0.00000000000E+00  0.00000000000E+00  0.45593999997E+02  0.45594000000E+02  0.51100000000E-03 0.  1.
         11   -1    0    0    0    0 -0.00000000000E+00 -0.00000000000E+00 -0.45593999997E+02  0.45594000000E+02  0.51100000000E-03 0. -1.
    9900012    2    1    2    0    0  0.39085323991E+02  0.83038552255E+01 -0.75199090528E+01  0.50528860865E+02  0.30000003084E+02 0.  0.
        -12    1    1    2    0    0 -0.39085323991E+02 -0.83038552255E+01  0.75199090528E+01  0.40659139135E+02  0.00000000000E+00 0.  1.
         11    1    3    3    0    0  0.24506960488E+02 -0.15424370747E+01  0.45881677035E+01  0.24980422487E+02  0.51100000000E-03 0. -1.
        -11    1    3    3    0    0  0.19082792124E+01  0.27296481884E+01  0.30740651806E+01  0.45323708786E+01  0.51100000000E-03 0.  1.
        -12    1    3    3    0    0  0.12670084291E+02  0.71166441118E+01 -0.15182141937E+02  0.21016067499E+02  0.00000000000E+00 0.  1.
</event>
<event>
 7    1  0.5138511E-013  0.5052886E+02  0.7816164E-02  0.1300439E+00
        -11   -1    0    0    0    0  0.00000000000E+00  0.00000000000E+00  0.45593999997E+02  0.45594000000E+02  0.51100000000E-03 0. -1.
         11   -1    0    0    0    0 -0.00000000000E+00 -0.00000000000E+00 -0.45593999997E+02  0.45594000000E+02  0.51100000000E-03 0.  1.
    9900012    2    1    2    0    0  0.30721010855E+02  0.14216859958E+02  0.22522569026E+02  0.50528859201E+02  0.29999998027E+02 0.  0.
        -12    1    1    2    0    0 -0.30721010855E+02 -0.14216859958E+02 -0.22522569026E+02  0.40659140799E+02  0.00000000000E+00 0.  1.
         11    1    3    3    0    0 -0.21362956452E+01  0.62061477069E+00 -0.17533612353E+01  0.28325249619E+01  0.51100000000E-03 0. -1.
        -11    1    3    3    0    0  0.27704275773E+02  0.13921361444E+02  0.10099270916E+02  0.32608687092E+02  0.51100000000E-03 0.  1.
         12    1    3    3    0    0  0.51530307269E+01 -0.32511625670E+00  0.14176659345E+02  0.15087647147E+02  0.00000000000E+00 0. -1.
</event>
<event>
 7    1  0.6428804E-013  0.5052877E+02  0.7816164E-02  0.1300439E+00
        -11   -1    0    0    0    0  0.00000000000E+00  0.00000000000E+00  0.45593999997E+02  0.45594000000E+02  0.51100000000E-03 0. -1.
         11   -1    0    0    0    0 -0.00000000000E+00 -0.00000000000E+00 -0.45593999997E+02  0.45594000000E+02  0.51100000000E-03 0.  1.
    9900012    2    1    2    0    0 -0.31112430187E+02 -0.26025550532E+02  0.28036630186E+01  0.50528768343E+02  0.29999721854E+02 0.  0.
        -12    1    1    2    0    0  0.31112430187E+02  0.26025550532E+02 -0.28036630186E+01  0.40659231657E+02  0.00000000000E+00 0.  1.
         11    1    3    3    0    0 -0.28968128586E+02 -0.18190660106E+02  0.39465602778E+00  0.34208308092E+02  0.51100000000E-03 0. -1.
        -11    1    3    3    0    0 -0.19061537195E+01  0.39077561070E+01  0.12174914299E+01  0.45151152186E+01  0.51100000000E-03 0.  1.
        -12    1    3    3    0    0 -0.23814788123E+00 -0.11742646532E+02  0.11915155610E+01  0.11805345032E+02  0.00000000000E+00 0.  1.
</event>
<event>
 7    1  0.5138511E-013  0.5052889E+02  0.7816164E-02  0.1300439E+00
        -11   -1    0    0    0    0  0.00000000000E+00  0.00000000000E+00  0.45593999997E+02  0.45594000000E+02  0.51100000000E-03 0.  1.
         11   -1    0    0    0    0 -0.00000000000E+00 -0.00000000000E+00 -0.45593999997E+02  0.45594000000E+02  0.51100000000E-03 0. -1.
    9900012    2    1    2    0    0  0.36122369689E+02  0.14932004640E+02 -0.11196986462E+02  0.50528894496E+02  0.30000105310E+02 0.  0.
        -12    1    1    2    0    0 -0.36122369689E+02 -0.14932004640E+02  0.11196986462E+02  0.40659105504E+02  0.00000000000E+00 0.  1.
         11    1    3    3    0    0  0.38169156440E+01  0.11851547840E+02 -0.28871528273E+01  0.12781380322E+02  0.51100000000E-03 0. -1.
        -11    1    3    3    0    0  0.13784060319E+01 -0.26470197984E+01  0.30867214966E+01  0.42935494478E+01  0.51100000000E-03 0.  1.
        -12    1    3    3    0    0  0.30927048014E+02  0.57274765988E+01 -0.11396555131E+02  0.33453964726E+02  0.00000000000E+00 0.  1.
</event>
<event>
 7    1  0.5138511E-013  0.5052885E+02  0.7816164E-02  0.1300439E+00
        -11   -1    0    0    0    0  0.00000000000E+00  0.00000000000E+00  0.45593999997E+02  0.45594000000E+02  0.51100000000E-03 0.  1.
         11   -1    0    0    0    0 -0.00000000000E+00 -0.00000000000E+00 -0.45593999997E+02  0.45594000000E+02  0.51100000000E-03 0. -1.
    9900012    2    1    2    0    0 -0.79597777350E+01 -0.35994314206E+02  0.17152776388E+02  0.50528850297E+02  0.29999970962E+02 0.  0.
        -12    1    1    2    0    0  0.79597777350E+01  0.35994314206E+02 -0.17152776388E+02  0.40659149703E+02  0.00000000000E+00 0.  1.
         11    1    3    3    0    0 -0.42132516147E+01 -0.35702672640E+02  0.10111527299E+02  0.37345351885E+02  0.51100000000E-03 0. -1.
        -11    1    3    3    0    0 -0.28380280941E+01 -0.43932617204E+01  0.72934083363E+01  0.89749070986E+01  0.51100000000E-03 0.  1.
        -12    1    3    3    0    0 -0.90849802620E+00  0.41016201544E+01 -0.25215924816E+00  0.42085913131E+01  0.00000000000E+00 0.  1.
</event>
<event>
 7    1  0.5138511E-013  0.5052886E+02  0.7816164E-02  0.1300439E+00
        -11   -1    0    0    0    0  0.00000000000E+00  0.00000000000E+00  0.45593999997E+02  0.45594000000E+02  0.51100000000E-03 0. -1.
         11   -1    0    0    0    0 -0.00000000000E+00 -0.00000000000E+00 -0.45593999997E+02  0.45594000000E+02  0.51100000000E-03 0.  1.
    9900012    2    1    2    0    0 -0.22569778735E+02 -0.22645035375E+02  0.25119183169E+02  0.50528857088E+02  0.29999991604E+02 0.  0.
        -12    1    1    2    0    0  0.22569778735E+02  0.22645035375E+02 -0.25119183169E+02  0.40659142912E+02  0.00000000000E+00 0.  1.
         11    1    3    3    0    0 -0.17668240833E+02 -0.11257235368E+02  0.69878424740E+01  0.22084429468E+02  0.51100000000E-03 0. -1.
        -11    1    3    3    0    0 -0.10399530945E+02 -0.11669823127E+02  0.97695989186E+01  0.18433124504E+02  0.51100000000E-03 0.  1.
         12    1    3    3    0    0  0.54979930426E+01  0.28202311900E+00  0.83617417765E+01  0.10011303116E+02  0.00000000000E+00 0. -1.
</event>
<event>
 7    1  0.5138511E-013  0.5052886E+02  0.7816164E-02  0.1300439E+00
        -11   -1    0    0    0    0  0.00000000000E+00  0.00000000000E+00  0.45593999997E+02  0.45594000000E+02  0.51100000000E-03 0.  1.
         11   -1    0    0    0    0 -0.00000000000E+00 -0.00000000000E+00 -0.45593999997E+02  0.45594000000E+02  0.51100000000E-03 0. -1.
    9900012    2    1    2    0    0  0.26818255472E+02 -0.19452530552E+02 -0.23570020332E+02  0.50528860438E+02  0.30000001788E+02 0.  0.
        -12    1    1    2    0    0 -0.26818255472E+02  0.19452530552E+02  0.23570020332E+02  0.40659139562E+02  0.00000000000E+00 0.  1.
         11    1    3    3    0    0  0.60060122944E+01 -0.13628229172E+01 -0.72591645916E+01  0.95197132737E+01  0.51100000000E-03 0. -1.
        -11    1    3    3    0    0 -0.36502652463E+01  0.33973089731E+01 -0.31010824630E+01  0.58722106000E+01  0.51100000000E-03 0.  1.
        -12    1    3    3    0    0  0.24462508424E+02 -0.21487016608E+02 -0.13209773278E+02  0.35136936565E+02  0.00000000000E+00 0.  1.
</event>
<event>
 7    1  0.5138511E-013  0.5052885E+02  0.7816164E-02  0.1300439E+00
        -11   -1    0    0    0    0  0.00000000000E+00  0.00000000000E+00  0.45593999997E+02  0.45594000000E+02  0.51100000000E-03 0.  1.
         11   -1    0    0    0    0 -0.00000000000E+00 -0.00000000000E+00 -0.45593999997E+02  0.45594000000E+02  0.51100000000E-03 0. -1.
    9900012    2    1    2    0    0 -0.79115750661E+01  0.34887209789E+02 -0.19325011283E+02  0.50528849886E+02  0.29999969714E+02 0.  0.
        -12    1    1    2    0    0  0.79115750661E+01 -0.34887209789E+02  0.19325011283E+02  0.40659150114E+02  0.00000000000E+00 0.  1.
         11    1    3    3    0    0 -0.19904010688E+01  0.10544027798E+02 -0.14772980879E+02  0.18258674183E+02  0.51100000000E-03 0. -1.
        -11    1    3    3    0    0 -0.16462542166E+01  0.11892273800E+02 -0.12141396028E+02  0.17074830214E+02  0.51100000000E-03 0.  1.
        -12    1    3    3    0    0 -0.42749197807E+01  0.12450908192E+02  0.75893656244E+01  0.15195345489E+02  0.00000000000E+00 0.  1.
</event>
<event>
 7    1  0.5154602E-013  0.5052886E+02  0.7816164E-02  0.1300439E+00
        -11   -1    0    0    0    0  0.00000000000E+00  0.00000000000E+00  0.45593999997E+02  0.45594000000E+02  0.51100000000E-03 0. -1.
         11   -1    0    0    0    0 -0.00000000000E+00 -0.00000000000E+00 -0.45593999997E+02  0.45594000000E+02  0.51100000000E-03 0.  1.
    9900012    2    1    2    0    0  0.18259036906E+02 -0.32824316026E+02  0.15567201876E+02  0.50528856802E+02  0.29999990737E+02 0.  0.
        -12    1    1    2    0    0 -0.18259036906E+02  0.32824316026E+02 -0.15567201876E+02  0.40659143198E+02  0.00000000000E+00 0.  1.
         11    1    3    3    0    0  0.12005624341E+02 -0.26529670956E+02  0.58989203305E+01  0.29711205263E+02  0.51100000000E-03 0. -1.
        -11    1    3    3    0    0  0.10011578901E+01 -0.10717851111E+02  0.87852900479E+01  0.13894458285E+02  0.51100000000E-03 0.  1.
        -12    1    3    3    0    0  0.52522546757E+01  0.44232060406E+01  0.88299149732E+00  0.69231932546E+01  0.00000000000E+00 0.  1.
</event>
<event>
 7    1  0.5138511E-013  0.5052887E+02  0.7816164E-02  0.1300439E+00
        -11   -1    0    0    0    0  0.00000000000E+00  0.00000000000E+00  0.45593999997E+02  0.45594000000E+02  0.51100000000E-03 0.  1.
         11   -1    0    0    0    0 -0.00000000000E+00 -0.00000000000E+00 -0.45593999997E+02  0.45594000000E+02  0.51100000000E-03 0. -1.
    9900012    2    1    2    0    0 -0.75537165004E+01  0.24952672574E+02 -0.31200491593E+02  0.50528866005E+02  0.30000018709E+02 0.  0.
        -12    1    1    2    0    0  0.75537165004E+01 -0.24952672574E+02  0.31200491593E+02  0.40659133995E+02  0.00000000000E+00 0.  1.
         11    1    3    3    0    0 -0.45812160155E+01  0.69458488105E+01 -0.42023060942E+01  0.93215735072E+01  0.51100000000E-03 0. -1.
        -11    1    3    3    0    0  0.29765360263E+01  0.22716009422E+02 -0.23607933400E+02  0.32896981176E+02  0.51100000000E-03 0.  1.
         12    1    3    3    0    0 -0.59490365112E+01 -0.47091856585E+01 -0.33902520982E+01  0.83103113219E+01  0.00000000000E+00 0. -1.
</event>
<event>
 7    1  0.5138511E-013  0.5052888E+02  0.7816164E-02  0.1300439E+00
        -11   -1    0    0    0    0  0.00000000000E+00  0.00000000000E+00  0.45593999997E+02  0.45594000000E+02  0.51100000000E-03 0.  1.
         11   -1    0    0    0    0 -0.00000000000E+00 -0.00000000000E+00 -0.45593999997E+02  0.45594000000E+02  0.51100000000E-03 0. -1.
    9900012    2    1    2    0    0 -0.37133962612E+02 -0.14081482839E+02 -0.87146086232E+01  0.50528883659E+02  0.30000072369E+02 0.  0.
        -12    1    1    2    0    0  0.37133962612E+02  0.14081482839E+02  0.87146086232E+01  0.40659116341E+02  0.00000000000E+00 0.  1.
         11    1    3    3    0    0 -0.12162232455E+02  0.26923478555E+00  0.65474558404E+01  0.13815265611E+02  0.51100000000E-03 0. -1.
        -11    1    3    3    0    0 -0.16649346629E+02 -0.10321198973E+02 -0.87139916435E+00  0.19608345881E+02  0.51100000000E-03 0.  1.
         12    1    3    3    0    0 -0.83223835284E+01 -0.40295186511E+01 -0.14390665299E+02  0.17105272167E+02  0.00000000000E+00 0. -1.
</event>
<event>
 7    1  0.5138511E-013  0.5052885E+02  0.7816164E-02  0.1300439E+00
        -11   -1    0    0    0    0  0.00000000000E+00  0.00000000000E+00  0.45593999997E+02  0.45594000000E+02  0.51100000000E-03 0.  1.
         11   -1    0    0    0    0 -0.00000000000E+00 -0.00000000000E+00 -0.45593999997E+02  0.45594000000E+02  0.51100000000E-03 0. -1.
    9900012    2    1    2    0    0 -0.20263154683E+02 -0.47816979054E+01 -0.34924291573E+02  0.50528853250E+02  0.29999979939E+02 0.  0.
        -12    1    1    2    0    0  0.20263154683E+02  0.47816979054E+01  0.34924291573E+02  0.40659146750E+02  0.00000000000E+00 0.  1.
         11    1    3    3    0    0 -0.36665496435E+01  0.62254908757E+00 -0.28108935050E+02  0.28353895386E+02  0.51100000000E-03 0. -1.
        -11    1    3    3    0    0 -0.62806340381E+01 -0.59004688951E+01 -0.80261982447E+01  0.11776321821E+02  0.51100000000E-03 0.  1.
        -12    1    3    3    0    0 -0.10315971001E+02  0.49622190207E+00  0.12108417219E+01  0.10398636043E+02  0.00000000000E+00 0.  1.
</event>
<event>
 7    1  0.5138511E-013  0.5052885E+02  0.7816164E-02  0.1300439E+00
        -11   -1    0    0    0    0  0.00000000000E+00  0.00000000000E+00  0.45593999997E+02  0.45594000000E+02  0.51100000000E-03 0. -1.
         11   -1    0    0    0    0 -0.00000000000E+00 -0.00000000000E+00 -0.45593999997E+02  0.45594000000E+02  0.51100000000E-03 0.  1.
    9900012    2    1    2    0    0 -0.26756378927E+02  0.11217589503E+02  0.28485577894E+02  0.50528852499E+02  0.29999977656E+02 0.  0.
        -12    1    1    2    0    0  0.26756378927E+02 -0.11217589503E+02 -0.28485577894E+02  0.40659147501E+02  0.00000000000E+00 0.  1.
         11    1    3    3    0    0  0.59404771220E+00 -0.23774957635E+01  0.90971741000E+01  0.94214625009E+01  0.51100000000E-03 0. -1.
        -11    1    3    3    0    0 -0.16044404541E+01  0.32230149216E+01 -0.35819416017E+01  0.50786179473E+01  0.51100000000E-03 0.  1.
         12    1    3    3    0    0 -0.25745986185E+02  0.10372070345E+02  0.22970345396E+02  0.36028772051E+02  0.00000000000E+00 0. -1.
</event>
<event>
 7    1  0.5138511E-013  0.5052887E+02  0.7816164E-02  0.1300439E+00
        -11   -1    0    0    0    0  0.00000000000E+00  0.00000000000E+00  0.45593999997E+02  0.45594000000E+02  0.51100000000E-03 0.  1.
         11   -1    0    0    0    0 -0.00000000000E+00 -0.00000000000E+00 -0.45593999997E+02  0.45594000000E+02  0.51100000000E-03 0. -1.
    9900012    2    1    2    0    0  0.36155928538E+02  0.18171391982E+02 -0.39641267483E+01  0.50528868727E+02  0.30000026982E+02 0.  0.
        -12    1    1    2    0    0 -0.36155928538E+02 -0.18171391982E+02  0.39641267483E+01  0.40659131273E+02  0.00000000000E+00 0.  1.
         11    1    3    3    0    0  0.11689770502E+02  0.26551914634E+01 -0.41247684223E+01  0.12677321913E+02  0.51100000000E-03 0. -1.
        -11    1    3    3    0    0  0.24620780494E+02  0.90410259607E+01  0.82439520794E+01  0.27493376088E+02  0.51100000000E-03 0.  1.
        -12    1    3    3    0    0 -0.15462245826E+00  0.64751745584E+01 -0.80833104055E+01  0.10358170725E+02  0.00000000000E+00 0.  1.
</event>
<event>
 7    1  0.5138511E-013  0.5052886E+02  0.7816164E-02  0.1300439E+00
        -11   -1    0    0    0    0  0.00000000000E+00  0.00000000000E+00  0.45593999997E+02  0.45594000000E+02  0.51100000000E-03 0.  1.
         11   -1    0    0    0    0 -0.00000000000E+00 -0.00000000000E+00 -0.45593999997E+02  0.45594000000E+02  0.51100000000E-03 0. -1.
    9900012    2    1    2    0    0  0.28547129212E+02 -0.43698689213E+01 -0.28620464848E+02  0.50528863895E+02  0.30000012296E+02 0.  0.
        -12    1    1    2    0    0 -0.28547129212E+02  0.43698689213E+01  0.28620464848E+02  0.40659136105E+02  0.00000000000E+00 0.  1.
         11    1    3    3    0    0  0.17803350136E+02  0.50659573245E+01 -0.14738382323E+02  0.23661004066E+02  0.51100000000E-03 0. -1.
        -11    1    3    3    0    0  0.12025429207E+02 -0.25314189558E+01 -0.11692942435E+01  0.12344483741E+02  0.51100000000E-03 0.  1.
        -12    1    3    3    0    0 -0.12816501311E+01 -0.69044072899E+01 -0.12712788282E+02  0.14523376088E+02  0.00000000000E+00 0.  1.
</event>
<event>
 7    1  0.5138511E-013  0.5052886E+02  0.7816164E-02  0.1300439E+00
        -11   -1    0    0    0    0  0.00000000000E+00  0.00000000000E+00  0.45593999997E+02  0.45594000000E+02  0.51100000000E-03 0.  1.
         11   -1    0    0    0    0 -0.00000000000E+00 -0.00000000000E+00 -0.45593999997E+02  0.45594000000E+02  0.51100000000E-03 0. -1.
    9900012    2    1    2    0    0  0.14618706110E+00  0.37561166306E+02 -0.15566091749E+02  0.50528858380E+02  0.29999995533E+02 0.  0.
        -12    1    1    2    0    0 -0.14618706110E+00 -0.37561166306E+02  0.15566091749E+02  0.40659141620E+02  0.00000000000E+00 0.  1.
         11    1    3    3    0    0  0.24898728815E+01  0.14996028478E+02 -0.19304914501E+02  0.24571529485E+02  0.51100000000E-03 0. -1.
        -11    1    3    3    0    0  0.96474317586E+00 -0.10596959332E+01  0.13734923584E+01  0.19849852357E+01  0.51100000000E-03 0.  1.
        -12    1    3    3    0    0 -0.33084289963E+01  0.23624833761E+02  0.23653303940E+01  0.23972343660E+02  0.00000000000E+00 0.  1.
</event>
<event>
 7    1  0.5138511E-013  0.5052886E+02  0.7816164E-02  0.1300439E+00
        -11   -1    0    0    0    0  0.00000000000E+00  0.00000000000E+00  0.45593999997E+02  0.45594000000E+02  0.51100000000E-03 0.  1.
         11   -1    0    0    0    0 -0.00000000000E+00 -0.00000000000E+00 -0.45593999997E+02  0.45594000000E+02  0.51100000000E-03 0. -1.
    9900012    2    1    2    0    0 -0.12108420799E+02  0.34941608746E+01 -0.38656724901E+02  0.50528863333E+02  0.30000010586E+02 0.  0.
        -12    1    1    2    0    0  0.12108420799E+02 -0.34941608746E+01  0.38656724901E+02  0.40659136667E+02  0.00000000000E+00 0.  1.
         11    1    3    3    0    0  0.69428136876E+00  0.29415775899E+01 -0.10567854338E+02  0.10991562715E+02  0.51100000000E-03 0. -1.
        -11    1    3    3    0    0 -0.15739018099E+02  0.53043767330E+01 -0.29429603782E+02  0.33792819981E+02  0.51100000000E-03 0.  1.
        -12    1    3    3    0    0  0.29363159309E+01 -0.47517934482E+01  0.13407332194E+01  0.57444806368E+01  0.00000000000E+00 0.  1.
</event>
<event>
 7    1  0.5138511E-013  0.5052886E+02  0.7816164E-02  0.1300439E+00
        -11   -1    0    0    0    0  0.00000000000E+00  0.00000000000E+00  0.45593999997E+02  0.45594000000E+02  0.51100000000E-03 0.  1.
         11   -1    0    0    0    0 -0.00000000000E+00 -0.00000000000E+00 -0.45593999997E+02  0.45594000000E+02  0.51100000000E-03 0. -1.
    9900012    2    1    2    0    0 -0.16366388902E+02 -0.29535854083E+02 -0.22648184702E+02  0.50528860407E+02  0.30000001694E+02 0.  0.
        -12    1    1    2    0    0  0.16366388902E+02  0.29535854083E+02  0.22648184702E+02  0.40659139593E+02  0.00000000000E+00 0.  1.
         11    1    3    3    0    0 -0.86174920396E+01 -0.11427225014E+02 -0.20389888931E+02  0.24911648108E+02  0.51100000000E-03 0. -1.
        -11    1    3    3    0    0 -0.16157394773E+01  0.28043592671E+01 -0.20334069463E+01  0.38222753731E+01  0.51100000000E-03 0.  1.
         12    1    3    3    0    0 -0.61331573855E+01 -0.20912988336E+02 -0.22488882519E+00  0.21794936927E+02  0.00000000000E+00 0. -1.
</event>
<event>
 7    1  0.5138511E-013  0.5052886E+02  0.7816164E-02  0.1300439E+00
        -11   -1    0    0    0    0  0.00000000000E+00  0.00000000000E+00  0.45593999997E+02  0.45594000000E+02  0.51100000000E-03 0.  1.
         11   -1    0    0    0    0 -0.00000000000E+00 -0.00000000000E+00 -0.45593999997E+02  0.45594000000E+02  0.51100000000E-03 0. -1.
    9900012    2    1    2    0    0 -0.19909847386E+02 -0.20720917873E+02 -0.28764687121E+02  0.50528859753E+02  0.29999999705E+02 0.  0.
        -12    1    1    2    0    0  0.19909847386E+02  0.20720917873E+02  0.28764687121E+02  0.40659140247E+02  0.00000000000E+00 0.  1.
         11    1    3    3    0    0 -0.61681369200E+01  0.53320779304E+01 -0.12024036675E+02  0.14527712357E+02  0.51100000000E-03 0. -1.
        -11    1    3    3    0    0 -0.12215422129E+01  0.10018231244E+01 -0.25138418773E+01  0.29690429764E+01  0.51100000000E-03 0.  1.
         12    1    3    3    0    0 -0.12520168253E+02 -0.27054818928E+02 -0.14226808569E+02  0.33032104419E+02  0.00000000000E+00 0. -1.
</event>
<event>
 7    1  0.5138511E-013  0.5052885E+02  0.7816164E-02  0.1300439E+00
        -11   -1    0    0    0    0  0.00000000000E+00  0.00000000000E+00  0.45593999997E+02  0.45594000000E+02  0.51100000000E-03 0. -1.
         11   -1    0    0    0    0 -0.00000000000E+00 -0.00000000000E+00 -0.45593999997E+02  0.45594000000E+02  0.51100000000E-03 0.  1.
    9900012    2    1    2    0    0 -0.40565234505E+02  0.24355355772E+01  0.13024607618E+01  0.50528849886E+02  0.29999969714E+02 0.  0.
        -12    1    1    2    0    0  0.40565234505E+02 -0.24355355772E+01 -0.13024607618E+01  0.40659150114E+02  0.00000000000E+00 0.  1.
         11    1    3    3    0    0 -0.27387629854E+00 -0.42604610833E+01  0.12361269968E+01  0.44446087660E+01  0.51100000000E-03 0. -1.
        -11    1    3    3    0    0 -0.78789589357E+01  0.10160007908E+02 -0.34123310675E+01  0.13302171182E+02  0.51100000000E-03 0.  1.
        -12    1    3    3    0    0 -0.32412399270E+02 -0.34640112470E+01  0.34786648324E+01  0.32782069938E+02  0.00000000000E+00 0.  1.
</event>
<event>
 7    1  0.5138511E-013  0.5052886E+02  0.7816164E-02  0.1300439E+00
        -11   -1    0    0    0    0  0.00000000000E+00  0.00000000000E+00  0.45593999997E+02  0.45594000000E+02  0.51100000000E-03 0.  1.
         11   -1    0    0    0    0 -0.00000000000E+00 -0.00000000000E+00 -0.45593999997E+02  0.45594000000E+02  0.51100000000E-03 0. -1.
    9900012    2    1    2    0    0 -0.14319855313E+02  0.34047130004E+02 -0.16997069291E+02  0.50528859796E+02  0.29999999835E+02 0.  0.
        -12    1    1    2    0    0  0.14319855313E+02 -0.34047130004E+02  0.16997069291E+02  0.40659140204E+02  0.00000000000E+00 0.  1.
         11    1    3    3    0    0 -0.18492280195E+01 -0.70275756766E-01 -0.23198832128E+01  0.29675648825E+01  0.51100000000E-03 0. -1.
        -11    1    3    3    0    0 -0.33395205799E+01  0.16412621538E+02  0.69714846038E+01  0.18141889133E+02  0.51100000000E-03 0.  1.
         12    1    3    3    0    0 -0.91311067140E+01  0.17704784222E+02 -0.21648670682E+02  0.29419405780E+02  0.00000000000E+00 0. -1.
</event>
<event>
 7    1  0.5138511E-013  0.5052886E+02  0.7816164E-02  0.1300439E+00
        -11   -1    0    0    0    0  0.00000000000E+00  0.00000000000E+00  0.45593999997E+02  0.45594000000E+02  0.51100000000E-03 0. -1.
         11   -1    0    0    0    0 -0.00000000000E+00 -0.00000000000E+00 -0.45593999997E+02  0.45594000000E+02  0.51100000000E-03 0.  1.
    9900012    2    1    2    0    0 -0.26571602896E+02 -0.10787950220E+02  0.28822485767E+02  0.50528860361E+02  0.30000001554E+02 0.  0.
        -12    1    1    2    0    0  0.26571602896E+02  0.10787950220E+02 -0.28822485767E+02  0.40659139639E+02  0.00000000000E+00 0.  1.
         11    1    3    3    0    0 -0.27694378256E+01 -0.40234045501E+01  0.38019524861E+01  0.61897021747E+01  0.51100000000E-03 0. -1.
        -11    1    3    3    0    0  0.10749343711E+01 -0.11270113180E+02  0.75234570745E+01  0.13593135826E+02  0.51100000000E-03 0.  1.
         12    1    3    3    0    0 -0.24877099441E+02  0.45055675100E+01  0.17497076206E+02  0.30746022360E+02  0.00000000000E+00 0. -1.
</event>
<event>
 7    1  0.5138511E-013  0.5052886E+02  0.7816164E-02  0.1300439E+00
        -11   -1    0    0    0    0  0.00000000000E+00  0.00000000000E+00  0.45593999997E+02  0.45594000000E+02  0.51100000000E-03 0.  1.
         11   -1    0    0    0    0 -0.00000000000E+00 -0.00000000000E+00 -0.45593999997E+02  0.45594000000E+02  0.51100000000E-03 0. -1.
    9900012    2    1    2    0    0  0.15845925002E+02  0.37365990864E+02  0.24197487426E+01  0.50528858391E+02  0.29999995566E+02 0.  0.
        -12    1    1    2    0    0 -0.15845925002E+02 -0.37365990864E+02 -0.24197487426E+01  0.40659141609E+02  0.00000000000E+00 0.  1.
         11    1    3    3    0    0  0.17416009591E+01  0.36064529052E+01  0.79334426899E+01  0.88870236656E+01  0.51100000000E-03 0.  1.
        -11    1    3    3    0    0 -0.14578408523E+01 -0.21800858099E+00 -0.39736817617E+01  0.42382749670E+01  0.51100000000E-03 0. -1.
         12    1    3    3    0    0  0.15562164895E+02  0.33977546539E+02 -0.15400121856E+01  0.37403559758E+02  0.00000000000E+00 0. -1.
</event>
<event>
 7    1  0.6557072E-013  0.5052890E+02  0.7816164E-02  0.1300439E+00
        -11   -1    0    0    0    0  0.00000000000E+00  0.00000000000E+00  0.45593999997E+02  0.45594000000E+02  0.51100000000E-03 0. -1.
         11   -1    0    0    0    0 -0.00000000000E+00 -0.00000000000E+00 -0.45593999997E+02  0.45594000000E+02  0.51100000000E-03 0.  1.
    9900012    2    1    2    0    0  0.30472852739E+02  0.24036402755E+02  0.12116902987E+02  0.50528895861E+02  0.30000109458E+02 0.  0.
        -12    1    1    2    0    0 -0.30472852739E+02 -0.24036402755E+02 -0.12116902987E+02  0.40659104139E+02  0.00000000000E+00 0.  1.
         11    1    3    3    0    0  0.12577122881E+02  0.11796412705E+02  0.47178360077E+01  0.17877285855E+02  0.51100000000E-03 0. -1.
        -11    1    3    3    0    0  0.19113295054E+02  0.58725009392E+01 -0.31778122338E+01  0.20246056553E+02  0.51100000000E-03 0.  1.
        -12    1    3    3    0    0 -0.12175651970E+01  0.63674891102E+01  0.10576879213E+02  0.12405553452E+02  0.00000000000E+00 0.  1.
</event>
<event>
 7    1  0.5138511E-013  0.5052886E+02  0.7816164E-02  0.1300439E+00
        -11   -1    0    0    0    0  0.00000000000E+00  0.00000000000E+00  0.45593999997E+02  0.45594000000E+02  0.51100000000E-03 0.  1.
         11   -1    0    0    0    0 -0.00000000000E+00 -0.00000000000E+00 -0.45593999997E+02  0.45594000000E+02  0.51100000000E-03 0. -1.
    9900012    2    1    2    0    0  0.35900509003E+02  0.12612057692E+01 -0.19045431431E+02  0.50528860252E+02  0.30000001221E+02 0.  0.
        -12    1    1    2    0    0 -0.35900509003E+02 -0.12612057692E+01  0.19045431431E+02  0.40659139748E+02  0.00000000000E+00 0.  1.
         11    1    3    3    0    0  0.15798646998E+01 -0.54645461100E+01  0.20588795846E+01  0.60494811399E+01  0.51100000000E-03 0.  1.
        -11    1    3    3    0    0  0.18888592550E+01 -0.78747667045E+00 -0.87246191155E+01  0.89614110364E+01  0.51100000000E-03 0. -1.
         12    1    3    3    0    0  0.32431785048E+02  0.75132285496E+01 -0.12379691900E+02  0.35517968075E+02  0.00000000000E+00 0. -1.
</event>
<event>
 7    1  0.5138511E-013  0.5052885E+02  0.7816164E-02  0.1300439E+00
        -11   -1    0    0    0    0  0.00000000000E+00  0.00000000000E+00  0.45593999997E+02  0.45594000000E+02  0.51100000000E-03 0.  1.
         11   -1    0    0    0    0 -0.00000000000E+00 -0.00000000000E+00 -0.45593999997E+02  0.45594000000E+02  0.51100000000E-03 0. -1.
    9900012    2    1    2    0    0 -0.29808494926E+02 -0.33679830304E+01 -0.27445881277E+02  0.50528854921E+02  0.29999985018E+02 0.  0.
        -12    1    1    2    0    0  0.29808494926E+02  0.33679830304E+01  0.27445881277E+02  0.40659145079E+02  0.00000000000E+00 0.  1.
         11    1    3    3    0    0 -0.14454189864E+02  0.82255383103E+01 -0.11660973111E+02  0.20311607009E+02  0.51100000000E-03 0. -1.
        -11    1    3    3    0    0 -0.12404500406E+01  0.12853770095E+01 -0.10137087559E+02  0.10293272308E+02  0.51100000000E-03 0.  1.
         12    1    3    3    0    0 -0.14113855022E+02 -0.12878898350E+02 -0.56478206072E+01  0.19923975605E+02  0.00000000000E+00 0. -1.
</event>
<event>
 7    1  0.5138511E-013  0.5052885E+02  0.7816164E-02  0.1300439E+00
        -11   -1    0    0    0    0  0.00000000000E+00  0.00000000000E+00  0.45593999997E+02  0.45594000000E+02  0.51100000000E-03 0. -1.
         11   -1    0    0    0    0 -0.00000000000E+00 -0.00000000000E+00 -0.45593999997E+02  0.45594000000E+02  0.51100000000E-03 0.  1.
    9900012    2    1    2    0    0 -0.22723592579E+02 -0.11464943634E+02  0.31707408842E+02  0.50528851365E+02  0.29999974210E+02 0.  0.
        -12    1    1    2    0    0  0.22723592579E+02  0.11464943634E+02 -0.31707408842E+02  0.40659148635E+02  0.00000000000E+00 0.  1.
         11    1    3    3    0    0 -0.29412062625E+01 -0.83542962504E+01  0.20071439159E+02  0.21938724446E+02  0.51100000000E-03 0. -1.
        -11    1    3    3    0    0 -0.11879247244E+02 -0.88084392645E+01  0.20642050727E+01  0.14932048092E+02  0.51100000000E-03 0.  1.
         12    1    3    3    0    0 -0.79031390720E+01  0.56977918812E+01  0.95717646101E+01  0.13658078828E+02  0.00000000000E+00 0. -1.
</event>
<event>
 7    1  0.5138511E-013  0.5052887E+02  0.7816164E-02  0.1300439E+00
        -11   -1    0    0    0    0  0.00000000000E+00  0.00000000000E+00  0.45593999997E+02  0.45594000000E+02  0.51100000000E-03 0. -1.
         11   -1    0    0    0    0 -0.00000000000E+00 -0.00000000000E+00 -0.45593999997E+02  0.45594000000E+02  0.51100000000E-03 0.  1.
    9900012    2    1    2    0    0  0.35085931291E+02  0.19898918262E+02  0.51162011389E+01  0.50528867734E+02  0.30000023964E+02 0.  0.
        -12    1    1    2    0    0 -0.35085931291E+02 -0.19898918262E+02 -0.51162011389E+01  0.40659132266E+02  0.00000000000E+00 0.  1.
         11    1    3    3    0    0  0.15850098036E+02  0.27407115990E+01 -0.12507113764E+01  0.16133858405E+02  0.51100000000E-03 0. -1.
        -11    1    3    3    0    0  0.22742238061E+02  0.18763563642E+02  0.37193730656E+01  0.29717241609E+02  0.51100000000E-03 0.  1.
        -12    1    3    3    0    0 -0.35064048071E+01 -0.16053569790E+01  0.26475394497E+01  0.46777677196E+01  0.00000000000E+00 0.  1.
</event>
<event>
 7    1  0.5138511E-013  0.5052886E+02  0.7816164E-02  0.1300439E+00
        -11   -1    0    0    0    0  0.00000000000E+00  0.00000000000E+00  0.45593999997E+02  0.45594000000E+02  0.51100000000E-03 0.  1.
         11   -1    0    0    0    0 -0.00000000000E+00 -0.00000000000E+00 -0.45593999997E+02  0.45594000000E+02  0.51100000000E-03 0. -1.
    9900012    2    1    2    0    0 -0.13971082878E+02 -0.10136624932E+02 -0.36813360598E+02  0.50528857851E+02  0.29999993924E+02 0.  0.
        -12    1    1    2    0    0  0.13971082878E+02  0.10136624932E+02  0.36813360598E+02  0.40659142149E+02  0.00000000000E+00 0.  1.
         11    1    3    3    0    0 -0.95583097828E+01  0.15413444965E+01 -0.62491395235E+01  0.11523401139E+02  0.51100000000E-03 0. -1.
        -11    1    3    3    0    0  0.32520254507E+01  0.46297298486E+01 -0.40916998970E+01  0.69822687080E+01  0.51100000000E-03 0.  1.
         12    1    3    3    0    0 -0.76647985457E+01 -0.16307699277E+02 -0.26472521177E+02  0.32023188004E+02  0.00000000000E+00 0. -1.
</event>
<event>
 7    1  0.5138511E-013  0.5052881E+02  0.7816164E-02  0.1300439E+00
        -11   -1    0    0    0    0  0.00000000000E+00  0.00000000000E+00  0.45593999997E+02  0.45594000000E+02  0.51100000000E-03 0. -1.
         11   -1    0    0    0    0 -0.00000000000E+00 -0.00000000000E+00 -0.45593999997E+02  0.45594000000E+02  0.51100000000E-03 0.  1.
    9900012    2    1    2    0    0 -0.67654509264E+01 -0.27471205578E+01  0.39998149657E+02  0.50528807023E+02  0.29999839426E+02 0.  0.
        -12    1    1    2    0    0  0.67654509264E+01  0.27471205578E+01 -0.39998149657E+02  0.40659192977E+02  0.00000000000E+00 0.  1.
         11    1    3    3    0    0 -0.22203617957E+01 -0.38508972977E+01 -0.14539086080E+01  0.46768864646E+01  0.51100000000E-03 0. -1.
        -11    1    3    3    0    0 -0.92599139986E+01 -0.47556761685E+01  0.14365488831E+02  0.17740623797E+02  0.51100000000E-03 0.  1.
        -12    1    3    3    0    0  0.47148248679E+01  0.58594529084E+01  0.27086569433E+02  0.28111296761E+02  0.00000000000E+00 0.  1.
</event>
<event>
 7    1  0.5138511E-013  0.5052886E+02  0.7816164E-02  0.1300439E+00
        -11   -1    0    0    0    0  0.00000000000E+00  0.00000000000E+00  0.45593999997E+02  0.45594000000E+02  0.51100000000E-03 0. -1.
         11   -1    0    0    0    0 -0.00000000000E+00 -0.00000000000E+00 -0.45593999997E+02  0.45594000000E+02  0.51100000000E-03 0.  1.
    9900012    2    1    2    0    0 -0.24970671683E+02 -0.23195391962E+02  0.22172164817E+02  0.50528861479E+02  0.30000004953E+02 0.  0.
        -12    1    1    2    0    0  0.24970671683E+02  0.23195391962E+02 -0.22172164817E+02  0.40659138521E+02  0.00000000000E+00 0.  1.
         11    1    3    3    0    0 -0.55021118877E+01 -0.71200667389E+00  0.27356465589E+01  0.61857862139E+01  0.51100000000E-03 0. -1.
        -11    1    3    3    0    0 -0.14736265996E+02  0.20379632986E+01  0.76299652631E+01  0.16719066963E+02  0.51100000000E-03 0.  1.
        -12    1    3    3    0    0 -0.47322937991E+01 -0.24521348586E+02  0.11806552995E+02  0.27624008303E+02  0.00000000000E+00 0.  1.
</event>
<event>
 7    1  0.5138511E-013  0.5052886E+02  0.7816164E-02  0.1300439E+00
        -11   -1    0    0    0    0  0.00000000000E+00  0.00000000000E+00  0.45593999997E+02  0.45594000000E+02  0.51100000000E-03 0. -1.
         11   -1    0    0    0    0 -0.00000000000E+00 -0.00000000000E+00 -0.45593999997E+02  0.45594000000E+02  0.51100000000E-03 0.  1.
    9900012    2    1    2    0    0  0.27770630354E+02 -0.28853306133E+02  0.70316637752E+01  0.50528862275E+02  0.30000007372E+02 0.  0.
        -12    1    1    2    0    0 -0.27770630354E+02  0.28853306133E+02 -0.70316637752E+01  0.40659137725E+02  0.00000000000E+00 0.  1.
         11    1    3    3    0    0  0.16689970284E+02 -0.12000524267E+02 -0.14418653341E+01  0.20606956754E+02  0.51100000000E-03 0. -1.
        -11    1    3    3    0    0  0.70657205181E+01 -0.19502618242E+02  0.66897326300E+00  0.20753892411E+02  0.51100000000E-03 0.  1.
        -12    1    3    3    0    0  0.40149395515E+01  0.26498363758E+01  0.78045558463E+01  0.91680131096E+01  0.00000000000E+00 0.  1.
</event>
<event>
 7    1  0.5138511E-013  0.5052884E+02  0.7816164E-02  0.1300439E+00
        -11   -1    0    0    0    0  0.00000000000E+00  0.00000000000E+00  0.45593999997E+02  0.45594000000E+02  0.51100000000E-03 0. -1.
         11   -1    0    0    0    0 -0.00000000000E+00 -0.00000000000E+00 -0.45593999997E+02  0.45594000000E+02  0.51100000000E-03 0.  1.
    9900012    2    1    2    0    0  0.35836879188E+02  0.18199500608E+02 -0.61370756939E+01  0.50528838297E+02  0.29999934488E+02 0.  0.
        -12    1    1    2    0    0 -0.35836879188E+02 -0.18199500608E+02  0.61370756939E+01  0.40659161703E+02  0.00000000000E+00 0.  1.
         11    1    3    3    0    0  0.15743460240E+02  0.78772764264E+01  0.53001125907E+01  0.18384755042E+02  0.51100000000E-03 0. -1.
        -11    1    3    3    0    0  0.11232538241E+01 -0.24892339994E+01  0.37750635329E+01  0.46593014494E+01  0.51100000000E-03 0.  1.
        -12    1    3    3    0    0  0.18970165124E+02  0.12811458181E+02 -0.15212251818E+02  0.27484781806E+02  0.00000000000E+00 0.  1.
</event>
<event>
 7    1  0.5138511E-013  0.5052886E+02  0.7816164E-02  0.1300439E+00
        -11   -1    0    0    0    0  0.00000000000E+00  0.00000000000E+00  0.45593999997E+02  0.45594000000E+02  0.51100000000E-03 0.  1.
         11   -1    0    0    0    0 -0.00000000000E+00 -0.00000000000E+00 -0.45593999997E+02  0.45594000000E+02  0.51100000000E-03 0. -1.
    9900012    2    1    2    0    0  0.36914120356E+02 -0.16385268516E+02 -0.46942501089E+01  0.50528864618E+02  0.30000014491E+02 0.  0.
        -12    1    1    2    0    0 -0.36914120356E+02  0.16385268516E+02  0.46942501089E+01  0.40659135382E+02  0.00000000000E+00 0.  1.
         11    1    3    3    0    0  0.16649143590E+02 -0.10555124351E+01  0.78395581723E+01  0.18432763260E+02  0.51100000000E-03 0. -1.
        -11    1    3    3    0    0 -0.24432771699E+01 -0.21247174638E+01 -0.85848610431E+00  0.33497800349E+01  0.51100000000E-03 0.  1.
         12    1    3    3    0    0  0.22708253935E+02 -0.13205038617E+02 -0.11675322177E+02  0.28746321323E+02  0.00000000000E+00 0. -1.
</event>
<event>
 7    1  0.5138511E-013  0.5052892E+02  0.7816164E-02  0.1300439E+00
        -11   -1    0    0    0    0  0.00000000000E+00  0.00000000000E+00  0.45593999997E+02  0.45594000000E+02  0.51100000000E-03 0. -1.
         11   -1    0    0    0    0 -0.00000000000E+00 -0.00000000000E+00 -0.45593999997E+02  0.45594000000E+02  0.51100000000E-03 0.  1.
    9900012    2    1    2    0    0  0.25094154831E+01  0.43382016573E+01  0.40349023151E+02  0.50528919478E+02  0.30000181245E+02 0.  0.
        -12    1    1    2    0    0 -0.25094154831E+01 -0.43382016573E+01 -0.40349023151E+02  0.40659080522E+02  0.00000000000E+00 0.  1.
         11    1    3    3    0    0 -0.47608271894E+01 -0.67370766613E+01  0.53610767753E+01  0.98384359489E+01  0.51100000000E-03 0. -1.
        -11    1    3    3    0    0  0.76893326658E+00 -0.27404602467E+01  0.16353360676E+02  0.16599210414E+02  0.51100000000E-03 0.  1.
        -12    1    3    3    0    0  0.65013094060E+01  0.13815738565E+02  0.18634585700E+02  0.24091273115E+02  0.00000000000E+00 0.  1.
</event>
<event>
 7    1  0.5138511E-013  0.5052884E+02  0.7816164E-02  0.1300439E+00
        -11   -1    0    0    0    0  0.00000000000E+00  0.00000000000E+00  0.45593999997E+02  0.45594000000E+02  0.51100000000E-03 0.  1.
         11   -1    0    0    0    0 -0.00000000000E+00 -0.00000000000E+00 -0.45593999997E+02  0.45594000000E+02  0.51100000000E-03 0. -1.
    9900012    2    1    2    0    0  0.39978103659E+02 -0.45126734252E+01 -0.58782683919E+01  0.50528843185E+02  0.29999949345E+02 0.  0.
        -12    1    1    2    0    0 -0.39978103659E+02  0.45126734252E+01  0.58782683919E+01  0.40659156815E+02  0.00000000000E+00 0.  1.
         11    1    3    3    0    0  0.22956045360E+02 -0.58827991463E+01 -0.11010150445E+01  0.23723397285E+02  0.51100000000E-03 0. -1.
        -11    1    3    3    0    0 -0.14989253576E+00 -0.71499681537E+01 -0.20748703607E+01  0.74464487943E+01  0.51100000000E-03 0.  1.
         12    1    3    3    0    0  0.17171950835E+02  0.85200938747E+01 -0.27023829867E+01  0.19358997106E+02  0.00000000000E+00 0. -1.
</event>
<event>
 7    1  0.5138511E-013  0.5052886E+02  0.7816164E-02  0.1300439E+00
        -11   -1    0    0    0    0  0.00000000000E+00  0.00000000000E+00  0.45593999997E+02  0.45594000000E+02  0.51100000000E-03 0.  1.
         11   -1    0    0    0    0 -0.00000000000E+00 -0.00000000000E+00 -0.45593999997E+02  0.45594000000E+02  0.51100000000E-03 0. -1.
    9900012    2    1    2    0    0 -0.89039800526E+01 -0.76809121727E+01 -0.38921564731E+02  0.50528862359E+02  0.30000007627E+02 0.  0.
        -12    1    1    2    0    0  0.89039800526E+01  0.76809121727E+01  0.38921564731E+02  0.40659137641E+02  0.00000000000E+00 0.  1.
         11    1    3    3    0    0  0.62196817853E+01  0.24659057856E+01 -0.33466712823E+01  0.74809987158E+01  0.51100000000E-03 0. -1.
        -11    1    3    3    0    0  0.90129020279E+00  0.25164707458E+01 -0.98201448149E+01  0.10177435507E+02  0.51100000000E-03 0.  1.
         12    1    3    3    0    0 -0.16024952041E+02 -0.12663288704E+02 -0.25754748634E+02  0.32870428137E+02  0.00000000000E+00 0. -1.
</event>
<event>
 7    1  0.5138511E-013  0.5052887E+02  0.7816164E-02  0.1300439E+00
        -11   -1    0    0    0    0  0.00000000000E+00  0.00000000000E+00  0.45593999997E+02  0.45594000000E+02  0.51100000000E-03 0. -1.
         11   -1    0    0    0    0 -0.00000000000E+00 -0.00000000000E+00 -0.45593999997E+02  0.45594000000E+02  0.51100000000E-03 0.  1.
    9900012    2    1    2    0    0  0.27776122867E+02  0.23443372098E+02  0.18222514180E+02  0.50528871629E+02  0.30000035802E+02 0.  0.
        -12    1    1    2    0    0 -0.27776122867E+02 -0.23443372098E+02 -0.18222514180E+02  0.40659128371E+02  0.00000000000E+00 0.  1.
         11    1    3    3    0    0  0.23052271990E+02  0.19707998596E+02  0.53002765652E+01  0.30788072114E+02  0.51100000000E-03 0. -1.
        -11    1    3    3    0    0 -0.21629853747E+01  0.47239835078E+01  0.15149015731E+00  0.51978337259E+01  0.51100000000E-03 0.  1.
        -12    1    3    3    0    0  0.68868362514E+01 -0.98861000525E+00  0.12770747458E+02  0.14542965789E+02  0.00000000000E+00 0.  1.
</event>
<event>
 7    1  0.5138511E-013  0.5052885E+02  0.7816164E-02  0.1300439E+00
        -11   -1    0    0    0    0  0.00000000000E+00  0.00000000000E+00  0.45593999997E+02  0.45594000000E+02  0.51100000000E-03 0.  1.
         11   -1    0    0    0    0 -0.00000000000E+00 -0.00000000000E+00 -0.45593999997E+02  0.45594000000E+02  0.51100000000E-03 0. -1.
    9900012    2    1    2    0    0 -0.32012752060E+02  0.74785155987E+00 -0.25055749213E+02  0.50528854103E+02  0.29999982532E+02 0.  0.
        -12    1    1    2    0    0  0.32012752060E+02 -0.74785155987E+00  0.25055749213E+02  0.40659145897E+02  0.00000000000E+00 0.  1.
         11    1    3    3    0    0 -0.11971848340E+02 -0.19547010068E+00 -0.87951937837E+01  0.14856607795E+02  0.51100000000E-03 0.  1.
        -11    1    3    3    0    0 -0.15398873387E+02  0.47890071243E+01 -0.22047658176E+02  0.27315913350E+02  0.51100000000E-03 0. -1.
        -12    1    3    3    0    0 -0.46420303337E+01 -0.38456854638E+01  0.57871027469E+01  0.83563329582E+01  0.00000000000E+00 0.  1.
</event>
<event>
 7    1  0.5138511E-013  0.5052885E+02  0.7816164E-02  0.1300439E+00
        -11   -1    0    0    0    0  0.00000000000E+00  0.00000000000E+00  0.45593999997E+02  0.45594000000E+02  0.51100000000E-03 0. -1.
         11   -1    0    0    0    0 -0.00000000000E+00 -0.00000000000E+00 -0.45593999997E+02  0.45594000000E+02  0.51100000000E-03 0.  1.
    9900012    2    1    2    0    0 -0.35536720734E+02  0.11621168746E+02  0.15976736238E+02  0.50528853620E+02  0.29999981062E+02 0.  0.
        -12    1    1    2    0    0  0.35536720734E+02 -0.11621168746E+02 -0.15976736238E+02  0.40659146380E+02  0.00000000000E+00 0.  1.
         11    1    3    3    0    0 -0.29660608180E+02  0.18511573722E+01  0.42977496128E+01  0.30027472641E+02  0.51100000000E-03 0. -1.
        -11    1    3    3    0    0 -0.12216858090E+00  0.19203037019E+01 -0.25916028711E+01  0.32278316517E+01  0.51100000000E-03 0.  1.
         12    1    3    3    0    0 -0.57539439736E+01  0.78497076715E+01  0.14270589496E+02  0.17273549327E+02  0.00000000000E+00 0. -1.
</event>
<event>
 7    1  0.5138511E-013  0.5052885E+02  0.7816164E-02  0.1300439E+00
        -11   -1    0    0    0    0  0.00000000000E+00  0.00000000000E+00  0.45593999997E+02  0.45594000000E+02  0.51100000000E-03 0. -1.
         11   -1    0    0    0    0 -0.00000000000E+00 -0.00000000000E+00 -0.45593999997E+02  0.45594000000E+02  0.51100000000E-03 0.  1.
    9900012    2    1    2    0    0 -0.35759874790E+02 -0.79390054642E+01 -0.17645670687E+02  0.50528854082E+02  0.29999982468E+02 0.  0.
        -12    1    1    2    0    0  0.35759874790E+02  0.79390054642E+01  0.17645670687E+02  0.40659145918E+02  0.00000000000E+00 0.  1.
         11    1    3    3    0    0 -0.41969799233E+01 -0.42744827670E-03  0.31166367466E+01  0.52276252286E+01  0.51100000000E-03 0. -1.
        -11    1    3    3    0    0 -0.72602766863E+01  0.22306567643E+01  0.44779248173E+01  0.88169869055E+01  0.51100000000E-03 0.  1.
         12    1    3    3    0    0 -0.24302618180E+02 -0.10169234780E+02 -0.25240232251E+02  0.36484241948E+02  0.00000000000E+00 0. -1.
</event>
<event>
 7    1  0.5138511E-013  0.5052888E+02  0.7816164E-02  0.1300439E+00
        -11   -1    0    0    0    0  0.00000000000E+00  0.00000000000E+00  0.45593999997E+02  0.45594000000E+02  0.51100000000E-03 0. -1.
         11   -1    0    0    0    0 -0.00000000000E+00 -0.00000000000E+00 -0.45593999997E+02  0.45594000000E+02  0.51100000000E-03 0.  1.
    9900012    2    1    2    0    0  0.32583368371E+02 -0.82624137490E+01  0.22874012254E+02  0.50528882795E+02  0.30000069743E+02 0.  0.
        -12    1    1    2    0    0 -0.32583368371E+02  0.82624137490E+01 -0.22874012254E+02  0.40659117205E+02  0.00000000000E+00 0.  1.
         11    1    3    3    0    0  0.82792313635E+01  0.12219209333E+01  0.96703680203E+01  0.12788853766E+02  0.51100000000E-03 0.  1.
        -11    1    3    3    0    0  0.13448917410E+02 -0.15467680711E+02  0.14745066023E+02  0.25249544517E+02  0.51100000000E-03 0. -1.
        -12    1    3    3    0    0  0.10855219597E+02  0.59833460283E+01 -0.15414217893E+01  0.12490484511E+02  0.00000000000E+00 0.  1.
</event>
<event>
 7    1  0.5138511E-013  0.5052886E+02  0.7816164E-02  0.1300439E+00
        -11   -1    0    0    0    0  0.00000000000E+00  0.00000000000E+00  0.45593999997E+02  0.45594000000E+02  0.51100000000E-03 0. -1.
         11   -1    0    0    0    0 -0.00000000000E+00 -0.00000000000E+00 -0.45593999997E+02  0.45594000000E+02  0.51100000000E-03 0.  1.
    9900012    2    1    2    0    0 -0.98809300084E+01  0.37217184595E+02  0.13054272568E+02  0.50528860323E+02  0.30000001438E+02 0.  0.
        -12    1    1    2    0    0  0.98809300084E+01 -0.37217184595E+02 -0.13054272568E+02  0.40659139677E+02  0.00000000000E+00 0.  1.
         11    1    3    3    0    0 -0.44080420485E+01  0.23176707203E+01  0.84718957771E+01  0.98272809357E+01  0.51100000000E-03 0. -1.
        -11    1    3    3    0    0  0.61600237293E+01  0.80138577036E+01  0.52698656822E+01  0.11399091727E+02  0.51100000000E-03 0.  1.
         12    1    3    3    0    0 -0.11632911689E+02  0.26885656171E+02 -0.68748889094E+00  0.29302487660E+02  0.00000000000E+00 0. -1.
</event>
<event>
 7    1  0.5138511E-013  0.5052888E+02  0.7816164E-02  0.1300439E+00
        -11   -1    0    0    0    0  0.00000000000E+00  0.00000000000E+00  0.45593999997E+02  0.45594000000E+02  0.51100000000E-03 0.  1.
         11   -1    0    0    0    0 -0.00000000000E+00 -0.00000000000E+00 -0.45593999997E+02  0.45594000000E+02  0.51100000000E-03 0. -1.
    9900012    2    1    2    0    0  0.25527482737E+02 -0.30043133439E+02 -0.99459637630E+01  0.50528875109E+02  0.30000046381E+02 0.  0.
        -12    1    1    2    0    0 -0.25527482737E+02  0.30043133439E+02  0.99459637630E+01  0.40659124891E+02  0.00000000000E+00 0.  1.
         11    1    3    3    0    0  0.16529896814E+02 -0.18272142089E+02  0.19081876762E+01  0.24713353590E+02  0.51100000000E-03 0. -1.
        -11    1    3    3    0    0  0.63508875059E+01  0.34297156422E+01 -0.19346360534E+01  0.74725857920E+01  0.51100000000E-03 0.  1.
        -12    1    3    3    0    0  0.26466984167E+01 -0.15200706992E+02 -0.99195153859E+01  0.18342935727E+02  0.00000000000E+00 0.  1.
</event>
<event>
 7    1  0.5138511E-013  0.5052889E+02  0.7816164E-02  0.1300439E+00
        -11   -1    0    0    0    0  0.00000000000E+00  0.00000000000E+00  0.45593999997E+02  0.45594000000E+02  0.51100000000E-03 0. -1.
         11   -1    0    0    0    0 -0.00000000000E+00 -0.00000000000E+00 -0.45593999997E+02  0.45594000000E+02  0.51100000000E-03 0.  1.
    9900012    2    1    2    0    0  0.20338654096E+02 -0.25955637539E+02  0.23786710214E+02  0.50528885975E+02  0.30000079409E+02 0.  0.
        -12    1    1    2    0    0 -0.20338654096E+02  0.25955637539E+02 -0.23786710214E+02  0.40659114025E+02  0.00000000000E+00 0.  1.
         11    1    3    3    0    0  0.43046943591E+01 -0.17710233284E+01 -0.72829117506E+00  0.47114037666E+01  0.51100000000E-03 0. -1.
        -11    1    3    3    0    0 -0.27202895236E+01  0.89057894879E+00  0.11596542348E+02  0.11944576202E+02  0.51100000000E-03 0.  1.
         12    1    3    3    0    0  0.18754249260E+02 -0.25075193159E+02  0.12918459041E+02  0.33872906006E+02  0.00000000000E+00 0. -1.
</event>
<event>
 7    1  0.5138511E-013  0.5052886E+02  0.7816164E-02  0.1300439E+00
        -11   -1    0    0    0    0  0.00000000000E+00  0.00000000000E+00  0.45593999997E+02  0.45594000000E+02  0.51100000000E-03 0. -1.
         11   -1    0    0    0    0 -0.00000000000E+00 -0.00000000000E+00 -0.45593999997E+02  0.45594000000E+02  0.51100000000E-03 0.  1.
    9900012    2    1    2    0    0 -0.17286484022E+01 -0.19174447592E+02  0.35812260321E+02  0.50528860129E+02  0.30000000849E+02 0.  0.
        -12    1    1    2    0    0  0.17286484022E+01  0.19174447592E+02 -0.35812260321E+02  0.40659139871E+02  0.00000000000E+00 0.  1.
         11    1    3    3    0    0 -0.91715504128E+01 -0.31010193066E+01  0.74171800838E+01  0.12196237878E+02  0.51100000000E-03 0. -1.
        -11    1    3    3    0    0  0.45400207658E+01 -0.20185887855E+02  0.23516884544E+02  0.31322926363E+02  0.51100000000E-03 0.  1.
         12    1    3    3    0    0  0.29028812448E+01  0.41124595695E+01  0.48781956925E+01  0.70096958883E+01  0.00000000000E+00 0. -1.
</event>
<event>
 7    1  0.5138511E-013  0.5052887E+02  0.7816164E-02  0.1300439E+00
        -11   -1    0    0    0    0  0.00000000000E+00  0.00000000000E+00  0.45593999997E+02  0.45594000000E+02  0.51100000000E-03 0. -1.
         11   -1    0    0    0    0 -0.00000000000E+00 -0.00000000000E+00 -0.45593999997E+02  0.45594000000E+02  0.51100000000E-03 0.  1.
    9900012    2    1    2    0    0  0.29016478728E+02 -0.12440310978E+02  0.25621230452E+02  0.50528870338E+02  0.30000031878E+02 0.  0.
        -12    1    1    2    0    0 -0.29016478728E+02  0.12440310978E+02 -0.25621230452E+02  0.40659129662E+02  0.00000000000E+00 0.  1.
         11    1    3    3    0    0  0.71575274727E+01  0.57529938950E+01  0.68803808958E+01  0.11474614582E+02  0.51100000000E-03 0. -1.
        -11    1    3    3    0    0  0.75885593557E+01 -0.62498603625E+01  0.17905324636E+02  0.20426640405E+02  0.51100000000E-03 0.  1.
         12    1    3    3    0    0  0.14270391900E+02 -0.11943444511E+02  0.83552492017E+00  0.18627615351E+02  0.00000000000E+00 0. -1.
</event>
<event>
 7    1  0.5138511E-013  0.5052879E+02  0.7816164E-02  0.1300439E+00
        -11   -1    0    0    0    0  0.00000000000E+00  0.00000000000E+00  0.45593999997E+02  0.45594000000E+02  0.51100000000E-03 0.  1.
         11   -1    0    0    0    0 -0.00000000000E+00 -0.00000000000E+00 -0.45593999997E+02  0.45594000000E+02  0.51100000000E-03 0. -1.
    9900012    2    1    2    0    0 -0.20802689685E+01  0.23154751710E+02 -0.33357175874E+02  0.50528791596E+02  0.29999792535E+02 0.  0.
        -12    1    1    2    0    0  0.20802689685E+01 -0.23154751710E+02  0.33357175874E+02  0.40659208404E+02  0.00000000000E+00 0.  1.
         11    1    3    3    0    0  0.11874069612E+02  0.20958815579E+01 -0.10029777745E+02  0.15683835326E+02  0.51100000000E-03 0.  1.
        -11    1    3    3    0    0 -0.35321699074E+01  0.22929744608E+01 -0.55919133411E+01  0.70002465105E+01  0.51100000000E-03 0. -1.
        -12    1    3    3    0    0 -0.10422168673E+02  0.18765895691E+02 -0.17735484788E+02  0.27844709760E+02  0.00000000000E+00 0.  1.
</event>
<event>
 7    1  0.5138511E-013  0.5052887E+02  0.7816164E-02  0.1300439E+00
        -11   -1    0    0    0    0  0.00000000000E+00  0.00000000000E+00  0.45593999997E+02  0.45594000000E+02  0.51100000000E-03 0.  1.
         11   -1    0    0    0    0 -0.00000000000E+00 -0.00000000000E+00 -0.45593999997E+02  0.45594000000E+02  0.51100000000E-03 0. -1.
    9900012    2    1    2    0    0 -0.12768418324E+00  0.31186581005E+01 -0.40539150379E+02  0.50528867630E+02  0.30000023650E+02 0.  0.
        -12    1    1    2    0    0  0.12768418324E+00 -0.31186581005E+01  0.40539150379E+02  0.40659132370E+02  0.00000000000E+00 0.  1.
         11    1    3    3    0    0 -0.16662061338E+01  0.12106530158E+02 -0.24312413713E+02  0.27210986313E+02  0.51100000000E-03 0. -1.
        -11    1    3    3    0    0  0.31902463330E+01  0.11498246616E+01  0.75248129444E+00  0.34736143679E+01  0.51100000000E-03 0.  1.
         12    1    3    3    0    0 -0.16517243824E+01 -0.10137696719E+02 -0.16979217961E+02  0.19844266949E+02  0.00000000000E+00 0. -1.
</event>
<event>
 7    1  0.5138511E-013  0.5052883E+02  0.7816164E-02  0.1300439E+00
        -11   -1    0    0    0    0  0.00000000000E+00  0.00000000000E+00  0.45593999997E+02  0.45594000000E+02  0.51100000000E-03 0. -1.
         11   -1    0    0    0    0 -0.00000000000E+00 -0.00000000000E+00 -0.45593999997E+02  0.45594000000E+02  0.51100000000E-03 0.  1.
    9900012    2    1    2    0    0 -0.40228863463E+02  0.43357287162E+01 -0.40009806013E+01  0.50528833201E+02  0.29999918997E+02 0.  0.
        -12    1    1    2    0    0  0.40228863463E+02 -0.43357287162E+01  0.40009806013E+01  0.40659166799E+02  0.00000000000E+00 0.  1.
         11    1    3    3    0    0 -0.30873338506E+02 -0.59197686895E+01 -0.79829187098E+01  0.32433527148E+02  0.51100000000E-03 0. -1.
        -11    1    3    3    0    0 -0.98754174854E+01  0.10090660655E+02  0.43249848815E-01  0.14119035866E+02  0.51100000000E-03 0.  1.
        -12    1    3    3    0    0  0.51989252822E+00  0.16483675042E+00  0.39386882596E+01  0.39762701872E+01  0.00000000000E+00 0.  1.
</event>
<event>
 7    1  0.5138511E-013  0.5052887E+02  0.7816164E-02  0.1300439E+00
        -11   -1    0    0    0    0  0.00000000000E+00  0.00000000000E+00  0.45593999997E+02  0.45594000000E+02  0.51100000000E-03 0. -1.
         11   -1    0    0    0    0 -0.00000000000E+00 -0.00000000000E+00 -0.45593999997E+02  0.45594000000E+02  0.51100000000E-03 0.  1.
    9900012    2    1    2    0    0  0.27975373097E+02  0.18561993692E+02  0.22934602443E+02  0.50528866967E+02  0.30000021633E+02 0.  0.
        -12    1    1    2    0    0 -0.27975373097E+02 -0.18561993692E+02 -0.22934602443E+02  0.40659133033E+02  0.00000000000E+00 0.  1.
         11    1    3    3    0    0 -0.21799712388E+01 -0.11562602594E+01  0.27528284483E+01  0.36969280648E+01  0.51100000000E-03 0.  1.
        -11    1    3    3    0    0  0.20819100279E+02  0.11230110922E+02  0.75480686234E+00  0.23666855757E+02  0.51100000000E-03 0. -1.
        -12    1    3    3    0    0  0.93362440574E+01  0.84881430289E+01  0.19426967132E+02  0.23165083146E+02  0.00000000000E+00 0.  1.
</event>
<event>
 7    1  0.5138511E-013  0.5052892E+02  0.7816164E-02  0.1300439E+00
        -11   -1    0    0    0    0  0.00000000000E+00  0.00000000000E+00  0.45593999997E+02  0.45594000000E+02  0.51100000000E-03 0.  1.
         11   -1    0    0    0    0 -0.00000000000E+00 -0.00000000000E+00 -0.45593999997E+02  0.45594000000E+02  0.51100000000E-03 0. -1.
    9900012    2    1    2    0    0 -0.24736068521E+02 -0.81521345906E+01 -0.31222274264E+02  0.50528919901E+02  0.30000182531E+02 0.  0.
        -12    1    1    2    0    0  0.24736068521E+02  0.81521345906E+01  0.31222274264E+02  0.40659080099E+02  0.00000000000E+00 0.  1.
         11    1    3    3    0    0 -0.61377866133E+01  0.99919159594E+01 -0.87232809835E+01  0.14615281059E+02  0.51100000000E-03 0. -1.
        -11    1    3    3    0    0 -0.17134660212E+01 -0.81667689819E+01 -0.75567200783E+01  0.11257712912E+02  0.51100000000E-03 0.  1.
        -12    1    3    3    0    0 -0.16884815887E+02 -0.99772815682E+01 -0.14942273202E+02  0.24655925930E+02  0.00000000000E+00 0.  1.
</event>
<event>
 7    1  0.5138511E-013  0.5052886E+02  0.7816164E-02  0.1300439E+00
        -11   -1    0    0    0    0  0.00000000000E+00  0.00000000000E+00  0.45593999997E+02  0.45594000000E+02  0.51100000000E-03 0. -1.
         11   -1    0    0    0    0 -0.00000000000E+00 -0.00000000000E+00 -0.45593999997E+02  0.45594000000E+02  0.51100000000E-03 0.  1.
    9900012    2    1    2    0    0 -0.45525245144E+01 -0.16848587474E+02  0.36722818004E+02  0.50528859066E+02  0.29999997618E+02 0.  0.
        -12    1    1    2    0    0  0.45525245144E+01  0.16848587474E+02 -0.36722818004E+02  0.40659140934E+02  0.00000000000E+00 0.  1.
         11    1    3    3    0    0  0.19242625302E+01 -0.11971552647E+02  0.17427442266E+02  0.21230558242E+02  0.51100000000E-03 0. -1.
        -11    1    3    3    0    0  0.49763612709E+01  0.38403671458E+01  0.15962081446E+01  0.64854045375E+01  0.51100000000E-03 0.  1.
         12    1    3    3    0    0 -0.11453148316E+02 -0.87174019728E+01  0.17699167594E+02  0.22812896287E+02  0.00000000000E+00 0. -1.
</event>
<event>
 7    1  0.5138511E-013  0.5052886E+02  0.7816164E-02  0.1300439E+00
        -11   -1    0    0    0    0  0.00000000000E+00  0.00000000000E+00  0.45593999997E+02  0.45594000000E+02  0.51100000000E-03 0.  1.
         11   -1    0    0    0    0 -0.00000000000E+00 -0.00000000000E+00 -0.45593999997E+02  0.45594000000E+02  0.51100000000E-03 0. -1.
    9900012    2    1    2    0    0 -0.22476862978E+02  0.31577664737E+02  0.12280369518E+02  0.50528858899E+02  0.29999997110E+02 0.  0.
        -12    1    1    2    0    0  0.22476862978E+02 -0.31577664737E+02 -0.12280369518E+02  0.40659141101E+02  0.00000000000E+00 0.  1.
         11    1    3    3    0    0 -0.36882376903E+01 -0.32290699767E+01  0.24779536403E+01  0.54927447310E+01  0.51100000000E-03 0. -1.
        -11    1    3    3    0    0 -0.98965945756E-01  0.79338554469E+01 -0.47133236829E+01  0.92288285775E+01  0.51100000000E-03 0.  1.
         12    1    3    3    0    0 -0.18689659342E+02  0.26872879266E+02  0.14515739561E+02  0.35807285591E+02  0.00000000000E+00 0. -1.
</event>
<event>
 7    1  0.5138511E-013  0.5052884E+02  0.7816164E-02  0.1300439E+00
        -11   -1    0    0    0    0  0.00000000000E+00  0.00000000000E+00  0.45593999997E+02  0.45594000000E+02  0.51100000000E-03 0.  1.
         11   -1    0    0    0    0 -0.00000000000E+00 -0.00000000000E+00 -0.45593999997E+02  0.45594000000E+02  0.51100000000E-03 0. -1.
    9900012    2    1    2    0    0 -0.16913808554E+02  0.32244527952E+02 -0.18093656225E+02  0.50528844841E+02  0.29999954379E+02 0.  0.
        -12    1    1    2    0    0  0.16913808554E+02 -0.32244527952E+02  0.18093656225E+02  0.40659155159E+02  0.00000000000E+00 0.  1.
         11    1    3    3    0    0 -0.28097252895E+01  0.18974994481E+00 -0.13527228848E+01  0.31241672024E+01  0.51100000000E-03 0. -1.
        -11    1    3    3    0    0 -0.12317392077E+02  0.98371295119E+00 -0.91341856311E+01  0.15366170185E+02  0.51100000000E-03 0.  1.
         12    1    3    3    0    0 -0.17866911867E+01  0.31071065056E+02 -0.76067477092E+01  0.32038507453E+02  0.00000000000E+00 0. -1.
</event>
<event>
 7    1  0.5138511E-013  0.5052886E+02  0.7816164E-02  0.1300439E+00
        -11   -1    0    0    0    0  0.00000000000E+00  0.00000000000E+00  0.45593999997E+02  0.45594000000E+02  0.51100000000E-03 0. -1.
         11   -1    0    0    0    0 -0.00000000000E+00 -0.00000000000E+00 -0.45593999997E+02  0.45594000000E+02  0.51100000000E-03 0.  1.
    9900012    2    1    2    0    0  0.22925724721E+02 -0.32401081629E+02 -0.88174134354E+01  0.50528859276E+02  0.29999998256E+02 0.  0.
        -12    1    1    2    0    0 -0.22925724721E+02  0.32401081629E+02  0.88174134354E+01  0.40659140724E+02  0.00000000000E+00 0.  1.
         11    1    3    3    0    0  0.33065081506E+01 -0.33972363868E+01  0.60785967199E+01  0.77086671716E+01  0.51100000000E-03 0.  1.
        -11    1    3    3    0    0  0.79022879651E+01 -0.24275452748E+02 -0.16013303279E+02  0.30135853121E+02  0.51100000000E-03 0. -1.
         12    1    3    3    0    0  0.11716928605E+02 -0.47283924946E+01  0.11172931233E+01  0.12684338983E+02  0.00000000000E+00 0. -1.
</event>
<event>
 7    1  0.5138511E-013  0.5052887E+02  0.7816164E-02  0.1300439E+00
        -11   -1    0    0    0    0  0.00000000000E+00  0.00000000000E+00  0.45593999997E+02  0.45594000000E+02  0.51100000000E-03 0.  1.
         11   -1    0    0    0    0 -0.00000000000E+00 -0.00000000000E+00 -0.45593999997E+02  0.45594000000E+02  0.51100000000E-03 0. -1.
    9900012    2    1    2    0    0 -0.28828858454E+02 -0.20659199668E+02 -0.19881137453E+02  0.50528865268E+02  0.30000016469E+02 0.  0.
        -12    1    1    2    0    0  0.28828858454E+02  0.20659199668E+02  0.19881137453E+02  0.40659134732E+02  0.00000000000E+00 0.  1.
         11    1    3    3    0    0 -0.35973492668E+01 -0.10456750615E+02 -0.13442873139E+01  0.11139643792E+02  0.51100000000E-03 0. -1.
        -11    1    3    3    0    0 -0.20321099597E+02 -0.16796691819E+02 -0.15736876029E+02  0.30703830581E+02  0.51100000000E-03 0.  1.
        -12    1    3    3    0    0 -0.49104095902E+01  0.65942427651E+01 -0.27999741100E+01  0.86853908954E+01  0.00000000000E+00 0.  1.
</event>
<event>
 7    1  0.5138511E-013  0.5052883E+02  0.7816164E-02  0.1300439E+00
        -11   -1    0    0    0    0  0.00000000000E+00  0.00000000000E+00  0.45593999997E+02  0.45594000000E+02  0.51100000000E-03 0.  1.
         11   -1    0    0    0    0 -0.00000000000E+00 -0.00000000000E+00 -0.45593999997E+02  0.45594000000E+02  0.51100000000E-03 0. -1.
    9900012    2    1    2    0    0 -0.22208539994E+02  0.34014063309E+02 -0.17298991821E+01  0.50528827571E+02  0.29999901883E+02 0.  0.
        -12    1    1    2    0    0  0.22208539994E+02 -0.34014063309E+02  0.17298991821E+01  0.40659172429E+02  0.00000000000E+00 0.  1.
         11    1    3    3    0    0 -0.22641653801E+01 -0.19300742401E+01 -0.54452975893E+00  0.30245899491E+01  0.51100000000E-03 0. -1.
        -11    1    3    3    0    0 -0.70741245521E+01  0.16435407082E+02 -0.12210697087E+02  0.21662570663E+02  0.51100000000E-03 0.  1.
         12    1    3    3    0    0 -0.12870250061E+02  0.19508730468E+02  0.11025327663E+02  0.25841666958E+02  0.00000000000E+00 0. -1.
</event>
<event>
 7    1  0.5138511E-013  0.5052886E+02  0.7816164E-02  0.1300439E+00
        -11   -1    0    0    0    0  0.00000000000E+00  0.00000000000E+00  0.45593999997E+02  0.45594000000E+02  0.51100000000E-03 0. -1.
         11   -1    0    0    0    0 -0.00000000000E+00 -0.00000000000E+00 -0.45593999997E+02  0.45594000000E+02  0.51100000000E-03 0.  1.
    9900012    2    1    2    0    0 -0.14058773295E+02 -0.37432968621E+02 -0.73681466947E+01  0.50528857952E+02  0.29999994231E+02 0.  0.
        -12    1    1    2    0    0  0.14058773295E+02  0.37432968621E+02  0.73681466947E+01  0.40659142048E+02  0.00000000000E+00 0.  1.
         11    1    3    3    0    0 -0.21412743434E+01  0.14147877025E+01  0.25407123614E+01  0.36113570332E+01  0.51100000000E-03 0. -1.
        -11    1    3    3    0    0 -0.16544505469E+01 -0.36644600704E+01 -0.94447665170E+01  0.10264944668E+02  0.51100000000E-03 0.  1.
         12    1    3    3    0    0 -0.10263048405E+02 -0.35183296253E+02 -0.46409253915E+00  0.36652556251E+02  0.00000000000E+00 0. -1.
</event>
<event>
 7    1  0.5138511E-013  0.5052885E+02  0.7816164E-02  0.1300439E+00
        -11   -1    0    0    0    0  0.00000000000E+00  0.00000000000E+00  0.45593999997E+02  0.45594000000E+02  0.51100000000E-03 0. -1.
         11   -1    0    0    0    0 -0.00000000000E+00 -0.00000000000E+00 -0.45593999997E+02  0.45594000000E+02  0.51100000000E-03 0.  1.
    9900012    2    1    2    0    0 -0.34461782783E+02  0.19896902573E+02  0.83465775968E+01  0.50528848974E+02  0.29999966941E+02 0.  0.
        -12    1    1    2    0    0  0.34461782783E+02 -0.19896902573E+02 -0.83465775968E+01  0.40659151026E+02  0.00000000000E+00 0.  1.
         11    1    3    3    0    0 -0.12741209881E+02  0.33700562131E+01  0.35434501710E+01  0.13647408087E+02  0.51100000000E-03 0. -1.
        -11    1    3    3    0    0 -0.68795145991E+01 -0.40559823988E+01 -0.52825740281E+01  0.95751920587E+01  0.51100000000E-03 0.  1.
        -12    1    3    3    0    0 -0.14841058304E+02  0.20582828758E+02  0.10085701454E+02  0.27306248829E+02  0.00000000000E+00 0.  1.
</event>
<event>
 7    1  0.5138511E-013  0.5052886E+02  0.7816164E-02  0.1300439E+00
        -11   -1    0    0    0    0  0.00000000000E+00  0.00000000000E+00  0.45593999997E+02  0.45594000000E+02  0.51100000000E-03 0.  1.
         11   -1    0    0    0    0 -0.00000000000E+00 -0.00000000000E+00 -0.45593999997E+02  0.45594000000E+02  0.51100000000E-03 0. -1.
    9900012    2    1    2    0    0  0.14338827379E+02 -0.10802614755E+02 -0.36481058290E+02  0.50528855025E+02  0.29999985333E+02 0.  0.
        -12    1    1    2    0    0 -0.14338827379E+02  0.10802614755E+02  0.36481058290E+02  0.40659144975E+02  0.00000000000E+00 0.  1.
         11    1    3    3    0    0  0.11477657452E+02 -0.76814683431E+01 -0.63379513272E+01  0.15195762691E+02  0.51100000000E-03 0. -1.
        -11    1    3    3    0    0 -0.38588873850E+01  0.46107694232E+01 -0.39133706929E+01  0.71738885526E+01  0.51100000000E-03 0.  1.
         12    1    3    3    0    0  0.67200573118E+01 -0.77319158351E+01 -0.26229736270E+02  0.28159203781E+02  0.00000000000E+00 0. -1.
</event>
<event>
 7    1  0.5138511E-013  0.5052886E+02  0.7816164E-02  0.1300439E+00
        -11   -1    0    0    0    0  0.00000000000E+00  0.00000000000E+00  0.45593999997E+02  0.45594000000E+02  0.51100000000E-03 0. -1.
         11   -1    0    0    0    0 -0.00000000000E+00 -0.00000000000E+00 -0.45593999997E+02  0.45594000000E+02  0.51100000000E-03 0.  1.
    9900012    2    1    2    0    0 -0.39622913274E+02 -0.30830349390E+01  0.85840085808E+01  0.50528861248E+02  0.30000004249E+02 0.  0.
        -12    1    1    2    0    0  0.39622913274E+02  0.30830349390E+01 -0.85840085808E+01  0.40659138752E+02  0.00000000000E+00 0.  1.
         11    1    3    3    0    0 -0.16437294222E+02  0.48474614586E+01 -0.63697537474E+01  0.18282677238E+02  0.51100000000E-03 0. -1.
        -11    1    3    3    0    0  0.10025102539E+01  0.20277992661E+01  0.21580623117E+01  0.31263764769E+01  0.51100000000E-03 0.  1.
         12    1    3    3    0    0 -0.24188129306E+02 -0.99582956637E+01  0.12795700017E+02  0.29119807533E+02  0.00000000000E+00 0. -1.
</event>
<event>
 7    1  0.5138511E-013  0.5052888E+02  0.7816164E-02  0.1300439E+00
        -11   -1    0    0    0    0  0.00000000000E+00  0.00000000000E+00  0.45593999997E+02  0.45594000000E+02  0.51100000000E-03 0.  1.
         11   -1    0    0    0    0 -0.00000000000E+00 -0.00000000000E+00 -0.45593999997E+02  0.45594000000E+02  0.51100000000E-03 0. -1.
    9900012    2    1    2    0    0 -0.20977866557E+02 -0.25373227849E+02 -0.23859853334E+02  0.50528878294E+02  0.30000056063E+02 0.  0.
        -12    1    1    2    0    0  0.20977866557E+02  0.25373227849E+02  0.23859853334E+02  0.40659121706E+02  0.00000000000E+00 0.  1.
         11    1    3    3    0    0 -0.20656196634E+01  0.13647810594E+01 -0.30533938721E+01  0.39309828712E+01  0.51100000000E-03 0. -1.
        -11    1    3    3    0    0 -0.40757171257E+01 -0.66428615112E+01  0.60905709639E+01  0.98911138944E+01  0.51100000000E-03 0.  1.
         12    1    3    3    0    0 -0.14836529768E+02 -0.20095147397E+02 -0.26897030426E+02  0.36706781529E+02  0.00000000000E+00 0. -1.
</event>
<event>
 7    1  0.5138511E-013  0.5052881E+02  0.7816164E-02  0.1300439E+00
        -11   -1    0    0    0    0  0.00000000000E+00  0.00000000000E+00  0.45593999997E+02  0.45594000000E+02  0.51100000000E-03 0.  1.
         11   -1    0    0    0    0 -0.00000000000E+00 -0.00000000000E+00 -0.45593999997E+02  0.45594000000E+02  0.51100000000E-03 0. -1.
    9900012    2    1    2    0    0  0.55385002855E+01 -0.29432896257E+02 -0.27499085407E+02  0.50528805889E+02  0.29999835981E+02 0.  0.
        -12    1    1    2    0    0 -0.55385002855E+01  0.29432896257E+02  0.27499085407E+02  0.40659194111E+02  0.00000000000E+00 0.  1.
         11    1    3    3    0    0  0.72234759499E+01 -0.90684212642E+01 -0.20338547524E+01  0.11770787333E+02  0.51100000000E-03 0. -1.
        -11    1    3    3    0    0 -0.88435760581E+00 -0.24741922391E+02 -0.21951932000E+02  0.33088247624E+02  0.51100000000E-03 0.  1.
        -12    1    3    3    0    0 -0.80061805860E+00  0.43774473982E+01 -0.35132986540E+01  0.56697709329E+01  0.00000000000E+00 0.  1.
</event>
<event>
 7    1  0.5138511E-013  0.5052886E+02  0.7816164E-02  0.1300439E+00
        -11   -1    0    0    0    0  0.00000000000E+00  0.00000000000E+00  0.45593999997E+02  0.45594000000E+02  0.51100000000E-03 0.  1.
         11   -1    0    0    0    0 -0.00000000000E+00 -0.00000000000E+00 -0.45593999997E+02  0.45594000000E+02  0.51100000000E-03 0. -1.
    9900012    2    1    2    0    0 -0.11319217469E+02  0.25662498601E+01 -0.38967360413E+02  0.50528862036E+02  0.30000006644E+02 0.  0.
        -12    1    1    2    0    0  0.11319217469E+02 -0.25662498601E+01  0.38967360413E+02  0.40659137964E+02  0.00000000000E+00 0.  1.
         11    1    3    3    0    0 -0.13286129447E+02 -0.38177281775E+01 -0.37563490796E+02  0.40026392858E+02  0.51100000000E-03 0. -1.
        -11    1    3    3    0    0 -0.34408250644E+00  0.34572088256E+01 -0.44792869927E+01  0.56687474683E+01  0.51100000000E-03 0.  1.
        -12    1    3    3    0    0  0.23109944845E+01  0.29267692120E+01  0.30754173764E+01  0.48337217097E+01  0.00000000000E+00 0.  1.
</event>
<event>
 7    1  0.5138511E-013  0.5052889E+02  0.7816164E-02  0.1300439E+00
        -11   -1    0    0    0    0  0.00000000000E+00  0.00000000000E+00  0.45593999997E+02  0.45594000000E+02  0.51100000000E-03 0.  1.
         11   -1    0    0    0    0 -0.00000000000E+00 -0.00000000000E+00 -0.45593999997E+02  0.45594000000E+02  0.51100000000E-03 0. -1.
    9900012    2    1    2    0    0 -0.31494641231E+02 -0.30753686927E+01 -0.25530234459E+02  0.50528890438E+02  0.30000092976E+02 0.  0.
        -12    1    1    2    0    0  0.31494641231E+02  0.30753686927E+01  0.25530234459E+02  0.40659109562E+02  0.00000000000E+00 0.  1.
         11    1    3    3    0    0 -0.20287729948E+01  0.55489254282E+00 -0.17526609177E+02  0.17652361177E+02  0.51100000000E-03 0. -1.
        -11    1    3    3    0    0 -0.18549301661E+02 -0.26403067326E+01 -0.10716410767E+02  0.21584468299E+02  0.51100000000E-03 0.  1.
        -12    1    3    3    0    0 -0.10916566574E+02 -0.98995450295E+00  0.27127854854E+01  0.11292060962E+02  0.00000000000E+00 0.  1.
</event>
<event>
 7    1  0.5138511E-013  0.5052886E+02  0.7816164E-02  0.1300439E+00
        -11   -1    0    0    0    0  0.00000000000E+00  0.00000000000E+00  0.45593999997E+02  0.45594000000E+02  0.51100000000E-03 0.  1.
         11   -1    0    0    0    0 -0.00000000000E+00 -0.00000000000E+00 -0.45593999997E+02  0.45594000000E+02  0.51100000000E-03 0. -1.
    9900012    2    1    2    0    0  0.37286860065E+01  0.20603341018E+02 -0.34853482030E+02  0.50528856255E+02  0.29999989073E+02 0.  0.
        -12    1    1    2    0    0 -0.37286860065E+01 -0.20603341018E+02  0.34853482030E+02  0.40659143745E+02  0.00000000000E+00 0.  1.
         11    1    3    3    0    0  0.68675298348E+01  0.54589433264E+01 -0.73288348307E+00  0.88034167648E+01  0.51100000000E-03 0.  1.
        -11    1    3    3    0    0  0.72516904926E+01  0.10080492606E+02 -0.18871051096E+02  0.22590261529E+02  0.51100000000E-03 0. -1.
        -12    1    3    3    0    0 -0.10390534321E+02  0.50639050855E+01 -0.15249547451E+02  0.19135177962E+02  0.00000000000E+00 0.  1.
</event>
<event>
 7    1  0.5138511E-013  0.5052886E+02  0.7816164E-02  0.1300439E+00
        -11   -1    0    0    0    0  0.00000000000E+00  0.00000000000E+00  0.45593999997E+02  0.45594000000E+02  0.51100000000E-03 0.  1.
         11   -1    0    0    0    0 -0.00000000000E+00 -0.00000000000E+00 -0.45593999997E+02  0.45594000000E+02  0.51100000000E-03 0. -1.
    9900012    2    1    2    0    0 -0.22045594314E+01 -0.40597484863E+02 -0.38731515738E+00  0.50528857454E+02  0.29999992718E+02 0.  0.
        -12    1    1    2    0    0  0.22045594314E+01  0.40597484863E+02  0.38731515738E+00  0.40659142546E+02  0.00000000000E+00 0.  1.
         11    1    3    3    0    0  0.10415380283E+02 -0.62358590079E+01 -0.13630382938E+01  0.12215725834E+02  0.51100000000E-03 0. -1.
        -11    1    3    3    0    0 -0.22569457452E+01 -0.30962782407E+01  0.36173547277E+01  0.52693451707E+01  0.51100000000E-03 0.  1.
         12    1    3    3    0    0 -0.10362993969E+02 -0.31265347615E+02 -0.26416315913E+01  0.33043786450E+02  0.00000000000E+00 0. -1.
</event>
<event>
 7    1  0.5138511E-013  0.5052891E+02  0.7816164E-02  0.1300439E+00
        -11   -1    0    0    0    0  0.00000000000E+00  0.00000000000E+00  0.45593999997E+02  0.45594000000E+02  0.51100000000E-03 0. -1.
         11   -1    0    0    0    0 -0.00000000000E+00 -0.00000000000E+00 -0.45593999997E+02  0.45594000000E+02  0.51100000000E-03 0.  1.
    9900012    2    1    2    0    0  0.20113380298E+02 -0.22919343252E+02  0.26894561822E+02  0.50528907318E+02  0.30000144284E+02 0.  0.
        -12    1    1    2    0    0 -0.20113380298E+02  0.22919343252E+02 -0.26894561822E+02  0.40659092682E+02  0.00000000000E+00 0.  1.
         11    1    3    3    0    0  0.19375883638E+02 -0.87230813738E+01  0.10989536917E+02  0.23922519461E+02  0.51100000000E-03 0. -1.
        -11    1    3    3    0    0  0.26382606253E+01  0.29470768002E+01  0.41511171207E+01  0.57338865008E+01  0.51100000000E-03 0.  1.
         12    1    3    3    0    0 -0.19007639657E+01 -0.17143338678E+02  0.11753907784E+02  0.20872501357E+02  0.00000000000E+00 0. -1.
</event>
<event>
 7    1  0.5138511E-013  0.5052886E+02  0.7816164E-02  0.1300439E+00
        -11   -1    0    0    0    0  0.00000000000E+00  0.00000000000E+00  0.45593999997E+02  0.45594000000E+02  0.51100000000E-03 0. -1.
         11   -1    0    0    0    0 -0.00000000000E+00 -0.00000000000E+00 -0.45593999997E+02  0.45594000000E+02  0.51100000000E-03 0.  1.
    9900012    2    1    2    0    0 -0.18631824687E+02  0.91797928621E+01  0.34953570040E+02  0.50528861461E+02  0.30000004897E+02 0.  0.
        -12    1    1    2    0    0  0.18631824687E+02 -0.91797928621E+01 -0.34953570040E+02  0.40659138539E+02  0.00000000000E+00 0.  1.
         11    1    3    3    0    0 -0.10860124581E+02 -0.89583729448E+01  0.11352257987E+02  0.18085035620E+02  0.51100000000E-03 0. -1.
        -11    1    3    3    0    0 -0.91525903660E+01  0.86284012169E+01  0.12063044813E+02  0.17428031111E+02  0.51100000000E-03 0.  1.
        -12    1    3    3    0    0  0.13808902599E+01  0.95097645900E+01  0.11538267241E+02  0.15015794730E+02  0.00000000000E+00 0.  1.
</event>
<event>
 7    1  0.5138511E-013  0.5052885E+02  0.7816164E-02  0.1300439E+00
        -11   -1    0    0    0    0  0.00000000000E+00  0.00000000000E+00  0.45593999997E+02  0.45594000000E+02  0.51100000000E-03 0.  1.
         11   -1    0    0    0    0 -0.00000000000E+00 -0.00000000000E+00 -0.45593999997E+02  0.45594000000E+02  0.51100000000E-03 0. -1.
    9900012    2    1    2    0    0 -0.35211376214E+02  0.10048558015E+02 -0.17673474940E+02  0.50528852818E+02  0.29999978627E+02 0.  0.
        -12    1    1    2    0    0  0.35211376214E+02 -0.10048558015E+02  0.17673474940E+02  0.40659147182E+02  0.00000000000E+00 0.  1.
         11    1    3    3    0    0 -0.90370629261E+01  0.52805990386E+01 -0.15130931341E+02  0.18398323729E+02  0.51100000000E-03 0. -1.
        -11    1    3    3    0    0 -0.14619941739E+01 -0.38083969596E+01  0.33945468969E+01  0.53070013438E+01  0.51100000000E-03 0.  1.
        -12    1    3    3    0    0 -0.24712319114E+02  0.85763559360E+01 -0.59370904954E+01  0.26823527745E+02  0.00000000000E+00 0.  1.
</event>
<event>
 7    1  0.5138511E-013  0.5052886E+02  0.7816164E-02  0.1300439E+00
        -11   -1    0    0    0    0  0.00000000000E+00  0.00000000000E+00  0.45593999997E+02  0.45594000000E+02  0.51100000000E-03 0.  1.
         11   -1    0    0    0    0 -0.00000000000E+00 -0.00000000000E+00 -0.45593999997E+02  0.45594000000E+02  0.51100000000E-03 0. -1.
    9900012    2    1    2    0    0 -0.40593228609E+02  0.16323852639E+01 -0.16404432837E+01  0.50528856566E+02  0.29999990019E+02 0.  0.
        -12    1    1    2    0    0  0.40593228609E+02 -0.16323852639E+01  0.16404432837E+01  0.40659143434E+02  0.00000000000E+00 0.  1.
         11    1    3    3    0    0 -0.19654014192E+02 -0.70377932265E+01  0.48012960861E+01  0.21421093616E+02  0.51100000000E-03 0. -1.
        -11    1    3    3    0    0 -0.22334472915E+01 -0.45071153352E+01  0.83160276991E+00  0.50984251369E+01  0.51100000000E-03 0.  1.
         12    1    3    3    0    0 -0.18705767126E+02  0.13177293826E+02 -0.72733421397E+01  0.24009337813E+02  0.00000000000E+00 0. -1.
</event>
<event>
 7    1  0.7568242E-013  0.5052885E+02  0.7816164E-02  0.1300439E+00
        -11   -1    0    0    0    0  0.00000000000E+00  0.00000000000E+00  0.45593999997E+02  0.45594000000E+02  0.51100000000E-03 0. -1.
         11   -1    0    0    0    0 -0.00000000000E+00 -0.00000000000E+00 -0.45593999997E+02  0.45594000000E+02  0.51100000000E-03 0.  1.
    9900012    2    1    2    0    0 -0.29987162551E+02  0.14567758461E+02  0.23274805790E+02  0.50528854792E+02  0.29999984627E+02 0.  0.
        -12    1    1    2    0    0  0.29987162551E+02 -0.14567758461E+02 -0.23274805790E+02  0.40659145208E+02  0.00000000000E+00 0.  1.
         11    1    3    3    0    0 -0.22113777139E+02  0.14435037130E+02  0.21231226670E+02  0.33884427433E+02  0.51100000000E-03 0. -1.
        -11    1    3    3    0    0 -0.80020287701E+01  0.40116520549E+01 -0.37219980501E+01  0.96942811179E+01  0.51100000000E-03 0.  1.
        -12    1    3    3    0    0  0.12864335781E+00 -0.38789307238E+01  0.57655771699E+01  0.69501462413E+01  0.00000000000E+00 0.  1.
</event>
<event>
 7    1  0.5138511E-013  0.5052890E+02  0.7816164E-02  0.1300439E+00
        -11   -1    0    0    0    0  0.00000000000E+00  0.00000000000E+00  0.45593999997E+02  0.45594000000E+02  0.51100000000E-03 0.  1.
         11   -1    0    0    0    0 -0.00000000000E+00 -0.00000000000E+00 -0.45593999997E+02  0.45594000000E+02  0.51100000000E-03 0. -1.
    9900012    2    1    2    0    0  0.20095654183E+02  0.16183721888E+02 -0.31423151647E+02  0.50528897321E+02  0.30000113897E+02 0.  0.
        -12    1    1    2    0    0 -0.20095654183E+02 -0.16183721888E+02  0.31423151647E+02  0.40659102679E+02  0.00000000000E+00 0.  1.
         11    1    3    3    0    0  0.14288505352E+02  0.20713519394E+02 -0.27333899542E+02  0.37153106671E+02  0.51100000000E-03 0. -1.
        -11    1    3    3    0    0  0.82532244508E+01 -0.83015033162E+00 -0.28486173052E+01  0.87703753751E+01  0.51100000000E-03 0.  1.
        -12    1    3    3    0    0 -0.24460756195E+01 -0.36996471741E+01 -0.12406347999E+01  0.46054152751E+01  0.00000000000E+00 0.  1.
</event>
<event>
 7    1  0.5138511E-013  0.5052887E+02  0.7816164E-02  0.1300439E+00
        -11   -1    0    0    0    0  0.00000000000E+00  0.00000000000E+00  0.45593999997E+02  0.45594000000E+02  0.51100000000E-03 0.  1.
         11   -1    0    0    0    0 -0.00000000000E+00 -0.00000000000E+00 -0.45593999997E+02  0.45594000000E+02  0.51100000000E-03 0. -1.
    9900012    2    1    2    0    0 -0.26914935918E+02  0.23381837825E+02 -0.19545862222E+02  0.50528870084E+02  0.30000031106E+02 0.  0.
        -12    1    1    2    0    0  0.26914935918E+02 -0.23381837825E+02  0.19545862222E+02  0.40659129916E+02  0.00000000000E+00 0.  1.
         11    1    3    3    0    0 -0.39187347536E+01 -0.16151158074E+00 -0.24709792767E+01  0.46355481776E+01  0.51100000000E-03 0. -1.
        -11    1    3    3    0    0  0.36120647924E+01  0.60479844525E+01  0.36146420935E+01  0.79177500419E+01  0.51100000000E-03 0.  1.
        -12    1    3    3    0    0 -0.26608265956E+02  0.17495364954E+02 -0.20689525039E+02  0.37975571864E+02  0.00000000000E+00 0.  1.
</event>
<event>
 7    1  0.5138511E-013  0.5052886E+02  0.7816164E-02  0.1300439E+00
        -11   -1    0    0    0    0  0.00000000000E+00  0.00000000000E+00  0.45593999997E+02  0.45594000000E+02  0.51100000000E-03 0.  1.
         11   -1    0    0    0    0 -0.00000000000E+00 -0.00000000000E+00 -0.45593999997E+02  0.45594000000E+02  0.51100000000E-03 0. -1.
    9900012    2    1    2    0    0 -0.34502495903E+02 -0.18753549910E+02  0.10537931101E+02  0.50528857736E+02  0.29999993573E+02 0.  0.
        -12    1    1    2    0    0  0.34502495903E+02  0.18753549910E+02 -0.10537931101E+02  0.40659142264E+02  0.00000000000E+00 0.  1.
         11    1    3    3    0    0  0.99129153626E+00  0.26593142344E+01  0.44820520970E+01  0.53050355671E+01  0.51100000000E-03 0. -1.
        -11    1    3    3    0    0 -0.15523431010E+02 -0.14284794538E+02  0.10491291992E+02  0.23560549086E+02  0.51100000000E-03 0.  1.
         12    1    3    3    0    0 -0.19970356430E+02 -0.71280696069E+01 -0.44354129888E+01  0.21663273082E+02  0.00000000000E+00 0. -1.
</event>
<event>
 7    1  0.5138511E-013  0.5052885E+02  0.7816164E-02  0.1300439E+00
        -11   -1    0    0    0    0  0.00000000000E+00  0.00000000000E+00  0.45593999997E+02  0.45594000000E+02  0.51100000000E-03 0. -1.
         11   -1    0    0    0    0 -0.00000000000E+00 -0.00000000000E+00 -0.45593999997E+02  0.45594000000E+02  0.51100000000E-03 0.  1.
    9900012    2    1    2    0    0 -0.39024926191E+02 -0.47283966415E+01  0.10385743507E+02  0.50528852601E+02  0.29999977967E+02 0.  0.
        -12    1    1    2    0    0  0.39024926191E+02  0.47283966415E+01 -0.10385743507E+02  0.40659147399E+02  0.00000000000E+00 0.  1.
         11    1    3    3    0    0  0.10795888951E+01  0.79110175215E+00 -0.21124903162E+01  0.25007938264E+01  0.51100000000E-03 0. -1.
        -11    1    3    3    0    0 -0.17688143794E+02  0.66275765508E+01 -0.14885098277E+01  0.18947581999E+02  0.51100000000E-03 0.  1.
         12    1    3    3    0    0 -0.22416371291E+02 -0.12147074944E+02  0.13986743651E+02  0.29080476776E+02  0.00000000000E+00 0. -1.
</event>
<event>
 7    1  0.5138511E-013  0.5052885E+02  0.7816164E-02  0.1300439E+00
        -11   -1    0    0    0    0  0.00000000000E+00  0.00000000000E+00  0.45593999997E+02  0.45594000000E+02  0.51100000000E-03 0.  1.
         11   -1    0    0    0    0 -0.00000000000E+00 -0.00000000000E+00 -0.45593999997E+02  0.45594000000E+02  0.51100000000E-03 0. -1.
    9900012    2    1    2    0    0  0.19531008560E+02 -0.12779641417E+01 -0.35638078118E+02  0.50528854661E+02  0.29999984229E+02 0.  0.
        -12    1    1    2    0    0 -0.19531008560E+02  0.12779641417E+01  0.35638078118E+02  0.40659145339E+02  0.00000000000E+00 0.  1.
         11    1    3    3    0    0  0.32176056460E+01 -0.64446628768E+01 -0.16869466944E+02  0.18342998145E+02  0.51100000000E-03 0. -1.
        -11    1    3    3    0    0  0.15235079805E+02  0.95233319853E+00 -0.26532497692E+01  0.15493686772E+02  0.51100000000E-03 0.  1.
         12    1    3    3    0    0  0.10783231092E+01  0.42143655366E+01 -0.16115361404E+02  0.16692169745E+02  0.00000000000E+00 0. -1.
</event>
<event>
 7    1  0.5138511E-013  0.5052886E+02  0.7816164E-02  0.1300439E+00
        -11   -1    0    0    0    0  0.00000000000E+00  0.00000000000E+00  0.45593999997E+02  0.45594000000E+02  0.51100000000E-03 0.  1.
         11   -1    0    0    0    0 -0.00000000000E+00 -0.00000000000E+00 -0.45593999997E+02  0.45594000000E+02  0.51100000000E-03 0. -1.
    9900012    2    1    2    0    0  0.16381586773E+02  0.15610118478E+02 -0.33780665131E+02  0.50528861780E+02  0.30000005868E+02 0.  0.
        -12    1    1    2    0    0 -0.16381586773E+02 -0.15610118478E+02  0.33780665131E+02  0.40659138220E+02  0.00000000000E+00 0.  1.
         11    1    3    3    0    0  0.14793271381E+01  0.15516501973E+02 -0.22164920289E+02  0.27096751354E+02  0.51100000000E-03 0. -1.
        -11    1    3    3    0    0  0.13958515646E+02  0.21063041056E+01 -0.14200274989E+02  0.20023098813E+02  0.51100000000E-03 0.  1.
        -12    1    3    3    0    0  0.94374398822E+00 -0.20126876009E+01  0.25845301479E+01  0.34090116133E+01  0.00000000000E+00 0.  1.
</event>
<event>
 7    1  0.5138511E-013  0.5052886E+02  0.7816164E-02  0.1300439E+00
        -11   -1    0    0    0    0  0.00000000000E+00  0.00000000000E+00  0.45593999997E+02  0.45594000000E+02  0.51100000000E-03 0. -1.
         11   -1    0    0    0    0 -0.00000000000E+00 -0.00000000000E+00 -0.45593999997E+02  0.45594000000E+02  0.51100000000E-03 0.  1.
    9900012    2    1    2    0    0 -0.32432093623E+02 -0.51000003147E+01  0.23985728772E+02  0.50528857305E+02  0.29999992263E+02 0.  0.
        -12    1    1    2    0    0  0.32432093623E+02  0.51000003147E+01 -0.23985728772E+02  0.40659142695E+02  0.00000000000E+00 0.  1.
         11    1    3    3    0    0 -0.25820396009E+01 -0.58308955336E+01  0.42699134516E+01  0.76745314104E+01  0.51100000000E-03 0. -1.
        -11    1    3    3    0    0  0.24906321575E+01  0.47438446003E+01  0.39229085872E+01  0.66405212280E+01  0.51100000000E-03 0.  1.
         12    1    3    3    0    0 -0.32340686180E+02 -0.40129493814E+01  0.15792906733E+02  0.36213804666E+02  0.00000000000E+00 0. -1.
</event>
<event>
 7    1  0.5138511E-013  0.5052886E+02  0.7816164E-02  0.1300439E+00
        -11   -1    0    0    0    0  0.00000000000E+00  0.00000000000E+00  0.45593999997E+02  0.45594000000E+02  0.51100000000E-03 0. -1.
         11   -1    0    0    0    0 -0.00000000000E+00 -0.00000000000E+00 -0.45593999997E+02  0.45594000000E+02  0.51100000000E-03 0.  1.
    9900012    2    1    2    0    0 -0.32738461454E+02 -0.23756184898E+02  0.41233753412E+01  0.50528863223E+02  0.30000010251E+02 0.  0.
        -12    1    1    2    0    0  0.32738461454E+02  0.23756184898E+02 -0.41233753412E+01  0.40659136777E+02  0.00000000000E+00 0.  1.
         11    1    3    3    0    0 -0.14638398530E+02 -0.77357828432E+01  0.77687289319E+01  0.18288745096E+02  0.51100000000E-03 0. -1.
        -11    1    3    3    0    0 -0.83887558777E+01 -0.18800862797E+02  0.19721539547E+01  0.20681708309E+02  0.51100000000E-03 0.  1.
        -12    1    3    3    0    0 -0.97113070464E+01  0.27804607422E+01 -0.56175075454E+01  0.11558409818E+02  0.00000000000E+00 0.  1.
</event>
<event>
 7    1  0.5138511E-013  0.5052885E+02  0.7816164E-02  0.1300439E+00
        -11   -1    0    0    0    0  0.00000000000E+00  0.00000000000E+00  0.45593999997E+02  0.45594000000E+02  0.51100000000E-03 0.  1.
         11   -1    0    0    0    0 -0.00000000000E+00 -0.00000000000E+00 -0.45593999997E+02  0.45594000000E+02  0.51100000000E-03 0. -1.
    9900012    2    1    2    0    0 -0.11223378353E+02  0.27985301512E+02 -0.27276819223E+02  0.50528853559E+02  0.29999980879E+02 0.  0.
        -12    1    1    2    0    0  0.11223378353E+02 -0.27985301512E+02  0.27276819223E+02  0.40659146441E+02  0.00000000000E+00 0.  1.
         11    1    3    3    0    0  0.78012407779E+01  0.12649174776E+02 -0.53293769776E+01  0.15788072695E+02  0.51100000000E-03 0. -1.
        -11    1    3    3    0    0 -0.16313740775E+01 -0.18572214072E+01 -0.19159410795E+01  0.31275362855E+01  0.51100000000E-03 0.  1.
         12    1    3    3    0    0 -0.17393245054E+02  0.17193348142E+02 -0.20031501166E+02  0.31613244579E+02  0.00000000000E+00 0. -1.
</event>
<event>
 7    1  0.5840932E-013  0.5052886E+02  0.7816164E-02  0.1300439E+00
        -11   -1    0    0    0    0  0.00000000000E+00  0.00000000000E+00  0.45593999997E+02  0.45594000000E+02  0.51100000000E-03 0.  1.
         11   -1    0    0    0    0 -0.00000000000E+00 -0.00000000000E+00 -0.45593999997E+02  0.45594000000E+02  0.51100000000E-03 0. -1.
    9900012    2    1    2    0    0 -0.23164454700E+02 -0.41359545687E+00 -0.33412611023E+02  0.50528860829E+02  0.30000002975E+02 0.  0.
        -12    1    1    2    0    0  0.23164454700E+02  0.41359545687E+00  0.33412611023E+02  0.40659139171E+02  0.00000000000E+00 0.  1.
         11    1    3    3    0    0 -0.16258783376E+02 -0.38982421158E+01 -0.27053439385E+02  0.31803033051E+02  0.51100000000E-03 0. -1.
        -11    1    3    3    0    0  0.20079275595E+01 -0.48096921131E+01 -0.33096019440E+01  0.61740081467E+01  0.51100000000E-03 0.  1.
        -12    1    3    3    0    0 -0.89135988836E+01  0.82943387720E+01 -0.30495696947E+01  0.12551819631E+02  0.00000000000E+00 0.  1.
</event>
<event>
 7    1  0.5138511E-013  0.5052886E+02  0.7816164E-02  0.1300439E+00
        -11   -1    0    0    0    0  0.00000000000E+00  0.00000000000E+00  0.45593999997E+02  0.45594000000E+02  0.51100000000E-03 0.  1.
         11   -1    0    0    0    0 -0.00000000000E+00 -0.00000000000E+00 -0.45593999997E+02  0.45594000000E+02  0.51100000000E-03 0. -1.
    9900012    2    1    2    0    0 -0.29468352435E+01  0.95571858076E+00 -0.40540946840E+02  0.50528860725E+02  0.30000002658E+02 0.  0.
        -12    1    1    2    0    0  0.29468352435E+01 -0.95571858076E+00  0.40540946840E+02  0.40659139275E+02  0.00000000000E+00 0.  1.
         11    1    3    3    0    0 -0.38188171704E+01 -0.88124671841E+00  0.41530732923E+00  0.39411217690E+01  0.51100000000E-03 0. -1.
        -11    1    3    3    0    0 -0.24770831853E+01 -0.83373552692E+01 -0.75876183525E+01  0.11542070287E+02  0.51100000000E-03 0.  1.
        -12    1    3    3    0    0  0.33490651122E+01  0.10174320568E+02 -0.33368635816E+02  0.35045668668E+02  0.00000000000E+00 0.  1.
</event>
<event>
 7    1  0.5138511E-013  0.5052886E+02  0.7816164E-02  0.1300439E+00
        -11   -1    0    0    0    0  0.00000000000E+00  0.00000000000E+00  0.45593999997E+02  0.45594000000E+02  0.51100000000E-03 0.  1.
         11   -1    0    0    0    0 -0.00000000000E+00 -0.00000000000E+00 -0.45593999997E+02  0.45594000000E+02  0.51100000000E-03 0. -1.
    9900012    2    1    2    0    0 -0.30793862021E+02 -0.26237688463E+02 -0.40605068461E+01  0.50528856503E+02  0.29999989827E+02 0.  0.
        -12    1    1    2    0    0  0.30793862021E+02  0.26237688463E+02  0.40605068461E+01  0.40659143497E+02  0.00000000000E+00 0.  1.
         11    1    3    3    0    0 -0.36652570475E+01 -0.15407478654E+02 -0.63905220514E+01  0.17078152127E+02  0.51100000000E-03 0. -1.
        -11    1    3    3    0    0 -0.12475607908E+02 -0.13433083607E+02 -0.31333578871E+00  0.18335394936E+02  0.51100000000E-03 0.  1.
        -12    1    3    3    0    0 -0.14652997066E+02  0.26028737983E+01  0.26433509940E+01  0.15115309441E+02  0.00000000000E+00 0.  1.
</event>
<event>
 7    1  0.5138511E-013  0.5052886E+02  0.7816164E-02  0.1300439E+00
        -11   -1    0    0    0    0  0.00000000000E+00  0.00000000000E+00  0.45593999997E+02  0.45594000000E+02  0.51100000000E-03 0. -1.
         11   -1    0    0    0    0 -0.00000000000E+00 -0.00000000000E+00 -0.45593999997E+02  0.45594000000E+02  0.51100000000E-03 0.  1.
    9900012    2    1    2    0    0 -0.24146405087E+01  0.26475953532E+02  0.30762945824E+02  0.50528862773E+02  0.30000008885E+02 0.  0.
        -12    1    1    2    0    0  0.24146405087E+01 -0.26475953532E+02 -0.30762945824E+02  0.40659137227E+02  0.00000000000E+00 0.  1.
         11    1    3    3    0    0  0.37311141060E+01 -0.31939468565E+00  0.59222628040E+01  0.70068839306E+01  0.51100000000E-03 0. -1.
        -11    1    3    3    0    0  0.27149754203E+01 -0.32359608121E+01  0.15545824890E+01  0.45010288698E+01  0.51100000000E-03 0.  1.
         12    1    3    3    0    0 -0.88607300350E+01  0.30031309030E+02  0.23286100531E+02  0.39020949973E+02  0.00000000000E+00 0. -1.
</event>
<event>
 7    1  0.5138511E-013  0.5052886E+02  0.7816164E-02  0.1300439E+00
        -11   -1    0    0    0    0  0.00000000000E+00  0.00000000000E+00  0.45593999997E+02  0.45594000000E+02  0.51100000000E-03 0. -1.
         11   -1    0    0    0    0 -0.00000000000E+00 -0.00000000000E+00 -0.45593999997E+02  0.45594000000E+02  0.51100000000E-03 0.  1.
    9900012    2    1    2    0    0 -0.36785480105E+02  0.12369164071E+02 -0.12124259440E+02  0.50528862855E+02  0.30000009135E+02 0.  0.
        -12    1    1    2    0    0  0.36785480105E+02 -0.12369164071E+02  0.12124259440E+02  0.40659137145E+02  0.00000000000E+00 0.  1.
         11    1    3    3    0    0 -0.33175718250E+02  0.11239561614E+02 -0.36840501316E+01  0.35221133604E+02  0.51100000000E-03 0. -1.
        -11    1    3    3    0    0 -0.46862994605E+01  0.45053828566E+01 -0.39024738642E+00  0.65124627140E+01  0.51100000000E-03 0.  1.
         12    1    3    3    0    0  0.10765376061E+01 -0.33757803988E+01 -0.80499619225E+01  0.87952665378E+01  0.00000000000E+00 0. -1.
</event>
<event>
 7    1  0.5138511E-013  0.5052886E+02  0.7816164E-02  0.1300439E+00
        -11   -1    0    0    0    0  0.00000000000E+00  0.00000000000E+00  0.45593999997E+02  0.45594000000E+02  0.51100000000E-03 0.  1.
         11   -1    0    0    0    0 -0.00000000000E+00 -0.00000000000E+00 -0.45593999997E+02  0.45594000000E+02  0.51100000000E-03 0. -1.
    9900012    2    1    2    0    0 -0.34086940290E+02 -0.96091664066E+01 -0.19972725252E+02  0.50528864110E+02  0.30000012949E+02 0.  0.
        -12    1    1    2    0    0  0.34086940290E+02  0.96091664066E+01  0.19972725252E+02  0.40659135890E+02  0.00000000000E+00 0.  1.
         11    1    3    3    0    0 -0.99998950272E+01 -0.13408790279E+02 -0.91339452775E+01  0.19058397464E+02  0.51100000000E-03 0. -1.
        -11    1    3    3    0    0 -0.10717712658E+02 -0.23501520829E+01 -0.12532923501E+02  0.16657333255E+02  0.51100000000E-03 0.  1.
        -12    1    3    3    0    0 -0.13369332605E+02  0.61497759548E+01  0.16941435262E+01  0.14813133392E+02  0.00000000000E+00 0.  1.
</event>
<event>
 7    1  0.5138511E-013  0.5052886E+02  0.7816164E-02  0.1300439E+00
        -11   -1    0    0    0    0  0.00000000000E+00  0.00000000000E+00  0.45593999997E+02  0.45594000000E+02  0.51100000000E-03 0. -1.
         11   -1    0    0    0    0 -0.00000000000E+00 -0.00000000000E+00 -0.45593999997E+02  0.45594000000E+02  0.51100000000E-03 0.  1.
    9900012    2    1    2    0    0 -0.11186646860E+01 -0.36867003562E+02 -0.17109594856E+02  0.50528860825E+02  0.30000002965E+02 0.  0.
        -12    1    1    2    0    0  0.11186646860E+01  0.36867003562E+02  0.17109594856E+02  0.40659139175E+02  0.00000000000E+00 0.  1.
         11    1    3    3    0    0  0.68014804210E+01 -0.35344319550E+01  0.21655386723E+00  0.76680663143E+01  0.51100000000E-03 0. -1.
        -11    1    3    3    0    0 -0.25304681422E+01 -0.37908590708E+01  0.39717534123E+01  0.60455526581E+01  0.51100000000E-03 0.  1.
        -12    1    3    3    0    0 -0.53896769649E+01 -0.29541712536E+02 -0.21297902135E+02  0.36815241853E+02  0.00000000000E+00 0.  1.
</event>
<event>
 7    1  0.5138511E-013  0.5052887E+02  0.7816164E-02  0.1300439E+00
        -11   -1    0    0    0    0  0.00000000000E+00  0.00000000000E+00  0.45593999997E+02  0.45594000000E+02  0.51100000000E-03 0.  1.
         11   -1    0    0    0    0 -0.00000000000E+00 -0.00000000000E+00 -0.45593999997E+02  0.45594000000E+02  0.51100000000E-03 0. -1.
    9900012    2    1    2    0    0 -0.26143872600E+02 -0.24789361638E+02 -0.18845437426E+02  0.50528867732E+02  0.30000023959E+02 0.  0.
        -12    1    1    2    0    0  0.26143872600E+02  0.24789361638E+02  0.18845437426E+02  0.40659132268E+02  0.00000000000E+00 0.  1.
         11    1    3    3    0    0 -0.17776900375E+02 -0.15736219623E+02 -0.17311590731E+02  0.29382613377E+02  0.51100000000E-03 0. -1.
        -11    1    3    3    0    0 -0.26753526137E+01 -0.13482783682E+02 -0.21288264712E+01  0.13909524429E+02  0.51100000000E-03 0.  1.
         12    1    3    3    0    0 -0.56916196114E+01  0.44296416669E+01  0.59497977585E+00  0.72367299267E+01  0.00000000000E+00 0. -1.
</event>
<event>
 7    1  0.5138511E-013  0.5052886E+02  0.7816164E-02  0.1300439E+00
        -11   -1    0    0    0    0  0.00000000000E+00  0.00000000000E+00  0.45593999997E+02  0.45594000000E+02  0.51100000000E-03 0.  1.
         11   -1    0    0    0    0 -0.00000000000E+00 -0.00000000000E+00 -0.45593999997E+02  0.45594000000E+02  0.51100000000E-03 0. -1.
    9900012    2    1    2    0    0 -0.17481955028E+02  0.25243986308E+02 -0.26651228707E+02  0.50528860955E+02  0.30000003357E+02 0.  0.
        -12    1    1    2    0    0  0.17481955028E+02 -0.25243986308E+02  0.26651228707E+02  0.40659139045E+02  0.00000000000E+00 0.  1.
         11    1    3    3    0    0  0.10201570244E+01  0.23074709702E+01 -0.12362980216E+02  0.12617782004E+02  0.51100000000E-03 0. -1.
        -11    1    3    3    0    0 -0.94002081447E+01 -0.96266740423E+00 -0.26517798278E+01  0.98144066662E+01  0.51100000000E-03 0.  1.
         12    1    3    3    0    0 -0.91019039080E+01  0.23899182742E+02 -0.11636468664E+02  0.28096672284E+02  0.00000000000E+00 0. -1.
</event>
<event>
 7    1  0.5138511E-013  0.5052887E+02  0.7816164E-02  0.1300439E+00
        -11   -1    0    0    0    0  0.00000000000E+00  0.00000000000E+00  0.45593999997E+02  0.45594000000E+02  0.51100000000E-03 0.  1.
         11   -1    0    0    0    0 -0.00000000000E+00 -0.00000000000E+00 -0.45593999997E+02  0.45594000000E+02  0.51100000000E-03 0. -1.
    9900012    2    1    2    0    0 -0.38875439070E+02  0.34082668486E+01  0.11412676031E+02  0.50528865479E+02  0.30000017111E+02 0.  0.
        -12    1    1    2    0    0  0.38875439070E+02 -0.34082668486E+01 -0.11412676031E+02  0.40659134521E+02  0.00000000000E+00 0.  1.
         11    1    3    3    0    0 -0.99247979718E+00  0.31039606024E+01 -0.36165693103E+01  0.48681784485E+01  0.51100000000E-03 0. -1.
        -11    1    3    3    0    0 -0.66327351139E+01 -0.14831098548E+01  0.12536462830E+02  0.14260283675E+02  0.51100000000E-03 0.  1.
        -12    1    3    3    0    0 -0.31250224159E+02  0.17874161010E+01  0.24927825113E+01  0.31400403356E+02  0.00000000000E+00 0.  1.
</event>
<event>
 7    1  0.5138511E-013  0.5052888E+02  0.7816164E-02  0.1300439E+00
        -11   -1    0    0    0    0  0.00000000000E+00  0.00000000000E+00  0.45593999997E+02  0.45594000000E+02  0.51100000000E-03 0.  1.
         11   -1    0    0    0    0 -0.00000000000E+00 -0.00000000000E+00 -0.45593999997E+02  0.45594000000E+02  0.51100000000E-03 0. -1.
    9900012    2    1    2    0    0  0.22757996421E+02 -0.29108023209E+02 -0.16969407360E+02  0.50528877993E+02  0.30000055147E+02 0.  0.
        -12    1    1    2    0    0 -0.22757996421E+02  0.29108023209E+02  0.16969407360E+02  0.40659122007E+02  0.00000000000E+00 0.  1.
         11    1    3    3    0    0  0.45663849064E+01  0.22556361741E+01  0.26005396475E+01  0.57186162997E+01  0.51100000000E-03 0. -1.
        -11    1    3    3    0    0  0.16998184080E+02 -0.20428564338E+02 -0.58266379849E+01  0.27206878053E+02  0.51100000000E-03 0.  1.
         12    1    3    3    0    0  0.11934274345E+01 -0.10935095045E+02 -0.13743309023E+02  0.17603383640E+02  0.00000000000E+00 0. -1.
</event>
<event>
 7    1  0.5138511E-013  0.5052885E+02  0.7816164E-02  0.1300439E+00
        -11   -1    0    0    0    0  0.00000000000E+00  0.00000000000E+00  0.45593999997E+02  0.45594000000E+02  0.51100000000E-03 0.  1.
         11   -1    0    0    0    0 -0.00000000000E+00 -0.00000000000E+00 -0.45593999997E+02  0.45594000000E+02  0.51100000000E-03 0. -1.
    9900012    2    1    2    0    0 -0.86734876494E+01  0.21716552536E+02 -0.33261518969E+02  0.50528847449E+02  0.29999962305E+02 0.  0.
        -12    1    1    2    0    0  0.86734876494E+01 -0.21716552536E+02  0.33261518969E+02  0.40659152551E+02  0.00000000000E+00 0.  1.
         11    1    3    3    0    0 -0.36598676404E+01 -0.39654938055E+01 -0.91434756212E+01  0.10617105018E+02  0.51100000000E-03 0. -1.
        -11    1    3    3    0    0 -0.15608985272E+01  0.39418980421E+01  0.28438564025E+01  0.51051428859E+01  0.51100000000E-03 0.  1.
        -12    1    3    3    0    0 -0.34527214818E+01  0.21740148300E+02 -0.26961899750E+02  0.34806599545E+02  0.00000000000E+00 0.  1.
</event>
<event>
 7    1  0.5138511E-013  0.5052885E+02  0.7816164E-02  0.1300439E+00
        -11   -1    0    0    0    0  0.00000000000E+00  0.00000000000E+00  0.45593999997E+02  0.45594000000E+02  0.51100000000E-03 0. -1.
         11   -1    0    0    0    0 -0.00000000000E+00 -0.00000000000E+00 -0.45593999997E+02  0.45594000000E+02  0.51100000000E-03 0.  1.
    9900012    2    1    2    0    0 -0.10254689532E+00  0.15585972730E+02  0.37553072021E+02  0.50528852443E+02  0.29999977487E+02 0.  0.
        -12    1    1    2    0    0  0.10254689532E+00 -0.15585972730E+02 -0.37553072021E+02  0.40659147557E+02  0.00000000000E+00 0.  1.
         11    1    3    3    0    0 -0.69421391159E+01  0.60321326938E+01  0.27959144355E+01  0.96123388482E+01  0.51100000000E-03 0.  1.
        -11    1    3    3    0    0 -0.34034649312E+01  0.59164460805E+01  0.26223338795E+02  0.27097073745E+02  0.51100000000E-03 0. -1.
         12    1    3    3    0    0  0.10243057152E+02  0.36373939561E+01  0.85338187910E+01  0.13819439850E+02  0.00000000000E+00 0. -1.
</event>
<event>
 7    1  0.5138511E-013  0.5052886E+02  0.7816164E-02  0.1300439E+00
        -11   -1    0    0    0    0  0.00000000000E+00  0.00000000000E+00  0.45593999997E+02  0.45594000000E+02  0.51100000000E-03 0.  1.
         11   -1    0    0    0    0 -0.00000000000E+00 -0.00000000000E+00 -0.45593999997E+02  0.45594000000E+02  0.51100000000E-03 0. -1.
    9900012    2    1    2    0    0  0.24506701175E+02 -0.25025826112E+02 -0.20646921000E+02  0.50528859308E+02  0.29999998351E+02 0.  0.
        -12    1    1    2    0    0 -0.24506701175E+02  0.25025826112E+02  0.20646921000E+02  0.40659140692E+02  0.00000000000E+00 0.  1.
         11    1    3    3    0    0  0.26219504707E+02 -0.83966830954E+01 -0.18870186185E+02  0.33377397158E+02  0.51100000000E-03 0. -1.
        -11    1    3    3    0    0  0.74074929452E+00 -0.33934141596E+01  0.46683928793E+00  0.35045553723E+01  0.51100000000E-03 0.  1.
         12    1    3    3    0    0 -0.24535528266E+01 -0.13235728857E+02 -0.22435741027E+01  0.13646906778E+02  0.00000000000E+00 0. -1.
</event>
<event>
 7    1  0.5138511E-013  0.5052886E+02  0.7816164E-02  0.1300439E+00
        -11   -1    0    0    0    0  0.00000000000E+00  0.00000000000E+00  0.45593999997E+02  0.45594000000E+02  0.51100000000E-03 0.  1.
         11   -1    0    0    0    0 -0.00000000000E+00 -0.00000000000E+00 -0.45593999997E+02  0.45594000000E+02  0.51100000000E-03 0. -1.
    9900012    2    1    2    0    0  0.32963098629E+02 -0.13259879827E+02 -0.19768039110E+02  0.50528860135E+02  0.30000000868E+02 0.  0.
        -12    1    1    2    0    0 -0.32963098629E+02  0.13259879827E+02  0.19768039110E+02  0.40659139865E+02  0.00000000000E+00 0.  1.
         11    1    3    3    0    0 -0.27157655397E+01 -0.11789071661E+01  0.15531725275E+01  0.33432842736E+01  0.51100000000E-03 0. -1.
        -11    1    3    3    0    0  0.47651848246E+01  0.24063739566E+01 -0.97898254736E+01  0.11150708726E+02  0.51100000000E-03 0.  1.
         12    1    3    3    0    0  0.30913679344E+02 -0.14487346617E+02 -0.11531386164E+02  0.36034867136E+02  0.00000000000E+00 0. -1.
</event>
<event>
 7    1  0.5138511E-013  0.5052887E+02  0.7816164E-02  0.1300439E+00
        -11   -1    0    0    0    0  0.00000000000E+00  0.00000000000E+00  0.45593999997E+02  0.45594000000E+02  0.51100000000E-03 0. -1.
         11   -1    0    0    0    0 -0.00000000000E+00 -0.00000000000E+00 -0.45593999997E+02  0.45594000000E+02  0.51100000000E-03 0.  1.
    9900012    2    1    2    0    0  0.28973030645E+02  0.97407572737E+01  0.26811300849E+02  0.50528871748E+02  0.30000036164E+02 0.  0.
        -12    1    1    2    0    0 -0.28973030645E+02 -0.97407572737E+01 -0.26811300849E+02  0.40659128252E+02  0.00000000000E+00 0.  1.
         11    1    3    3    0    0  0.33281554961E+01  0.27601656910E+01  0.11450644490E+02  0.12239787300E+02  0.51100000000E-03 0. -1.
        -11    1    3    3    0    0  0.10532629416E+02 -0.83990442583E+01  0.67949333041E+01  0.15088119357E+02  0.51100000000E-03 0.  1.
         12    1    3    3    0    0  0.15112245733E+02  0.15379635841E+02  0.85657230553E+01  0.23200965091E+02  0.00000000000E+00 0. -1.
</event>
<event>
 7    1  0.5138511E-013  0.5052881E+02  0.7816164E-02  0.1300439E+00
        -11   -1    0    0    0    0  0.00000000000E+00  0.00000000000E+00  0.45593999997E+02  0.45594000000E+02  0.51100000000E-03 0.  1.
         11   -1    0    0    0    0 -0.00000000000E+00 -0.00000000000E+00 -0.45593999997E+02  0.45594000000E+02  0.51100000000E-03 0. -1.
    9900012    2    1    2    0    0 -0.27178330818E+02  0.27669172470E+02  0.12203486159E+02  0.50528808596E+02  0.29999844208E+02 0.  0.
        -12    1    1    2    0    0  0.27178330818E+02 -0.27669172470E+02 -0.12203486159E+02  0.40659191404E+02  0.00000000000E+00 0.  1.
         11    1    3    3    0    0 -0.54986930757E+01  0.72459840311E+01 -0.20685353269E+01  0.93283840390E+01  0.51100000000E-03 0. -1.
        -11    1    3    3    0    0 -0.22985076776E+02  0.69577494112E+01  0.13725799530E+02  0.27660831591E+02  0.51100000000E-03 0.  1.
         12    1    3    3    0    0  0.13054390344E+01  0.13465439027E+02  0.54622195557E+00  0.13539592966E+02  0.00000000000E+00 0. -1.
</event>
<event>
 7    1  0.5138511E-013  0.5052886E+02  0.7816164E-02  0.1300439E+00
        -11   -1    0    0    0    0  0.00000000000E+00  0.00000000000E+00  0.45593999997E+02  0.45594000000E+02  0.51100000000E-03 0.  1.
         11   -1    0    0    0    0 -0.00000000000E+00 -0.00000000000E+00 -0.45593999997E+02  0.45594000000E+02  0.51100000000E-03 0. -1.
    9900012    2    1    2    0    0 -0.29382250582E+02 -0.28057362115E+02 -0.16228745652E+01  0.50528856625E+02  0.29999990198E+02 0.  0.
        -12    1    1    2    0    0  0.29382250582E+02  0.28057362115E+02  0.16228745652E+01  0.40659143375E+02  0.00000000000E+00 0.  1.
         11    1    3    3    0    0 -0.13202342411E+02 -0.17935373516E+02  0.43161446723E+01  0.22684985638E+02  0.51100000000E-03 0. -1.
        -11    1    3    3    0    0 -0.18355517008E+02 -0.44488744980E+01  0.62771115828E+00  0.18897394278E+02  0.51100000000E-03 0.  1.
         12    1    3    3    0    0  0.21756088376E+01 -0.56731141012E+01 -0.65667303957E+01  0.89464767093E+01  0.00000000000E+00 0. -1.
</event>
<event>
 7    1  0.5138511E-013  0.5052886E+02  0.7816164E-02  0.1300439E+00
        -11   -1    0    0    0    0  0.00000000000E+00  0.00000000000E+00  0.45593999997E+02  0.45594000000E+02  0.51100000000E-03 0. -1.
         11   -1    0    0    0    0 -0.00000000000E+00 -0.00000000000E+00 -0.45593999997E+02  0.45594000000E+02  0.51100000000E-03 0.  1.
    9900012    2    1    2    0    0  0.19258203614E+02  0.35692099239E+02 -0.28915372036E+01  0.50528863980E+02  0.30000012553E+02 0.  0.
        -12    1    1    2    0    0 -0.19258203614E+02 -0.35692099239E+02  0.28915372036E+01  0.40659136020E+02  0.00000000000E+00 0.  1.
         11    1    3    3    0    0  0.14831442895E+02  0.25695535085E+02 -0.48528353091E+01  0.30062971119E+02  0.51100000000E-03 0.  1.
        -11    1    3    3    0    0 -0.23734867255E+01 -0.10918173301E+01 -0.50524354638E+01  0.56879353632E+01  0.51100000000E-03 0. -1.
         12    1    3    3    0    0  0.68002474439E+01  0.11088381484E+02  0.70137335693E+01  0.14777957498E+02  0.00000000000E+00 0. -1.
</event>
<event>
 7    1  0.5138511E-013  0.5052883E+02  0.7816164E-02  0.1300439E+00
        -11   -1    0    0    0    0  0.00000000000E+00  0.00000000000E+00  0.45593999997E+02  0.45594000000E+02  0.51100000000E-03 0.  1.
         11   -1    0    0    0    0 -0.00000000000E+00 -0.00000000000E+00 -0.45593999997E+02  0.45594000000E+02  0.51100000000E-03 0. -1.
    9900012    2    1    2    0    0  0.39612892116E+02 -0.84151971257E+01  0.36292204322E+01  0.50528831226E+02  0.29999912995E+02 0.  0.
        -12    1    1    2    0    0 -0.39612892116E+02  0.84151971257E+01 -0.36292204322E+01  0.40659168774E+02  0.00000000000E+00 0.  1.
         11    1    3    3    0    0  0.19091017110E+02 -0.15285481902E+01 -0.87607558767E+01  0.21060727377E+02  0.51100000000E-03 0. -1.
        -11    1    3    3    0    0  0.14200621510E+02 -0.83262015213E+01  0.11616087611E+01  0.16502503393E+02  0.51100000000E-03 0.  1.
        -12    1    3    3    0    0  0.63212534955E+01  0.14395525859E+01  0.11228367548E+02  0.12965600456E+02  0.00000000000E+00 0.  1.
</event>
<event>
 7    1  0.5138511E-013  0.5052886E+02  0.7816164E-02  0.1300439E+00
        -11   -1    0    0    0    0  0.00000000000E+00  0.00000000000E+00  0.45593999997E+02  0.45594000000E+02  0.51100000000E-03 0.  1.
         11   -1    0    0    0    0 -0.00000000000E+00 -0.00000000000E+00 -0.45593999997E+02  0.45594000000E+02  0.51100000000E-03 0. -1.
    9900012    2    1    2    0    0 -0.25126177197E+02  0.14178568769E+02 -0.28649769005E+02  0.50528857647E+02  0.29999993303E+02 0.  0.
        -12    1    1    2    0    0  0.25126177197E+02 -0.14178568769E+02  0.28649769005E+02  0.40659142353E+02  0.00000000000E+00 0.  1.
         11    1    3    3    0    0  0.21101597964E+01 -0.61670687555E+00 -0.25560385059E+01  0.33714143682E+01  0.51100000000E-03 0. -1.
        -11    1    3    3    0    0 -0.12613583788E+02  0.13570064949E+01 -0.24052336722E+02  0.27192992933E+02  0.51100000000E-03 0.  1.
        -12    1    3    3    0    0 -0.14622753206E+02  0.13438269149E+02 -0.20413937767E+01  0.19964450345E+02  0.00000000000E+00 0.  1.
</event>
<event>
 7    1  0.5138511E-013  0.5052887E+02  0.7816164E-02  0.1300439E+00
        -11   -1    0    0    0    0  0.00000000000E+00  0.00000000000E+00  0.45593999997E+02  0.45594000000E+02  0.51100000000E-03 0.  1.
         11   -1    0    0    0    0 -0.00000000000E+00 -0.00000000000E+00 -0.45593999997E+02  0.45594000000E+02  0.51100000000E-03 0. -1.
    9900012    2    1    2    0    0 -0.34436337729E+01  0.36281179465E+02  0.18027265143E+02  0.50528869593E+02  0.30000029615E+02 0.  0.
        -12    1    1    2    0    0  0.34436337729E+01 -0.36281179465E+02 -0.18027265143E+02  0.40659130407E+02  0.00000000000E+00 0.  1.
         11    1    3    3    0    0  0.13094581947E+01  0.25874615530E+02  0.65069237607E+01  0.26712365426E+02  0.51100000000E-03 0. -1.
        -11    1    3    3    0    0  0.63199726269E+01  0.52658750326E+01  0.69895713492E+01  0.10794702486E+02  0.51100000000E-03 0.  1.
        -12    1    3    3    0    0 -0.11073064595E+02  0.51406889022E+01  0.45307700336E+01  0.13021801680E+02  0.00000000000E+00 0.  1.
</event>
<event>
 7    1  0.5138511E-013  0.5052886E+02  0.7816164E-02  0.1300439E+00
        -11   -1    0    0    0    0  0.00000000000E+00  0.00000000000E+00  0.45593999997E+02  0.45594000000E+02  0.51100000000E-03 0.  1.
         11   -1    0    0    0    0 -0.00000000000E+00 -0.00000000000E+00 -0.45593999997E+02  0.45594000000E+02  0.51100000000E-03 0. -1.
    9900012    2    1    2    0    0 -0.86926746554E+01 -0.27397318578E+02 -0.28757429780E+02  0.50528862952E+02  0.30000009428E+02 0.  0.
        -12    1    1    2    0    0  0.86926746554E+01  0.27397318578E+02  0.28757429780E+02  0.40659137048E+02  0.00000000000E+00 0.  1.
         11    1    3    3    0    0  0.18379905801E+01 -0.20389129027E+02 -0.18133185347E+02  0.27347892112E+02  0.51100000000E-03 0. -1.
        -11    1    3    3    0    0 -0.40614525899E+01 -0.11544044215E+02 -0.40129038138E+01  0.12878810165E+02  0.51100000000E-03 0.  1.
         12    1    3    3    0    0 -0.64692126455E+01  0.45358546642E+01 -0.66113406196E+01  0.10302160675E+02  0.00000000000E+00 0. -1.
</event>
<event>
 7    1  0.5138511E-013  0.5052884E+02  0.7816164E-02  0.1300439E+00
        -11   -1    0    0    0    0  0.00000000000E+00  0.00000000000E+00  0.45593999997E+02  0.45594000000E+02  0.51100000000E-03 0.  1.
         11   -1    0    0    0    0 -0.00000000000E+00 -0.00000000000E+00 -0.45593999997E+02  0.45594000000E+02  0.51100000000E-03 0. -1.
    9900012    2    1    2    0    0 -0.18466063775E+02  0.25405761880E+02  0.25820905189E+02  0.50528838759E+02  0.29999935892E+02 0.  0.
        -12    1    1    2    0    0  0.18466063775E+02 -0.25405761880E+02 -0.25820905189E+02  0.40659161241E+02  0.00000000000E+00 0.  1.
         11    1    3    3    0    0  0.10064497161E+01  0.83905977418E+01  0.29609433308E+01  0.89544545990E+01  0.51100000000E-03 0. -1.
        -11    1    3    3    0    0 -0.16501708301E+02  0.22822224526E+02  0.17770480560E+02  0.33300905224E+02  0.51100000000E-03 0.  1.
        -12    1    3    3    0    0 -0.29708051899E+01 -0.58070603873E+01  0.50894812984E+01  0.82734789360E+01  0.00000000000E+00 0.  1.
</event>
<event>
 7    1  0.5138511E-013  0.5052886E+02  0.7816164E-02  0.1300439E+00
        -11   -1    0    0    0    0  0.00000000000E+00  0.00000000000E+00  0.45593999997E+02  0.45594000000E+02  0.51100000000E-03 0. -1.
         11   -1    0    0    0    0 -0.00000000000E+00 -0.00000000000E+00 -0.45593999997E+02  0.45594000000E+02  0.51100000000E-03 0.  1.
    9900012    2    1    2    0    0 -0.38150744569E+02  0.40256751565E+01  0.13471461293E+02  0.50528860302E+02  0.30000001373E+02 0.  0.
        -12    1    1    2    0    0  0.38150744569E+02 -0.40256751565E+01 -0.13471461293E+02  0.40659139698E+02  0.00000000000E+00 0.  1.
         11    1    3    3    0    0 -0.12886850315E+02 -0.60829787231E+01  0.11980994168E+02  0.18617673397E+02  0.51100000000E-03 0. -1.
        -11    1    3    3    0    0  0.94675888077E+00  0.14166116888E+01  0.38360610631E+01  0.41974403862E+01  0.51100000000E-03 0.  1.
        -12    1    3    3    0    0 -0.26210653134E+02  0.86920421908E+01 -0.23455939379E+01  0.27713746519E+02  0.00000000000E+00 0.  1.
</event>
<event>
 7    1  0.5138511E-013  0.5052888E+02  0.7816164E-02  0.1300439E+00
        -11   -1    0    0    0    0  0.00000000000E+00  0.00000000000E+00  0.45593999997E+02  0.45594000000E+02  0.51100000000E-03 0.  1.
         11   -1    0    0    0    0 -0.00000000000E+00 -0.00000000000E+00 -0.45593999997E+02  0.45594000000E+02  0.51100000000E-03 0. -1.
    9900012    2    1    2    0    0 -0.75839524082E+01  0.74383722381E+01 -0.39246886629E+02  0.50528882624E+02  0.30000069225E+02 0.  0.
        -12    1    1    2    0    0  0.75839524082E+01 -0.74383722381E+01  0.39246886629E+02  0.40659117376E+02  0.00000000000E+00 0.  1.
         11    1    3    3    0    0  0.51271317598E+01 -0.44023675671E+00 -0.13708261296E+02  0.14642326198E+02  0.51100000000E-03 0. -1.
        -11    1    3    3    0    0 -0.12975620778E+02  0.36071894179E+01 -0.27913179486E+02  0.30992323878E+02  0.51100000000E-03 0.  1.
         12    1    3    3    0    0  0.26453661007E+00  0.42714195769E+01  0.23745541519E+01  0.48942325487E+01  0.00000000000E+00 0. -1.
</event>
<event>
 7    1  0.5138511E-013  0.5052887E+02  0.7816164E-02  0.1300439E+00
        -11   -1    0    0    0    0  0.00000000000E+00  0.00000000000E+00  0.45593999997E+02  0.45594000000E+02  0.51100000000E-03 0. -1.
         11   -1    0    0    0    0 -0.00000000000E+00 -0.00000000000E+00 -0.45593999997E+02  0.45594000000E+02  0.51100000000E-03 0.  1.
    9900012    2    1    2    0    0  0.13795138023E+02  0.24651704353E+02  0.29242987616E+02  0.50528872054E+02  0.30000037097E+02 0.  0.
        -12    1    1    2    0    0 -0.13795138023E+02 -0.24651704353E+02 -0.29242987616E+02  0.40659127946E+02  0.00000000000E+00 0.  1.
         11    1    3    3    0    0  0.30682727580E+01  0.55250610551E+01  0.98676044153E+00  0.63964282073E+01  0.51100000000E-03 0. -1.
        -11    1    3    3    0    0 -0.72674714162E+01  0.79760213777E+01  0.17056775828E+02  0.20183326280E+02  0.51100000000E-03 0.  1.
         12    1    3    3    0    0  0.17994336681E+02  0.11150621920E+02  0.11199451347E+02  0.23949117568E+02  0.00000000000E+00 0. -1.
</event>
<event>
 7    1  0.5138511E-013  0.5052886E+02  0.7816164E-02  0.1300439E+00
        -11   -1    0    0    0    0  0.00000000000E+00  0.00000000000E+00  0.45593999997E+02  0.45594000000E+02  0.51100000000E-03 0.  1.
         11   -1    0    0    0    0 -0.00000000000E+00 -0.00000000000E+00 -0.45593999997E+02  0.45594000000E+02  0.51100000000E-03 0. -1.
    9900012    2    1    2    0    0  0.14751716782E+02  0.30381875691E+02 -0.22638334051E+02  0.50528859735E+02  0.29999999650E+02 0.  0.
        -12    1    1    2    0    0 -0.14751716782E+02 -0.30381875691E+02  0.22638334051E+02  0.40659140265E+02  0.00000000000E+00 0.  1.
         11    1    3    3    0    0  0.15607785197E+02  0.82713745204E+01 -0.40263951991E+01  0.18117131500E+02  0.51100000000E-03 0. -1.
        -11    1    3    3    0    0  0.40117977903E+01  0.31735504316E+01 -0.96096023742E+01  0.10886248293E+02  0.51100000000E-03 0.  1.
        -12    1    3    3    0    0 -0.48678662054E+01  0.18936950739E+02 -0.90023364779E+01  0.21525479942E+02  0.00000000000E+00 0.  1.
</event>
<event>
 7    1  0.5138511E-013  0.5052886E+02  0.7816164E-02  0.1300439E+00
        -11   -1    0    0    0    0  0.00000000000E+00  0.00000000000E+00  0.45593999997E+02  0.45594000000E+02  0.51100000000E-03 0.  1.
         11   -1    0    0    0    0 -0.00000000000E+00 -0.00000000000E+00 -0.45593999997E+02  0.45594000000E+02  0.51100000000E-03 0. -1.
    9900012    2    1    2    0    0 -0.16283522460E+02 -0.27935399656E+02 -0.24650071925E+02  0.50528859533E+02  0.29999999035E+02 0.  0.
        -12    1    1    2    0    0  0.16283522460E+02  0.27935399656E+02  0.24650071925E+02  0.40659140467E+02  0.00000000000E+00 0.  1.
         11    1    3    3    0    0 -0.12384140208E+02 -0.24993896312E+02 -0.49491151681E+01  0.28329410914E+02  0.51100000000E-03 0. -1.
        -11    1    3    3    0    0 -0.53269584008E+01 -0.22659732368E+01 -0.57496030838E+01  0.81589862358E+01  0.51100000000E-03 0.  1.
        -12    1    3    3    0    0  0.14275761489E+01 -0.67553010672E+00 -0.13951353674E+02  0.14040462382E+02  0.00000000000E+00 0.  1.
</event>
<event>
 7    1  0.5138511E-013  0.5052886E+02  0.7816164E-02  0.1300439E+00
        -11   -1    0    0    0    0  0.00000000000E+00  0.00000000000E+00  0.45593999997E+02  0.45594000000E+02  0.51100000000E-03 0.  1.
         11   -1    0    0    0    0 -0.00000000000E+00 -0.00000000000E+00 -0.45593999997E+02  0.45594000000E+02  0.51100000000E-03 0. -1.
    9900012    2    1    2    0    0  0.37965447208E+02  0.12375559179E+02  0.76574224588E+01  0.50528858772E+02  0.29999996724E+02 0.  0.
        -12    1    1    2    0    0 -0.37965447208E+02 -0.12375559179E+02 -0.76574224588E+01  0.40659141228E+02  0.00000000000E+00 0.  1.
         11    1    3    3    0    0  0.99180507072E+01  0.46991684065E+01 -0.14737076751E+01  0.11073469561E+02  0.51100000000E-03 0. -1.
        -11    1    3    3    0    0  0.20071291271E+02  0.15530393248E+02  0.11739094570E+02  0.27961691460E+02  0.51100000000E-03 0.  1.
        -12    1    3    3    0    0  0.79761052293E+01 -0.78540024750E+01 -0.26079644357E+01  0.11493697752E+02  0.00000000000E+00 0.  1.
</event>
<event>
 7    1  0.5325363E-013  0.5052886E+02  0.7816164E-02  0.1300439E+00
        -11   -1    0    0    0    0  0.00000000000E+00  0.00000000000E+00  0.45593999997E+02  0.45594000000E+02  0.51100000000E-03 0.  1.
         11   -1    0    0    0    0 -0.00000000000E+00 -0.00000000000E+00 -0.45593999997E+02  0.45594000000E+02  0.51100000000E-03 0. -1.
    9900012    2    1    2    0    0  0.10991689815E+02 -0.31393671613E+02 -0.23383452810E+02  0.50528859236E+02  0.29999998135E+02 0.  0.
        -12    1    1    2    0    0 -0.10991689815E+02  0.31393671613E+02  0.23383452810E+02  0.40659140764E+02  0.00000000000E+00 0.  1.
         11    1    3    3    0    0  0.15176821831E+02 -0.19268086831E+02 -0.13389759183E+02  0.27944243455E+02  0.51100000000E-03 0. -1.
        -11    1    3    3    0    0  0.22543534638E+01 -0.31756270320E+01  0.34465073071E+01  0.52004931944E+01  0.51100000000E-03 0.  1.
        -12    1    3    3    0    0 -0.64394854803E+01 -0.89499577498E+01 -0.13440200934E+02  0.17384122587E+02  0.00000000000E+00 0.  1.
</event>
<event>
 7    1  0.5138511E-013  0.5052893E+02  0.7816164E-02  0.1300439E+00
        -11   -1    0    0    0    0  0.00000000000E+00  0.00000000000E+00  0.45593999997E+02  0.45594000000E+02  0.51100000000E-03 0.  1.
         11   -1    0    0    0    0 -0.00000000000E+00 -0.00000000000E+00 -0.45593999997E+02  0.45594000000E+02  0.51100000000E-03 0. -1.
    9900012    2    1    2    0    0 -0.23431882699E+02 -0.86248763980E+01 -0.32089229313E+02  0.50528926504E+02  0.30000202600E+02 0.  0.
        -12    1    1    2    0    0  0.23431882699E+02  0.86248763980E+01  0.32089229313E+02  0.40659073496E+02  0.00000000000E+00 0.  1.
         11    1    3    3    0    0  0.40345589747E+01 -0.17811897169E+01  0.87243207336E+00  0.44957136154E+01  0.51100000000E-03 0. -1.
        -11    1    3    3    0    0 -0.61342432908E+01  0.28593073045E+01 -0.17277994139E+01  0.69849745947E+01  0.51100000000E-03 0.  1.
        -12    1    3    3    0    0 -0.21332198383E+02 -0.97029939856E+01 -0.31233861972E+02  0.39048238294E+02  0.00000000000E+00 0.  1.
</event>
<event>
 7    1  0.5138511E-013  0.5052887E+02  0.7816164E-02  0.1300439E+00
        -11   -1    0    0    0    0  0.00000000000E+00  0.00000000000E+00  0.45593999997E+02  0.45594000000E+02  0.51100000000E-03 0. -1.
         11   -1    0    0    0    0 -0.00000000000E+00 -0.00000000000E+00 -0.45593999997E+02  0.45594000000E+02  0.51100000000E-03 0.  1.
    9900012    2    1    2    0    0  0.37515519446E+02  0.14888207802E+02 -0.49083365297E+01  0.50528871894E+02  0.30000036608E+02 0.  0.
        -12    1    1    2    0    0 -0.37515519446E+02 -0.14888207802E+02  0.49083365297E+01  0.40659128106E+02  0.00000000000E+00 0.  1.
         11    1    3    3    0    0  0.31937927162E+01  0.54466213086E+01  0.62470036100E+01  0.88820633840E+01  0.51100000000E-03 0. -1.
        -11    1    3    3    0    0  0.17426986362E+02 -0.19013207543E+01  0.16433435224E+01  0.17607255677E+02  0.51100000000E-03 0.  1.
        -12    1    3    3    0    0  0.16894740368E+02  0.11342907248E+02 -0.12798683662E+02  0.24039552833E+02  0.00000000000E+00 0.  1.
</event>
<event>
 7    1  0.5138511E-013  0.5052886E+02  0.7816164E-02  0.1300439E+00
        -11   -1    0    0    0    0  0.00000000000E+00  0.00000000000E+00  0.45593999997E+02  0.45594000000E+02  0.51100000000E-03 0.  1.
         11   -1    0    0    0    0 -0.00000000000E+00 -0.00000000000E+00 -0.45593999997E+02  0.45594000000E+02  0.51100000000E-03 0. -1.
    9900012    2    1    2    0    0  0.14121659465E+02 -0.89577819395E+01 -0.37060796779E+02  0.50528858577E+02  0.29999996132E+02 0.  0.
        -12    1    1    2    0    0 -0.14121659465E+02  0.89577819395E+01  0.37060796779E+02  0.40659141423E+02  0.00000000000E+00 0.  1.
         11    1    3    3    0    0  0.15634328334E+02 -0.68591226130E+01 -0.24327936727E+02  0.29720839340E+02  0.51100000000E-03 0. -1.
        -11    1    3    3    0    0  0.73212032719E+01  0.21784260348E+00 -0.55893073134E+01  0.92134591361E+01  0.51100000000E-03 0.  1.
        -12    1    3    3    0    0 -0.88338721408E+01 -0.23165019301E+01 -0.71435527393E+01  0.11594560101E+02  0.00000000000E+00 0.  1.
</event>
<event>
 7    1  0.5138511E-013  0.5052886E+02  0.7816164E-02  0.1300439E+00
        -11   -1    0    0    0    0  0.00000000000E+00  0.00000000000E+00  0.45593999997E+02  0.45594000000E+02  0.51100000000E-03 0.  1.
         11   -1    0    0    0    0 -0.00000000000E+00 -0.00000000000E+00 -0.45593999997E+02  0.45594000000E+02  0.51100000000E-03 0. -1.
    9900012    2    1    2    0    0  0.62847631735E+01  0.26409772354E+02 -0.30268654290E+02  0.50528858883E+02  0.29999997059E+02 0.  0.
        -12    1    1    2    0    0 -0.62847631735E+01 -0.26409772354E+02  0.30268654290E+02  0.40659141117E+02  0.00000000000E+00 0.  1.
         11    1    3    3    0    0  0.74601606254E+01  0.15932090910E+01 -0.20218840479E+02  0.21610039850E+02  0.51100000000E-03 0.  1.
        -11    1    3    3    0    0  0.23606246754E+01  0.35785825052E+00 -0.11705409277E+01  0.26590934000E+01  0.51100000000E-03 0. -1.
        -12    1    3    3    0    0 -0.35360221272E+01  0.24458705012E+02 -0.88792728832E+01  0.26259725632E+02  0.00000000000E+00 0.  1.
</event>
<event>
 7    1  0.5138511E-013  0.5052886E+02  0.7816164E-02  0.1300439E+00
        -11   -1    0    0    0    0  0.00000000000E+00  0.00000000000E+00  0.45593999997E+02  0.45594000000E+02  0.51100000000E-03 0.  1.
         11   -1    0    0    0    0 -0.00000000000E+00 -0.00000000000E+00 -0.45593999997E+02  0.45594000000E+02  0.51100000000E-03 0. -1.
    9900012    2    1    2    0    0 -0.22796281015E+02  0.43333551678E+01 -0.33387379858E+02  0.50528861680E+02  0.30000005564E+02 0.  0.
        -12    1    1    2    0    0  0.22796281015E+02 -0.43333551678E+01  0.33387379858E+02  0.40659138320E+02  0.00000000000E+00 0.  1.
         11    1    3    3    0    0 -0.50757237676E+01  0.93974918392E+01 -0.54042023013E+01  0.11970013676E+02  0.51100000000E-03 0. -1.
        -11    1    3    3    0    0 -0.10127180493E+02  0.12634799255E+01 -0.26709493343E+02  0.28592887248E+02  0.51100000000E-03 0.  1.
        -12    1    3    3    0    0 -0.75933767542E+01 -0.63276165969E+01 -0.12736842138E+01  0.99659607567E+01  0.00000000000E+00 0.  1.
</event>
<event>
 7    1  0.5138511E-013  0.5052885E+02  0.7816164E-02  0.1300439E+00
        -11   -1    0    0    0    0  0.00000000000E+00  0.00000000000E+00  0.45593999997E+02  0.45594000000E+02  0.51100000000E-03 0.  1.
         11   -1    0    0    0    0 -0.00000000000E+00 -0.00000000000E+00 -0.45593999997E+02  0.45594000000E+02  0.51100000000E-03 0. -1.
    9900012    2    1    2    0    0  0.35003342632E+02 -0.20027772466E+02  0.51788694309E+01  0.50528851534E+02  0.29999974724E+02 0.  0.
        -12    1    1    2    0    0 -0.35003342632E+02  0.20027772466E+02 -0.51788694309E+01  0.40659148466E+02  0.00000000000E+00 0.  1.
         11    1    3    3    0    0  0.10235937256E+02 -0.50133256466E+00  0.63626725712E+01  0.12062725578E+02  0.51100000000E-03 0. -1.
        -11    1    3    3    0    0  0.46828870602E+01  0.16657444632E+01 -0.71082321868E+01  0.86735863930E+01  0.51100000000E-03 0.  1.
         12    1    3    3    0    0  0.20084518315E+02 -0.21192184365E+02  0.59244290465E+01  0.29792539563E+02  0.00000000000E+00 0. -1.
</event>
<event>
 7    1  0.5138511E-013  0.5052888E+02  0.7816164E-02  0.1300439E+00
        -11   -1    0    0    0    0  0.00000000000E+00  0.00000000000E+00  0.45593999997E+02  0.45594000000E+02  0.51100000000E-03 0.  1.
         11   -1    0    0    0    0 -0.00000000000E+00 -0.00000000000E+00 -0.45593999997E+02  0.45594000000E+02  0.51100000000E-03 0. -1.
    9900012    2    1    2    0    0 -0.43919806862E+01 -0.35315991516E+02 -0.19663558066E+02  0.50528877199E+02  0.30000052735E+02 0.  0.
        -12    1    1    2    0    0  0.43919806862E+01  0.35315991516E+02  0.19663558066E+02  0.40659122801E+02  0.00000000000E+00 0.  1.
         11    1    3    3    0    0 -0.12587739157E+01 -0.24556561147E+01  0.19584262499E+01  0.33838132871E+01  0.51100000000E-03 0.  1.
        -11    1    3    3    0    0 -0.29890311310E+01 -0.16602376408E+02  0.34926452897E+01  0.17227065358E+02  0.51100000000E-03 0. -1.
         12    1    3    3    0    0 -0.14417563945E+00 -0.16257958994E+02 -0.25114629606E+02  0.29917998554E+02  0.00000000000E+00 0. -1.
</event>
<event>
 7    1  0.5138511E-013  0.5052885E+02  0.7816164E-02  0.1300439E+00
        -11   -1    0    0    0    0  0.00000000000E+00  0.00000000000E+00  0.45593999997E+02  0.45594000000E+02  0.51100000000E-03 0.  1.
         11   -1    0    0    0    0 -0.00000000000E+00 -0.00000000000E+00 -0.45593999997E+02  0.45594000000E+02  0.51100000000E-03 0. -1.
    9900012    2    1    2    0    0 -0.15087762293E+02 -0.21653003147E+02 -0.30930141501E+02  0.50528846424E+02  0.29999959189E+02 0.  0.
        -12    1    1    2    0    0  0.15087762293E+02  0.21653003147E+02  0.30930141501E+02  0.40659153576E+02  0.00000000000E+00 0.  1.
         11    1    3    3    0    0 -0.10424281349E+02 -0.99301305296E+01 -0.10824854120E+02  0.18012512344E+02  0.51100000000E-03 0. -1.
        -11    1    3    3    0    0 -0.40209287056E+01 -0.15045823591E+02 -0.40275171541E+01  0.16086191901E+02  0.51100000000E-03 0.  1.
        -12    1    3    3    0    0 -0.64255223867E+00  0.33229509733E+01 -0.16077770226E+02  0.16430142178E+02  0.00000000000E+00 0.  1.
</event>
<event>
 7    1  0.5138511E-013  0.5052885E+02  0.7816164E-02  0.1300439E+00
        -11   -1    0    0    0    0  0.00000000000E+00  0.00000000000E+00  0.45593999997E+02  0.45594000000E+02  0.51100000000E-03 0.  1.
         11   -1    0    0    0    0 -0.00000000000E+00 -0.00000000000E+00 -0.45593999997E+02  0.45594000000E+02  0.51100000000E-03 0. -1.
    9900012    2    1    2    0    0 -0.49957766721E+01 -0.40306084169E+02  0.19047005058E+01  0.50528854785E+02  0.29999984603E+02 0.  0.
        -12    1    1    2    0    0  0.49957766721E+01  0.40306084169E+02 -0.19047005058E+01  0.40659145215E+02  0.00000000000E+00 0.  1.
         11    1    3    3    0    0 -0.61664779941E+01  0.68013233203E-02  0.33803627572E+01  0.70322364679E+01  0.51100000000E-03 0. -1.
        -11    1    3    3    0    0 -0.72990239051E+01 -0.13687417216E+02  0.96606763933E-01  0.15512268472E+02  0.51100000000E-03 0.  1.
        -12    1    3    3    0    0  0.84697252271E+01 -0.26625468276E+02 -0.15722690153E+01  0.27984349844E+02  0.00000000000E+00 0.  1.
</event>
<event>
 7    1  0.5138511E-013  0.5052886E+02  0.7816164E-02  0.1300439E+00
        -11   -1    0    0    0    0  0.00000000000E+00  0.00000000000E+00  0.45593999997E+02  0.45594000000E+02  0.51100000000E-03 0.  1.
         11   -1    0    0    0    0 -0.00000000000E+00 -0.00000000000E+00 -0.45593999997E+02  0.45594000000E+02  0.51100000000E-03 0. -1.
    9900012    2    1    2    0    0  0.69184757623E+01  0.13034224161E+02 -0.37886799555E+02  0.50528857278E+02  0.29999992183E+02 0.  0.
        -12    1    1    2    0    0 -0.69184757623E+01 -0.13034224161E+02  0.37886799555E+02  0.40659142722E+02  0.00000000000E+00 0.  1.
         11    1    3    3    0    0  0.15560804761E+02  0.67604389891E+01 -0.21948885810E+02  0.27741589152E+02  0.51100000000E-03 0. -1.
        -11    1    3    3    0    0  0.14299564664E+01 -0.41028324584E+00  0.11328227483E+01  0.18698650961E+01  0.51100000000E-03 0.  1.
        -12    1    3    3    0    0 -0.10072285465E+02  0.66840684174E+01 -0.17070736494E+02  0.20917403030E+02  0.00000000000E+00 0.  1.
</event>
<event>
 7    1  0.5138511E-013  0.5052886E+02  0.7816164E-02  0.1300439E+00
        -11   -1    0    0    0    0  0.00000000000E+00  0.00000000000E+00  0.45593999997E+02  0.45594000000E+02  0.51100000000E-03 0.  1.
         11   -1    0    0    0    0 -0.00000000000E+00 -0.00000000000E+00 -0.45593999997E+02  0.45594000000E+02  0.51100000000E-03 0. -1.
    9900012    2    1    2    0    0 -0.34449044582E+02  0.20549622074E+02  0.66439513345E+01  0.50528859216E+02  0.29999998072E+02 0.  0.
        -12    1    1    2    0    0  0.34449044582E+02 -0.20549622074E+02 -0.66439513345E+01  0.40659140784E+02  0.00000000000E+00 0.  1.
         11    1    3    3    0    0 -0.16540166172E+02  0.82429382058E+01  0.35861785777E+01  0.18825084443E+02  0.51100000000E-03 0. -1.
        -11    1    3    3    0    0 -0.12296978769E+02  0.92406081854E+01 -0.91677470223E+01  0.17906761633E+02  0.51100000000E-03 0.  1.
        -12    1    3    3    0    0 -0.56118996417E+01  0.30660756825E+01  0.12225519779E+02  0.13797013139E+02  0.00000000000E+00 0.  1.
</event>
<event>
 7    1  0.5138511E-013  0.5052886E+02  0.7816164E-02  0.1300439E+00
        -11   -1    0    0    0    0  0.00000000000E+00  0.00000000000E+00  0.45593999997E+02  0.45594000000E+02  0.51100000000E-03 0.  1.
         11   -1    0    0    0    0 -0.00000000000E+00 -0.00000000000E+00 -0.45593999997E+02  0.45594000000E+02  0.51100000000E-03 0. -1.
    9900012    2    1    2    0    0 -0.21858476307E+02 -0.17426509369E+02 -0.29524385106E+02  0.50528861653E+02  0.30000005480E+02 0.  0.
        -12    1    1    2    0    0  0.21858476307E+02  0.17426509369E+02  0.29524385106E+02  0.40659138347E+02  0.00000000000E+00 0.  1.
         11    1    3    3    0    0 -0.21341902387E+02 -0.12293829708E+02 -0.34092486713E+02  0.42058443824E+02  0.51100000000E-03 0. -1.
        -11    1    3    3    0    0 -0.11063288572E+01  0.15476171987E+00 -0.40455523187E+00  0.11880992917E+01  0.51100000000E-03 0.  1.
         12    1    3    3    0    0  0.58975493747E+00 -0.52874413801E+01  0.49726568385E+01  0.72823185365E+01  0.00000000000E+00 0. -1.
</event>
<event>
 7    1  0.5138511E-013  0.5052886E+02  0.7816164E-02  0.1300439E+00
        -11   -1    0    0    0    0  0.00000000000E+00  0.00000000000E+00  0.45593999997E+02  0.45594000000E+02  0.51100000000E-03 0. -1.
         11   -1    0    0    0    0 -0.00000000000E+00 -0.00000000000E+00 -0.45593999997E+02  0.45594000000E+02  0.51100000000E-03 0.  1.
    9900012    2    1    2    0    0 -0.20422207302E+02  0.15934611798E+02  0.31339862782E+02  0.50528863223E+02  0.30000010254E+02 0.  0.
        -12    1    1    2    0    0  0.20422207302E+02 -0.15934611798E+02 -0.31339862782E+02  0.40659136777E+02  0.00000000000E+00 0.  1.
         11    1    3    3    0    0 -0.38737852236E+01 -0.25213440975E+01  0.58957956143E+00  0.46595055893E+01  0.51100000000E-03 0. -1.
        -11    1    3    3    0    0  0.48387774774E+01 -0.38033185853E+00  0.81943413303E+01  0.95239513804E+01  0.51100000000E-03 0.  1.
         12    1    3    3    0    0 -0.21387199556E+02  0.18836287754E+02  0.22555941890E+02  0.36345406254E+02  0.00000000000E+00 0. -1.
</event>
<event>
 7    1  0.5138511E-013  0.5052886E+02  0.7816164E-02  0.1300439E+00
        -11   -1    0    0    0    0  0.00000000000E+00  0.00000000000E+00  0.45593999997E+02  0.45594000000E+02  0.51100000000E-03 0.  1.
         11   -1    0    0    0    0 -0.00000000000E+00 -0.00000000000E+00 -0.45593999997E+02  0.45594000000E+02  0.51100000000E-03 0. -1.
    9900012    2    1    2    0    0 -0.15997578966E+02  0.21111057230E+02 -0.30847473857E+02  0.50528856951E+02  0.29999991188E+02 0.  0.
        -12    1    1    2    0    0  0.15997578966E+02 -0.21111057230E+02  0.30847473857E+02  0.40659143049E+02  0.00000000000E+00 0.  1.
         11    1    3    3    0    0 -0.51315318746E+01  0.13817467309E+02 -0.69267033869E+01  0.16286013701E+02  0.51100000000E-03 0. -1.
        -11    1    3    3    0    0 -0.14305195255E+02  0.55401591158E+01 -0.69551536552E+01  0.16843578507E+02  0.51100000000E-03 0.  1.
        -12    1    3    3    0    0  0.34391481633E+01  0.17534308054E+01 -0.16965616815E+02  0.17399264743E+02  0.00000000000E+00 0.  1.
</event>
<event>
 7    1  0.5138511E-013  0.5052885E+02  0.7816164E-02  0.1300439E+00
        -11   -1    0    0    0    0  0.00000000000E+00  0.00000000000E+00  0.45593999997E+02  0.45594000000E+02  0.51100000000E-03 0. -1.
         11   -1    0    0    0    0 -0.00000000000E+00 -0.00000000000E+00 -0.45593999997E+02  0.45594000000E+02  0.51100000000E-03 0.  1.
    9900012    2    1    2    0    0 -0.21000558666E+02  0.34737560394E+02  0.23333835603E+01  0.50528852871E+02  0.29999978787E+02 0.  0.
        -12    1    1    2    0    0  0.21000558666E+02 -0.34737560394E+02 -0.23333835603E+01  0.40659147129E+02  0.00000000000E+00 0.  1.
         11    1    3    3    0    0 -0.70106160738E+01  0.15655850054E+02  0.12608544634E+02  0.21289193895E+02  0.51100000000E-03 0. -1.
        -11    1    3    3    0    0  0.14446309250E+01  0.78525990078E+01 -0.10933197571E+01  0.80588844166E+01  0.51100000000E-03 0.  1.
        -12    1    3    3    0    0 -0.15434573517E+02  0.11229111332E+02 -0.91818413170E+01  0.21180774559E+02  0.00000000000E+00 0.  1.
</event>
<event>
 7    1  0.5138511E-013  0.5052886E+02  0.7816164E-02  0.1300439E+00
        -11   -1    0    0    0    0  0.00000000000E+00  0.00000000000E+00  0.45593999997E+02  0.45594000000E+02  0.51100000000E-03 0.  1.
         11   -1    0    0    0    0 -0.00000000000E+00 -0.00000000000E+00 -0.45593999997E+02  0.45594000000E+02  0.51100000000E-03 0. -1.
    9900012    2    1    2    0    0 -0.33687848253E+00 -0.14399036856E+02 -0.38022624365E+02  0.50528859415E+02  0.29999998678E+02 0.  0.
        -12    1    1    2    0    0  0.33687848253E+00  0.14399036856E+02  0.38022624365E+02  0.40659140585E+02  0.00000000000E+00 0.  1.
         11    1    3    3    0    0 -0.11099057985E+02  0.11517866745E+01 -0.96347441699E+01  0.14742591230E+02  0.51100000000E-03 0. -1.
        -11    1    3    3    0    0  0.69732784741E+01 -0.44440638143E+01 -0.51179516692E+01  0.97246977029E+01  0.51100000000E-03 0.  1.
        -12    1    3    3    0    0  0.37889010282E+01 -0.11106759716E+02 -0.23269928526E+02  0.26061570482E+02  0.00000000000E+00 0.  1.
</event>
<event>
 7    1  0.5138511E-013  0.5052886E+02  0.7816164E-02  0.1300439E+00
        -11   -1    0    0    0    0  0.00000000000E+00  0.00000000000E+00  0.45593999997E+02  0.45594000000E+02  0.51100000000E-03 0.  1.
         11   -1    0    0    0    0 -0.00000000000E+00 -0.00000000000E+00 -0.45593999997E+02  0.45594000000E+02  0.51100000000E-03 0. -1.
    9900012    2    1    2    0    0  0.30924183033E+02 -0.18130690720E+01 -0.26335774428E+02  0.50528864121E+02  0.30000012982E+02 0.  0.
        -12    1    1    2    0    0 -0.30924183033E+02  0.18130690720E+01  0.26335774428E+02  0.40659135879E+02  0.00000000000E+00 0.  1.
         11    1    3    3    0    0  0.36665541478E+01  0.28063874604E+01  0.39442065449E+01  0.60725773298E+01  0.51100000000E-03 0. -1.
        -11    1    3    3    0    0  0.14782163230E+01 -0.14805241094E+00  0.22584040372E+01  0.27032262337E+01  0.51100000000E-03 0.  1.
         12    1    3    3    0    0  0.25779412562E+02 -0.44714041214E+01 -0.32538385010E+02  0.41753060557E+02  0.00000000000E+00 0. -1.
</event>
<event>
 7    1  0.5138511E-013  0.5052886E+02  0.7816164E-02  0.1300439E+00
        -11   -1    0    0    0    0  0.00000000000E+00  0.00000000000E+00  0.45593999997E+02  0.45594000000E+02  0.51100000000E-03 0. -1.
         11   -1    0    0    0    0 -0.00000000000E+00 -0.00000000000E+00 -0.45593999997E+02  0.45594000000E+02  0.51100000000E-03 0.  1.
    9900012    2    1    2    0    0  0.25333595351E+02 -0.63723216902E+01  0.31157155686E+02  0.50528857269E+02  0.29999992156E+02 0.  0.
        -12    1    1    2    0    0 -0.25333595351E+02  0.63723216902E+01 -0.31157155686E+02  0.40659142731E+02  0.00000000000E+00 0.  1.
         11    1    3    3    0    0  0.55878630665E+01 -0.42264038846E+01  0.53507576685E+01  0.88157422452E+01  0.51100000000E-03 0. -1.
        -11    1    3    3    0    0 -0.31464489317E+01 -0.34635940315E+01 -0.24833273089E+01  0.52975031174E+01  0.51100000000E-03 0.  1.
        -12    1    3    3    0    0  0.22892181216E+02  0.13176762259E+01  0.28289725327E+02  0.36415611907E+02  0.00000000000E+00 0.  1.
</event>
<event>
 7    1  0.5138511E-013  0.5052888E+02  0.7816164E-02  0.1300439E+00
        -11   -1    0    0    0    0  0.00000000000E+00  0.00000000000E+00  0.45593999997E+02  0.45594000000E+02  0.51100000000E-03 0.  1.
         11   -1    0    0    0    0 -0.00000000000E+00 -0.00000000000E+00 -0.45593999997E+02  0.45594000000E+02  0.51100000000E-03 0. -1.
    9900012    2    1    2    0    0 -0.10254006751E+02  0.38315080444E+02 -0.89428318021E+01  0.50528876983E+02  0.30000052076E+02 0.  0.
        -12    1    1    2    0    0  0.10254006751E+02 -0.38315080444E+02  0.89428318021E+01  0.40659123017E+02  0.00000000000E+00 0.  1.
         11    1    3    3    0    0 -0.46309930019E+00  0.18071980217E+02 -0.47307892985E+01  0.18686660953E+02  0.51100000000E-03 0. -1.
        -11    1    3    3    0    0 -0.88083302248E+01  0.21953407666E+02  0.34729221014E+01  0.23908157137E+02  0.51100000000E-03 0.  1.
         12    1    3    3    0    0 -0.98257722631E+00 -0.17103074385E+01 -0.76849646049E+01  0.79340588931E+01  0.00000000000E+00 0. -1.
</event>
<event>
 7    1  0.5138511E-013  0.5052885E+02  0.7816164E-02  0.1300439E+00
        -11   -1    0    0    0    0  0.00000000000E+00  0.00000000000E+00  0.45593999997E+02  0.45594000000E+02  0.51100000000E-03 0. -1.
         11   -1    0    0    0    0 -0.00000000000E+00 -0.00000000000E+00 -0.45593999997E+02  0.45594000000E+02  0.51100000000E-03 0.  1.
    9900012    2    1    2    0    0  0.37274877686E+02  0.14582654330E+02  0.71481589139E+01  0.50528849866E+02  0.29999969651E+02 0.  0.
        -12    1    1    2    0    0 -0.37274877686E+02 -0.14582654330E+02 -0.71481589139E+01  0.40659150134E+02  0.00000000000E+00 0.  1.
         11    1    3    3    0    0  0.18981944697E+02  0.11542491618E+02  0.47857358485E+01  0.22725461603E+02  0.51100000000E-03 0. -1.
        -11    1    3    3    0    0 -0.74162658055E+00  0.35530705809E+01  0.72821915432E+01  0.81366230385E+01  0.51100000000E-03 0.  1.
         12    1    3    3    0    0  0.19034559570E+02 -0.51290786877E+00 -0.49197684778E+01  0.19666765224E+02  0.00000000000E+00 0. -1.
</event>
<event>
 7    1  0.5138511E-013  0.5052886E+02  0.7816164E-02  0.1300439E+00
        -11   -1    0    0    0    0  0.00000000000E+00  0.00000000000E+00  0.45593999997E+02  0.45594000000E+02  0.51100000000E-03 0.  1.
         11   -1    0    0    0    0 -0.00000000000E+00 -0.00000000000E+00 -0.45593999997E+02  0.45594000000E+02  0.51100000000E-03 0. -1.
    9900012    2    1    2    0    0  0.10330645298E+02  0.59841443517E+01 -0.38866872812E+02  0.50528855664E+02  0.29999987277E+02 0.  0.
        -12    1    1    2    0    0 -0.10330645298E+02 -0.59841443517E+01  0.38866872812E+02  0.40659144336E+02  0.00000000000E+00 0.  1.
         11    1    3    3    0    0  0.95762077940E+01  0.63888746571E+01 -0.18186996735E+02  0.21524133562E+02  0.51100000000E-03 0. -1.
        -11    1    3    3    0    0  0.35228951658E+01 -0.43488817457E+01 -0.22989554818E+02  0.23661005764E+02  0.51100000000E-03 0.  1.
        -12    1    3    3    0    0 -0.27684576614E+01  0.39441514402E+01  0.23096787412E+01  0.53437163373E+01  0.00000000000E+00 0.  1.
</event>
<event>
 7    1  0.5138511E-013  0.5052885E+02  0.7816164E-02  0.1300439E+00
        -11   -1    0    0    0    0  0.00000000000E+00  0.00000000000E+00  0.45593999997E+02  0.45594000000E+02  0.51100000000E-03 0.  1.
         11   -1    0    0    0    0 -0.00000000000E+00 -0.00000000000E+00 -0.45593999997E+02  0.45594000000E+02  0.51100000000E-03 0. -1.
    9900012    2    1    2    0    0  0.64202332179E+01  0.30045110094E+02 -0.26631523928E+02  0.50528854634E+02  0.29999984146E+02 0.  0.
        -12    1    1    2    0    0 -0.64202332179E+01 -0.30045110094E+02  0.26631523928E+02  0.40659145366E+02  0.00000000000E+00 0.  1.
         11    1    3    3    0    0  0.46786673710E+01  0.56019846011E+01  0.18655346818E+01  0.75334175345E+01  0.51100000000E-03 0.  1.
        -11    1    3    3    0    0 -0.12488432695E+01  0.26379092524E+02 -0.29193170038E+02  0.39365686950E+02  0.51100000000E-03 0. -1.
         12    1    3    3    0    0  0.29904091163E+01 -0.19359670310E+01  0.69611142841E+00  0.36297501497E+01  0.00000000000E+00 0. -1.
</event>
<event>
 7    1  0.5138511E-013  0.5052884E+02  0.7816164E-02  0.1300439E+00
        -11   -1    0    0    0    0  0.00000000000E+00  0.00000000000E+00  0.45593999997E+02  0.45594000000E+02  0.51100000000E-03 0.  1.
         11   -1    0    0    0    0 -0.00000000000E+00 -0.00000000000E+00 -0.45593999997E+02  0.45594000000E+02  0.51100000000E-03 0. -1.
    9900012    2    1    2    0    0 -0.12901401000E+02  0.91961276573E+01 -0.37445323286E+02  0.50528841774E+02  0.29999945057E+02 0.  0.
        -12    1    1    2    0    0  0.12901401000E+02 -0.91961276573E+01  0.37445323286E+02  0.40659158226E+02  0.00000000000E+00 0.  1.
         11    1    3    3    0    0  0.29204367659E+01  0.20064482937E+01 -0.32090928265E+01  0.47804877041E+01  0.51100000000E-03 0. -1.
        -11    1    3    3    0    0 -0.86784134505E+01  0.39392411770E+01  0.10606889256E+01  0.95894495319E+01  0.51100000000E-03 0.  1.
         12    1    3    3    0    0 -0.71434243149E+01  0.32504381866E+01 -0.35296919385E+02  0.36158904538E+02  0.00000000000E+00 0. -1.
</event>
<event>
 7    1  0.5138511E-013  0.5052886E+02  0.7816164E-02  0.1300439E+00
        -11   -1    0    0    0    0  0.00000000000E+00  0.00000000000E+00  0.45593999997E+02  0.45594000000E+02  0.51100000000E-03 0.  1.
         11   -1    0    0    0    0 -0.00000000000E+00 -0.00000000000E+00 -0.45593999997E+02  0.45594000000E+02  0.51100000000E-03 0. -1.
    9900012    2    1    2    0    0 -0.34911225308E+02 -0.12544605566E+02 -0.16643468959E+02  0.50528857851E+02  0.29999993925E+02 0.  0.
        -12    1    1    2    0    0  0.34911225308E+02  0.12544605566E+02  0.16643468959E+02  0.40659142149E+02  0.00000000000E+00 0.  1.
         11    1    3    3    0    0 -0.77764809190E+01  0.20655556476E+01 -0.12482329547E+02  0.14850883031E+02  0.51100000000E-03 0. -1.
        -11    1    3    3    0    0 -0.15132680631E+01  0.26275132603E+01  0.26824385778E+01  0.40483679611E+01  0.51100000000E-03 0.  1.
        -12    1    3    3    0    0 -0.25621476326E+02 -0.17237674474E+02 -0.68435779892E+01  0.31629606859E+02  0.00000000000E+00 0.  1.
</event>
<event>
 7    1  0.5138511E-013  0.5052886E+02  0.7816164E-02  0.1300439E+00
        -11   -1    0    0    0    0  0.00000000000E+00  0.00000000000E+00  0.45593999997E+02  0.45594000000E+02  0.51100000000E-03 0. -1.
         11   -1    0    0    0    0 -0.00000000000E+00 -0.00000000000E+00 -0.45593999997E+02  0.45594000000E+02  0.51100000000E-03 0.  1.
    9900012    2    1    2    0    0  0.10429946247E+02  0.29779906771E+02  0.25642525421E+02  0.50528859134E+02  0.29999997824E+02 0.  0.
        -12    1    1    2    0    0 -0.10429946247E+02 -0.29779906771E+02 -0.25642525421E+02  0.40659140866E+02  0.00000000000E+00 0.  1.
         11    1    3    3    0    0 -0.47392540436E+01  0.20990689375E+01  0.18126894514E+01  0.54911258046E+01  0.51100000000E-03 0.  1.
        -11    1    3    3    0    0  0.98870687294E+01  0.37341877576E+00  0.31664008885E+01  0.10388438982E+02  0.51100000000E-03 0. -1.
         12    1    3    3    0    0  0.52821315608E+01  0.27307419058E+02  0.20663435081E+02  0.34649294347E+02  0.00000000000E+00 0. -1.
</event>
<event>
 7    1  0.5138511E-013  0.5052886E+02  0.7816164E-02  0.1300439E+00
        -11   -1    0    0    0    0  0.00000000000E+00  0.00000000000E+00  0.45593999997E+02  0.45594000000E+02  0.51100000000E-03 0. -1.
         11   -1    0    0    0    0 -0.00000000000E+00 -0.00000000000E+00 -0.45593999997E+02  0.45594000000E+02  0.51100000000E-03 0.  1.
    9900012    2    1    2    0    0 -0.22608052917E+02  0.13213322588E+02  0.31103855803E+02  0.50528858391E+02  0.29999995566E+02 0.  0.
        -12    1    1    2    0    0  0.22608052917E+02 -0.13213322588E+02 -0.31103855803E+02  0.40659141609E+02  0.00000000000E+00 0.  1.
         11    1    3    3    0    0 -0.90731916048E+01 -0.65845275117E+01  0.53532044393E+01  0.12423188257E+02  0.51100000000E-03 0.  1.
        -11    1    3    3    0    0 -0.47805232916E+00  0.30878743589E+01  0.12980461713E+02  0.13351250452E+02  0.51100000000E-03 0. -1.
        -12    1    3    3    0    0 -0.13056808983E+02  0.16709975741E+02  0.12770189651E+02  0.24754419682E+02  0.00000000000E+00 0.  1.
</event>
<event>
 7    1  0.5138511E-013  0.5052886E+02  0.7816164E-02  0.1300439E+00
        -11   -1    0    0    0    0  0.00000000000E+00  0.00000000000E+00  0.45593999997E+02  0.45594000000E+02  0.51100000000E-03 0.  1.
         11   -1    0    0    0    0 -0.00000000000E+00 -0.00000000000E+00 -0.45593999997E+02  0.45594000000E+02  0.51100000000E-03 0. -1.
    9900012    2    1    2    0    0 -0.18424106501E+01 -0.36336204970E+02 -0.18150792828E+02  0.50528861434E+02  0.30000004815E+02 0.  0.
        -12    1    1    2    0    0  0.18424106501E+01  0.36336204970E+02  0.18150792828E+02  0.40659138566E+02  0.00000000000E+00 0.  1.
         11    1    3    3    0    0 -0.71123599070E+01 -0.15871299490E+01 -0.45827551096E+01  0.86085010064E+01  0.51100000000E-03 0. -1.
        -11    1    3    3    0    0  0.54163460534E+01 -0.94839740284E+01  0.34550149238E+01  0.11455116600E+02  0.51100000000E-03 0.  1.
        -12    1    3    3    0    0 -0.14639679648E+00 -0.25265100992E+02 -0.17023052643E+02  0.30465243827E+02  0.00000000000E+00 0.  1.
</event>
<event>
 7    1  0.5138511E-013  0.5052886E+02  0.7816164E-02  0.1300439E+00
        -11   -1    0    0    0    0  0.00000000000E+00  0.00000000000E+00  0.45593999997E+02  0.45594000000E+02  0.51100000000E-03 0.  1.
         11   -1    0    0    0    0 -0.00000000000E+00 -0.00000000000E+00 -0.45593999997E+02  0.45594000000E+02  0.51100000000E-03 0. -1.
    9900012    2    1    2    0    0  0.23151246749E+02 -0.28693108847E+02 -0.17143241734E+02  0.50528862546E+02  0.30000008196E+02 0.  0.
        -12    1    1    2    0    0 -0.23151246749E+02  0.28693108847E+02  0.17143241734E+02  0.40659137454E+02  0.00000000000E+00 0.  1.
         11    1    3    3    0    0 -0.23688657497E+01 -0.48498151890E+01  0.44562576208E-01  0.53976122862E+01  0.51100000000E-03 0. -1.
        -11    1    3    3    0    0  0.25615530823E+01 -0.86101637849E+01  0.45185011625E+01  0.10055512300E+02  0.51100000000E-03 0.  1.
         12    1    3    3    0    0  0.22958559416E+02 -0.15233129873E+02 -0.21706305472E+02  0.35075737960E+02  0.00000000000E+00 0. -1.
</event>
<event>
 7    1  0.5138511E-013  0.5052886E+02  0.7816164E-02  0.1300439E+00
        -11   -1    0    0    0    0  0.00000000000E+00  0.00000000000E+00  0.45593999997E+02  0.45594000000E+02  0.51100000000E-03 0. -1.
         11   -1    0    0    0    0 -0.00000000000E+00 -0.00000000000E+00 -0.45593999997E+02  0.45594000000E+02  0.51100000000E-03 0.  1.
    9900012    2    1    2    0    0 -0.21531718116E+02 -0.60671359203E+01  0.33952030087E+02  0.50528863630E+02  0.30000011491E+02 0.  0.
        -12    1    1    2    0    0  0.21531718116E+02  0.60671359203E+01 -0.33952030087E+02  0.40659136370E+02  0.00000000000E+00 0.  1.
         11    1    3    3    0    0 -0.18490371646E+02 -0.88031962312E+01  0.27321472170E+02  0.34144588873E+02  0.51100000000E-03 0. -1.
        -11    1    3    3    0    0 -0.79627187535E+01  0.45568694634E+01  0.62944890678E+01  0.11126119815E+02  0.51100000000E-03 0.  1.
         12    1    3    3    0    0  0.49213722836E+01 -0.18208091526E+01  0.33606884890E+00  0.52581549421E+01  0.00000000000E+00 0. -1.
</event>
<event>
 7    1  0.5138511E-013  0.5052886E+02  0.7816164E-02  0.1300439E+00
        -11   -1    0    0    0    0  0.00000000000E+00  0.00000000000E+00  0.45593999997E+02  0.45594000000E+02  0.51100000000E-03 0.  1.
         11   -1    0    0    0    0 -0.00000000000E+00 -0.00000000000E+00 -0.45593999997E+02  0.45594000000E+02  0.51100000000E-03 0. -1.
    9900012    2    1    2    0    0 -0.22470381412E+02  0.28663987292E+02 -0.18072728731E+02  0.50528859182E+02  0.29999997970E+02 0.  0.
        -12    1    1    2    0    0  0.22470381412E+02 -0.28663987292E+02  0.18072728731E+02  0.40659140818E+02  0.00000000000E+00 0.  1.
         11    1    3    3    0    0 -0.13360956643E+02  0.24594314022E+02 -0.17251994552E+02  0.32878971409E+02  0.51100000000E-03 0. -1.
        -11    1    3    3    0    0 -0.11063214359E+02  0.68710037184E+01 -0.32935870094E+01  0.13433284025E+02  0.51100000000E-03 0.  1.
         12    1    3    3    0    0  0.19537895899E+01 -0.28013304490E+01  0.24728528304E+01  0.42166037479E+01  0.00000000000E+00 0. -1.
</event>
<event>
 7    1  0.6967867E-013  0.5052886E+02  0.7816164E-02  0.1300439E+00
        -11   -1    0    0    0    0  0.00000000000E+00  0.00000000000E+00  0.45593999997E+02  0.45594000000E+02  0.51100000000E-03 0.  1.
         11   -1    0    0    0    0 -0.00000000000E+00 -0.00000000000E+00 -0.45593999997E+02  0.45594000000E+02  0.51100000000E-03 0. -1.
    9900012    2    1    2    0    0  0.91404714627E+01 -0.27396794083E+02 -0.28618748550E+02  0.50528864333E+02  0.30000013626E+02 0.  0.
        -12    1    1    2    0    0 -0.91404714627E+01  0.27396794083E+02  0.28618748550E+02  0.40659135667E+02  0.00000000000E+00 0.  1.
         11    1    3    3    0    0  0.73305665490E+00 -0.18910936613E+02 -0.15411749663E+02  0.24406616390E+02  0.51100000000E-03 0. -1.
        -11    1    3    3    0    0  0.10832081024E+02 -0.76141186047E+01 -0.16993213127E+02  0.21542471401E+02  0.51100000000E-03 0.  1.
        -12    1    3    3    0    0 -0.24246662160E+01 -0.87173886524E+00  0.37862142396E+01  0.45797765421E+01  0.00000000000E+00 0.  1.
</event>
<event>
 7    1  0.5138511E-013  0.5052885E+02  0.7816164E-02  0.1300439E+00
        -11   -1    0    0    0    0  0.00000000000E+00  0.00000000000E+00  0.45593999997E+02  0.45594000000E+02  0.51100000000E-03 0.  1.
         11   -1    0    0    0    0 -0.00000000000E+00 -0.00000000000E+00 -0.45593999997E+02  0.45594000000E+02  0.51100000000E-03 0. -1.
    9900012    2    1    2    0    0 -0.60045639194E+01  0.40109419456E+02 -0.28889568664E+01  0.50528851107E+02  0.29999973424E+02 0.  0.
        -12    1    1    2    0    0  0.60045639194E+01 -0.40109419456E+02  0.28889568664E+01  0.40659148893E+02  0.00000000000E+00 0.  1.
         11    1    3    3    0    0 -0.12589980775E+02  0.87926357448E+01  0.21645141133E+00  0.15357894085E+02  0.51100000000E-03 0. -1.
        -11    1    3    3    0    0  0.21221813875E+01  0.70675933187E+00 -0.35942224411E+01  0.42333908173E+01  0.51100000000E-03 0.  1.
         12    1    3    3    0    0  0.44632354684E+01  0.30610024379E+02  0.48881416333E+00  0.30937566204E+02  0.00000000000E+00 0. -1.
</event>
<event>
 7    1  0.5138511E-013  0.5052886E+02  0.7816164E-02  0.1300439E+00
        -11   -1    0    0    0    0  0.00000000000E+00  0.00000000000E+00  0.45593999997E+02  0.45594000000E+02  0.51100000000E-03 0.  1.
         11   -1    0    0    0    0 -0.00000000000E+00 -0.00000000000E+00 -0.45593999997E+02  0.45594000000E+02  0.51100000000E-03 0. -1.
    9900012    2    1    2    0    0 -0.34465265067E+02  0.21423206225E+02 -0.25213972688E+01  0.50528859511E+02  0.29999998970E+02 0.  0.
        -12    1    1    2    0    0  0.34465265067E+02 -0.21423206225E+02  0.25213972688E+01  0.40659140489E+02  0.00000000000E+00 0.  1.
         11    1    3    3    0    0 -0.10970866898E+01 -0.15296704158E+01 -0.39066263924E+01  0.43364986818E+01  0.51100000000E-03 0. -1.
        -11    1    3    3    0    0 -0.27124319421E+02  0.25531625376E+02 -0.41203561157E+01  0.37477592414E+02  0.51100000000E-03 0.  1.
         12    1    3    3    0    0 -0.62438589565E+01 -0.25787487351E+01  0.55055852393E+01  0.87147684155E+01  0.00000000000E+00 0. -1.
</event>
<event>
 7    1  0.5138511E-013  0.5052886E+02  0.7816164E-02  0.1300439E+00
        -11   -1    0    0    0    0  0.00000000000E+00  0.00000000000E+00  0.45593999997E+02  0.45594000000E+02  0.51100000000E-03 0.  1.
         11   -1    0    0    0    0 -0.00000000000E+00 -0.00000000000E+00 -0.45593999997E+02  0.45594000000E+02  0.51100000000E-03 0. -1.
    9900012    2    1    2    0    0  0.80767474495E+01  0.29903016814E+02 -0.26338967294E+02  0.50528862502E+02  0.30000008062E+02 0.  0.
        -12    1    1    2    0    0 -0.80767474495E+01 -0.29903016814E+02  0.26338967294E+02  0.40659137498E+02  0.00000000000E+00 0.  1.
         11    1    3    3    0    0 -0.43669049583E+01  0.17092466491E+02 -0.98775697755E+01  0.20218522562E+02  0.51100000000E-03 0. -1.
        -11    1    3    3    0    0  0.20867163986E+01  0.71111599263E+01  0.26227594969E+01  0.78614151694E+01  0.51100000000E-03 0.  1.
        -12    1    3    3    0    0  0.10356936009E+02  0.56993903966E+01 -0.19084157015E+02  0.22448924771E+02  0.00000000000E+00 0.  1.
</event>
<event>
 7    1  0.5138511E-013  0.5052885E+02  0.7816164E-02  0.1300439E+00
        -11   -1    0    0    0    0  0.00000000000E+00  0.00000000000E+00  0.45593999997E+02  0.45594000000E+02  0.51100000000E-03 0.  1.
         11   -1    0    0    0    0 -0.00000000000E+00 -0.00000000000E+00 -0.45593999997E+02  0.45594000000E+02  0.51100000000E-03 0. -1.
    9900012    2    1    2    0    0 -0.93109027715E+00  0.29929312028E+02 -0.27505190928E+02  0.50528853728E+02  0.29999981392E+02 0.  0.
        -12    1    1    2    0    0  0.93109027715E+00 -0.29929312028E+02  0.27505190928E+02  0.40659146272E+02  0.00000000000E+00 0.  1.
         11    1    3    3    0    0  0.32532716915E+01  0.14591610683E+02 -0.24870941914E+01  0.15155346146E+02  0.51100000000E-03 0. -1.
        -11    1    3    3    0    0 -0.17262657261E+01 -0.77756913671E+00  0.26519662824E+01  0.32584555458E+01  0.51100000000E-03 0.  1.
        -12    1    3    3    0    0 -0.24580962425E+01  0.16115270482E+02 -0.27670063019E+02  0.32115052037E+02  0.00000000000E+00 0.  1.
</event>
<event>
 7    1  0.5138511E-013  0.5052887E+02  0.7816164E-02  0.1300439E+00
        -11   -1    0    0    0    0  0.00000000000E+00  0.00000000000E+00  0.45593999997E+02  0.45594000000E+02  0.51100000000E-03 0.  1.
         11   -1    0    0    0    0 -0.00000000000E+00 -0.00000000000E+00 -0.45593999997E+02  0.45594000000E+02  0.51100000000E-03 0. -1.
    9900012    2    1    2    0    0 -0.78303212263E+01 -0.74869953687E+01 -0.39189234484E+02  0.50528866591E+02  0.30000020490E+02 0.  0.
        -12    1    1    2    0    0  0.78303212263E+01  0.74869953687E+01  0.39189234484E+02  0.40659133409E+02  0.00000000000E+00 0.  1.
         11    1    3    3    0    0 -0.73547565977E+01 -0.99696554629E+01 -0.11771152570E+02  0.17089368266E+02  0.51100000000E-03 0.  1.
        -11    1    3    3    0    0 -0.10902742714E+01 -0.22403755597E+01 -0.28455980773E+02  0.28564852925E+02  0.51100000000E-03 0. -1.
        -12    1    3    3    0    0  0.61470964286E+00  0.47230356539E+01  0.10378988587E+01  0.48746453998E+01  0.00000000000E+00 0.  1.
</event>
<event>
 7    1  0.5138511E-013  0.5052887E+02  0.7816164E-02  0.1300439E+00
        -11   -1    0    0    0    0  0.00000000000E+00  0.00000000000E+00  0.45593999997E+02  0.45594000000E+02  0.51100000000E-03 0. -1.
         11   -1    0    0    0    0 -0.00000000000E+00 -0.00000000000E+00 -0.45593999997E+02  0.45594000000E+02  0.51100000000E-03 0.  1.
    9900012    2    1    2    0    0 -0.11458601759E+02 -0.23846599602E+02  0.30874021839E+02  0.50528867061E+02  0.30000021918E+02 0.  0.
        -12    1    1    2    0    0  0.11458601759E+02  0.23846599602E+02 -0.30874021839E+02  0.40659132939E+02  0.00000000000E+00 0.  1.
         11    1    3    3    0    0 -0.72491331944E+01 -0.17093648221E+02  0.17868717543E+02  0.25768853456E+02  0.51100000000E-03 0. -1.
        -11    1    3    3    0    0 -0.93235311761E+01 -0.55840663684E+01  0.14270657766E+00  0.10868780807E+02  0.51100000000E-03 0.  1.
         12    1    3    3    0    0  0.51140626114E+01 -0.11688850124E+01  0.12862597719E+02  0.13891232798E+02  0.00000000000E+00 0. -1.
</event>
<event>
 7    1  0.5138511E-013  0.5052886E+02  0.7816164E-02  0.1300439E+00
        -11   -1    0    0    0    0  0.00000000000E+00  0.00000000000E+00  0.45593999997E+02  0.45594000000E+02  0.51100000000E-03 0.  1.
         11   -1    0    0    0    0 -0.00000000000E+00 -0.00000000000E+00 -0.45593999997E+02  0.45594000000E+02  0.51100000000E-03 0. -1.
    9900012    2    1    2    0    0 -0.34724070238E+02  0.15879185785E+02 -0.13973407395E+02  0.50528859461E+02  0.29999998818E+02 0.  0.
        -12    1    1    2    0    0  0.34724070238E+02 -0.15879185785E+02  0.13973407395E+02  0.40659140539E+02  0.00000000000E+00 0.  1.
         11    1    3    3    0    0 -0.10266115035E+02  0.82073645271E+01 -0.14735775103E+02  0.19745810152E+02  0.51100000000E-03 0. -1.
        -11    1    3    3    0    0  0.26510889063E+01  0.32255701736E+00  0.34091451099E+00  0.26923109746E+01  0.51100000000E-03 0.  1.
         12    1    3    3    0    0 -0.27109044109E+02  0.73492642407E+01  0.42145319684E+00  0.28090738335E+02  0.00000000000E+00 0. -1.
</event>
<event>
 7    1  0.5138511E-013  0.5052887E+02  0.7816164E-02  0.1300439E+00
        -11   -1    0    0    0    0  0.00000000000E+00  0.00000000000E+00  0.45593999997E+02  0.45594000000E+02  0.51100000000E-03 0.  1.
         11   -1    0    0    0    0 -0.00000000000E+00 -0.00000000000E+00 -0.45593999997E+02  0.45594000000E+02  0.51100000000E-03 0. -1.
    9900012    2    1    2    0    0  0.11564852706E+02 -0.38541844342E+02 -0.58262533433E+01  0.50528870504E+02  0.30000032383E+02 0.  0.
        -12    1    1    2    0    0 -0.11564852706E+02  0.38541844342E+02  0.58262533433E+01  0.40659129496E+02  0.00000000000E+00 0.  1.
         11    1    3    3    0    0  0.12273865726E+02 -0.10693139487E+02 -0.10969106383E+02  0.19629373578E+02  0.51100000000E-03 0. -1.
        -11    1    3    3    0    0 -0.30172600207E+01 -0.48349314197E+01 -0.29219445806E+01  0.64045437198E+01  0.51100000000E-03 0.  1.
        -12    1    3    3    0    0  0.23082470009E+01 -0.23013773435E+02  0.80647976203E+01  0.24494953206E+02  0.00000000000E+00 0.  1.
</event>
<event>
 7    1  0.5138511E-013  0.5052883E+02  0.7816164E-02  0.1300439E+00
        -11   -1    0    0    0    0  0.00000000000E+00  0.00000000000E+00  0.45593999997E+02  0.45594000000E+02  0.51100000000E-03 0.  1.
         11   -1    0    0    0    0 -0.00000000000E+00 -0.00000000000E+00 -0.45593999997E+02  0.45594000000E+02  0.51100000000E-03 0. -1.
    9900012    2    1    2    0    0 -0.27026912139E+02 -0.17810480223E+02 -0.24606929100E+02  0.50528829506E+02  0.29999907766E+02 0.  0.
        -12    1    1    2    0    0  0.27026912139E+02  0.17810480223E+02  0.24606929100E+02  0.40659170494E+02  0.00000000000E+00 0.  1.
         11    1    3    3    0    0 -0.57385914498E+01 -0.12293212347E+01 -0.13548772721E+01  0.60231516011E+01  0.51100000000E-03 0.  1.
        -11    1    3    3    0    0  0.63964590064E+01 -0.32105340689E+01 -0.35394890848E+01  0.79843722403E+01  0.51100000000E-03 0. -1.
         12    1    3    3    0    0 -0.27684779696E+02 -0.13370624920E+02 -0.19712562743E+02  0.36521305664E+02  0.00000000000E+00 0. -1.
</event>
<event>
 7    1  0.5658033E-013  0.5052886E+02  0.7816164E-02  0.1300439E+00
        -11   -1    0    0    0    0  0.00000000000E+00  0.00000000000E+00  0.45593999997E+02  0.45594000000E+02  0.51100000000E-03 0. -1.
         11   -1    0    0    0    0 -0.00000000000E+00 -0.00000000000E+00 -0.45593999997E+02  0.45594000000E+02  0.51100000000E-03 0.  1.
    9900012    2    1    2    0    0  0.34859159969E+00 -0.37820531003E+02  0.14921522029E+02  0.50528857103E+02  0.29999991650E+02 0.  0.
        -12    1    1    2    0    0 -0.34859159969E+00  0.37820531003E+02 -0.14921522029E+02  0.40659142897E+02  0.00000000000E+00 0.  1.
         11    1    3    3    0    0  0.82195716692E+01 -0.19584772762E+02  0.11299017415E+02  0.24058106271E+02  0.51100000000E-03 0. -1.
        -11    1    3    3    0    0 -0.26470819481E+01 -0.12432750101E+01  0.76957874999E+01  0.82327347276E+01  0.51100000000E-03 0.  1.
        -12    1    3    3    0    0 -0.52238981214E+01 -0.16992483231E+02 -0.40732828855E+01  0.18238016104E+02  0.00000000000E+00 0.  1.
</event>
<event>
 7    1  0.5138511E-013  0.5052886E+02  0.7816164E-02  0.1300439E+00
        -11   -1    0    0    0    0  0.00000000000E+00  0.00000000000E+00  0.45593999997E+02  0.45594000000E+02  0.51100000000E-03 0.  1.
         11   -1    0    0    0    0 -0.00000000000E+00 -0.00000000000E+00 -0.45593999997E+02  0.45594000000E+02  0.51100000000E-03 0. -1.
    9900012    2    1    2    0    0  0.34324116429E+02 -0.16332893101E+01 -0.21733680881E+02  0.50528862192E+02  0.30000007120E+02 0.  0.
        -12    1    1    2    0    0 -0.34324116429E+02  0.16332893101E+01  0.21733680881E+02  0.40659137808E+02  0.00000000000E+00 0.  1.
         11    1    3    3    0    0  0.12571197227E-01  0.34739613499E+01 -0.11194347745E+02  0.11721006237E+02  0.51100000000E-03 0. -1.
        -11    1    3    3    0    0  0.21109682827E+01 -0.25495489613E+00 -0.54478590695E+01  0.58481071973E+01  0.51100000000E-03 0.  1.
         12    1    3    3    0    0  0.32200576949E+02 -0.48522957639E+01 -0.50914740662E+01  0.32959748758E+02  0.00000000000E+00 0. -1.
</event>
<event>
 7    1  0.5138511E-013  0.5052887E+02  0.7816164E-02  0.1300439E+00
        -11   -1    0    0    0    0  0.00000000000E+00  0.00000000000E+00  0.45593999997E+02  0.45594000000E+02  0.51100000000E-03 0. -1.
         11   -1    0    0    0    0 -0.00000000000E+00 -0.00000000000E+00 -0.45593999997E+02  0.45594000000E+02  0.51100000000E-03 0.  1.
    9900012    2    1    2    0    0  0.18950999182E+02  0.15999388352E+02  0.32218687688E+02  0.50528872686E+02  0.30000039017E+02 0.  0.
        -12    1    1    2    0    0 -0.18950999182E+02 -0.15999388352E+02 -0.32218687688E+02  0.40659127314E+02  0.00000000000E+00 0.  1.
         11    1    3    3    0    0  0.22713694623E+01  0.11386476512E+02  0.18880845781E+02  0.22165227368E+02  0.51100000000E-03 0. -1.
        -11    1    3    3    0    0  0.10599975927E+02 -0.14628007189E+01  0.16103526660E+02  0.19334498875E+02  0.51100000000E-03 0.  1.
         12    1    3    3    0    0  0.60796537922E+01  0.60757125588E+01 -0.27656847539E+01  0.90291464429E+01  0.00000000000E+00 0. -1.
</event>
<event>
 7    1  0.5658199E-013  0.5052886E+02  0.7816164E-02  0.1300439E+00
        -11   -1    0    0    0    0  0.00000000000E+00  0.00000000000E+00  0.45593999997E+02  0.45594000000E+02  0.51100000000E-03 0.  1.
         11   -1    0    0    0    0 -0.00000000000E+00 -0.00000000000E+00 -0.45593999997E+02  0.45594000000E+02  0.51100000000E-03 0. -1.
    9900012    2    1    2    0    0 -0.31571063472E+01 -0.32083640471E+02 -0.24775768603E+02  0.50528855688E+02  0.29999987349E+02 0.  0.
        -12    1    1    2    0    0  0.31571063472E+01  0.32083640471E+02  0.24775768603E+02  0.40659144312E+02  0.00000000000E+00 0.  1.
         11    1    3    3    0    0 -0.83585167540E+01 -0.21938611617E+02 -0.13263020977E+02  0.26964332139E+02  0.51100000000E-03 0. -1.
        -11    1    3    3    0    0  0.35319594496E+01 -0.66351819266E+01 -0.15970107375E+02  0.17650629071E+02  0.51100000000E-03 0.  1.
        -12    1    3    3    0    0  0.16694509573E+01 -0.35098469272E+01  0.44573597500E+01  0.59138944776E+01  0.00000000000E+00 0.  1.
</event>
<event>
 7    1  0.5138511E-013  0.5052886E+02  0.7816164E-02  0.1300439E+00
        -11   -1    0    0    0    0  0.00000000000E+00  0.00000000000E+00  0.45593999997E+02  0.45594000000E+02  0.51100000000E-03 0. -1.
         11   -1    0    0    0    0 -0.00000000000E+00 -0.00000000000E+00 -0.45593999997E+02  0.45594000000E+02  0.51100000000E-03 0.  1.
    9900012    2    1    2    0    0 -0.54712102857E+01  0.39122993137E+02  0.96240749304E+01  0.50528861393E+02  0.30000004690E+02 0.  0.
        -12    1    1    2    0    0  0.54712102857E+01 -0.39122993137E+02 -0.96240749304E+01  0.40659138607E+02  0.00000000000E+00 0.  1.
         11    1    3    3    0    0 -0.47602875459E+01  0.40153463179E-01 -0.16569773294E+01  0.50405876593E+01  0.51100000000E-03 0. -1.
        -11    1    3    3    0    0  0.14281102561E+01  0.17650717106E+02 -0.50999832581E+01  0.18428161676E+02  0.51100000000E-03 0.  1.
         12    1    3    3    0    0 -0.21390329959E+01  0.21432122568E+02  0.16381035518E+02  0.27060112057E+02  0.00000000000E+00 0. -1.
</event>
<event>
 7    1  0.5138511E-013  0.5052888E+02  0.7816164E-02  0.1300439E+00
        -11   -1    0    0    0    0  0.00000000000E+00  0.00000000000E+00  0.45593999997E+02  0.45594000000E+02  0.51100000000E-03 0. -1.
         11   -1    0    0    0    0 -0.00000000000E+00 -0.00000000000E+00 -0.45593999997E+02  0.45594000000E+02  0.51100000000E-03 0.  1.
    9900012    2    1    2    0    0 -0.22825405324E+02 -0.33249272996E+02 -0.51624672781E+01  0.50528876161E+02  0.30000049579E+02 0.  0.
        -12    1    1    2    0    0  0.22825405324E+02  0.33249272996E+02  0.51624672781E+01  0.40659123839E+02  0.00000000000E+00 0.  1.
         11    1    3    3    0    0 -0.35985471802E+01 -0.18399483950E+01 -0.89179616632E+01  0.97910669691E+01  0.51100000000E-03 0. -1.
        -11    1    3    3    0    0  0.18790342427E+01 -0.63357011292E+01  0.44313612213E+01  0.79566853035E+01  0.51100000000E-03 0.  1.
        -12    1    3    3    0    0 -0.21105892387E+02 -0.25073623471E+02 -0.67586683620E+00  0.32781123889E+02  0.00000000000E+00 0.  1.
</event>
<event>
 7    1  0.5138511E-013  0.5052886E+02  0.7816164E-02  0.1300439E+00
        -11   -1    0    0    0    0  0.00000000000E+00  0.00000000000E+00  0.45593999997E+02  0.45594000000E+02  0.51100000000E-03 0.  1.
         11   -1    0    0    0    0 -0.00000000000E+00 -0.00000000000E+00 -0.45593999997E+02  0.45594000000E+02  0.51100000000E-03 0. -1.
    9900012    2    1    2    0    0  0.32206984660E+02 -0.24310634613E+02 -0.49868311448E+01  0.50528864482E+02  0.30000014080E+02 0.  0.
        -12    1    1    2    0    0 -0.32206984660E+02  0.24310634613E+02  0.49868311448E+01  0.40659135518E+02  0.00000000000E+00 0.  1.
         11    1    3    3    0    0  0.13838048414E+02 -0.51110378222E+00 -0.24625854242E+01  0.14064748068E+02  0.51100000000E-03 0. -1.
        -11    1    3    3    0    0  0.20851762151E+02 -0.15794312970E+02  0.31431323736E+01  0.26346453051E+02  0.51100000000E-03 0.  1.
         12    1    3    3    0    0 -0.24828259043E+01 -0.80052178609E+01 -0.56673780941E+01  0.10117663363E+02  0.00000000000E+00 0. -1.
</event>
<event>
 7    1  0.5138511E-013  0.5052887E+02  0.7816164E-02  0.1300439E+00
        -11   -1    0    0    0    0  0.00000000000E+00  0.00000000000E+00  0.45593999997E+02  0.45594000000E+02  0.51100000000E-03 0.  1.
         11   -1    0    0    0    0 -0.00000000000E+00 -0.00000000000E+00 -0.45593999997E+02  0.45594000000E+02  0.51100000000E-03 0. -1.
    9900012    2    1    2    0    0 -0.22665938650E+02  0.30817884197E+02 -0.13772375051E+02  0.50528867252E+02  0.30000022499E+02 0.  0.
        -12    1    1    2    0    0  0.22665938650E+02 -0.30817884197E+02  0.13772375051E+02  0.40659132748E+02  0.00000000000E+00 0.  1.
         11    1    3    3    0    0 -0.60240311566E+01  0.64474069218E+01  0.32364666828E+01  0.93985490498E+01  0.51100000000E-03 0. -1.
        -11    1    3    3    0    0  0.27982803932E+01 -0.26831468318E+01 -0.37607661314E+00  0.38950075687E+01  0.51100000000E-03 0.  1.
         12    1    3    3    0    0 -0.19440187887E+02  0.27053624107E+02 -0.16632765121E+02  0.37235310633E+02  0.00000000000E+00 0. -1.
</event>
<event>
 7    1  0.5138511E-013  0.5052886E+02  0.7816164E-02  0.1300439E+00
        -11   -1    0    0    0    0  0.00000000000E+00  0.00000000000E+00  0.45593999997E+02  0.45594000000E+02  0.51100000000E-03 0. -1.
         11   -1    0    0    0    0 -0.00000000000E+00 -0.00000000000E+00 -0.45593999997E+02  0.45594000000E+02  0.51100000000E-03 0.  1.
    9900012    2    1    2    0    0 -0.24256744140E+01  0.33409944126E+02  0.23044679592E+02  0.50528861785E+02  0.30000005882E+02 0.  0.
        -12    1    1    2    0    0  0.24256744140E+01 -0.33409944126E+02 -0.23044679592E+02  0.40659138215E+02  0.00000000000E+00 0.  1.
         11    1    3    3    0    0  0.50326444300E+01  0.11042495235E+02  0.12346427006E+01  0.12197891369E+02  0.51100000000E-03 0. -1.
        -11    1    3    3    0    0  0.28780615238E+00  0.21838903263E+02  0.95910516609E+01  0.23853905348E+02  0.51100000000E-03 0.  1.
         12    1    3    3    0    0 -0.77461249964E+01  0.52854562748E+00  0.12218985230E+02  0.14477065069E+02  0.00000000000E+00 0. -1.
</event>
<event>
 7    1  0.5138511E-013  0.5052885E+02  0.7816164E-02  0.1300439E+00
        -11   -1    0    0    0    0  0.00000000000E+00  0.00000000000E+00  0.45593999997E+02  0.45594000000E+02  0.51100000000E-03 0. -1.
         11   -1    0    0    0    0 -0.00000000000E+00 -0.00000000000E+00 -0.45593999997E+02  0.45594000000E+02  0.51100000000E-03 0.  1.
    9900012    2    1    2    0    0  0.40053308013E+02  0.69098251996E+01  0.10737800057E+01  0.50528853789E+02  0.29999981577E+02 0.  0.
        -12    1    1    2    0    0 -0.40053308013E+02 -0.69098251996E+01 -0.10737800057E+01  0.40659146211E+02  0.00000000000E+00 0.  1.
         11    1    3    3    0    0  0.68855262004E+01  0.99517579244E+00  0.11072783623E+02  0.13076979137E+02  0.51100000000E-03 0. -1.
        -11    1    3    3    0    0  0.39109974684E+01 -0.35687215183E+01 -0.21210447753E+01  0.57035520225E+01  0.51100000000E-03 0.  1.
         12    1    3    3    0    0  0.29256784345E+02  0.94833709255E+01 -0.78779588423E+01  0.31748322630E+02  0.00000000000E+00 0. -1.
</event>
<event>
 7    1  0.5138511E-013  0.5052886E+02  0.7816164E-02  0.1300439E+00
        -11   -1    0    0    0    0  0.00000000000E+00  0.00000000000E+00  0.45593999997E+02  0.45594000000E+02  0.51100000000E-03 0.  1.
         11   -1    0    0    0    0 -0.00000000000E+00 -0.00000000000E+00 -0.45593999997E+02  0.45594000000E+02  0.51100000000E-03 0. -1.
    9900012    2    1    2    0    0 -0.71854410549E+01  0.36830013892E+02 -0.15655201246E+02  0.50528858193E+02  0.29999994964E+02 0.  0.
        -12    1    1    2    0    0  0.71854410549E+01 -0.36830013892E+02  0.15655201246E+02  0.40659141807E+02  0.00000000000E+00 0.  1.
         11    1    3    3    0    0  0.66436880518E+01  0.42230340176E+01 -0.76916155431E+00  0.79097545475E+01  0.51100000000E-03 0.  1.
        -11    1    3    3    0    0 -0.10320891437E+02  0.39789208111E+01 -0.33758372734E+01  0.11564985449E+02  0.51100000000E-03 0. -1.
        -12    1    3    3    0    0 -0.35082376696E+01  0.28628059063E+02 -0.11510202418E+02  0.31054118197E+02  0.00000000000E+00 0.  1.
</event>
<event>
 7    1  0.5138511E-013  0.5052886E+02  0.7816164E-02  0.1300439E+00
        -11   -1    0    0    0    0  0.00000000000E+00  0.00000000000E+00  0.45593999997E+02  0.45594000000E+02  0.51100000000E-03 0.  1.
         11   -1    0    0    0    0 -0.00000000000E+00 -0.00000000000E+00 -0.45593999997E+02  0.45594000000E+02  0.51100000000E-03 0. -1.
    9900012    2    1    2    0    0 -0.26116164952E+02 -0.23967293340E+02 -0.19916839714E+02  0.50528859256E+02  0.29999998195E+02 0.  0.
        -12    1    1    2    0    0  0.26116164952E+02  0.23967293340E+02  0.19916839714E+02  0.40659140744E+02  0.00000000000E+00 0.  1.
         11    1    3    3    0    0 -0.13815110421E+02  0.15517637234E+01 -0.13525492135E+02  0.19395983716E+02  0.51100000000E-03 0. -1.
        -11    1    3    3    0    0 -0.30946301370E+01 -0.13736675825E+02 -0.78293063509E+01  0.16111208415E+02  0.51100000000E-03 0.  1.
        -12    1    3    3    0    0 -0.92064243941E+01 -0.11782381238E+02  0.14379587712E+01  0.15021667124E+02  0.00000000000E+00 0.  1.
</event>
<event>
 7    1  0.5138511E-013  0.5052886E+02  0.7816164E-02  0.1300439E+00
        -11   -1    0    0    0    0  0.00000000000E+00  0.00000000000E+00  0.45593999997E+02  0.45594000000E+02  0.51100000000E-03 0.  1.
         11   -1    0    0    0    0 -0.00000000000E+00 -0.00000000000E+00 -0.45593999997E+02  0.45594000000E+02  0.51100000000E-03 0. -1.
    9900012    2    1    2    0    0  0.91515099983E+01  0.38188274635E+02 -0.10539028016E+02  0.50528861219E+02  0.30000004162E+02 0.  0.
        -12    1    1    2    0    0 -0.91515099983E+01 -0.38188274635E+02  0.10539028016E+02  0.40659138781E+02  0.00000000000E+00 0.  1.
         11    1    3    3    0    0  0.32406580078E+01  0.18635027588E+02  0.35011326227E+01  0.19236009135E+02  0.51100000000E-03 0.  1.
        -11    1    3    3    0    0  0.10251807918E+02  0.72626372386E+01 -0.61174103103E+00  0.12578540957E+02  0.51100000000E-03 0. -1.
        -12    1    3    3    0    0 -0.43409559277E+01  0.12290609809E+02 -0.13428419607E+02  0.18714311128E+02  0.00000000000E+00 0.  1.
</event>
<event>
 7    1  0.5138511E-013  0.5052886E+02  0.7816164E-02  0.1300439E+00
        -11   -1    0    0    0    0  0.00000000000E+00  0.00000000000E+00  0.45593999997E+02  0.45594000000E+02  0.51100000000E-03 0.  1.
         11   -1    0    0    0    0 -0.00000000000E+00 -0.00000000000E+00 -0.45593999997E+02  0.45594000000E+02  0.51100000000E-03 0. -1.
    9900012    2    1    2    0    0  0.51696713985E+01 -0.15399932886E+02 -0.37273081658E+02  0.50528855253E+02  0.29999986027E+02 0.  0.
        -12    1    1    2    0    0 -0.51696713985E+01  0.15399932886E+02  0.37273081658E+02  0.40659144747E+02  0.00000000000E+00 0.  1.
         11    1    3    3    0    0  0.75165001384E+01 -0.15342654194E+02 -0.34757987525E+02  0.38729994954E+02  0.51100000000E-03 0. -1.
        -11    1    3    3    0    0 -0.47699377927E+01  0.57723483337E+00 -0.58867289422E+01  0.75986238556E+01  0.51100000000E-03 0.  1.
        -12    1    3    3    0    0  0.24231090528E+01 -0.63451352542E+00  0.33716348093E+01  0.42002364437E+01  0.00000000000E+00 0.  1.
</event>
<event>
 7    1  0.5138511E-013  0.5052884E+02  0.7816164E-02  0.1300439E+00
        -11   -1    0    0    0    0  0.00000000000E+00  0.00000000000E+00  0.45593999997E+02  0.45594000000E+02  0.51100000000E-03 0.  1.
         11   -1    0    0    0    0 -0.00000000000E+00 -0.00000000000E+00 -0.45593999997E+02  0.45594000000E+02  0.51100000000E-03 0. -1.
    9900012    2    1    2    0    0 -0.16775572737E+02 -0.86300204791E+01 -0.36017638121E+02  0.50528839286E+02  0.29999937494E+02 0.  0.
        -12    1    1    2    0    0  0.16775572737E+02  0.86300204791E+01  0.36017638121E+02  0.40659160714E+02  0.00000000000E+00 0.  1.
         11    1    3    3    0    0 -0.16254255135E+02 -0.14982323431E+02 -0.22124611711E+02  0.31275697738E+02  0.51100000000E-03 0. -1.
        -11    1    3    3    0    0 -0.57805504455E+01  0.54837583482E+01 -0.89598066953E+01  0.11990183708E+02  0.51100000000E-03 0.  1.
        -12    1    3    3    0    0  0.52592328433E+01  0.86854460404E+00 -0.49332197147E+01  0.72629578398E+01  0.00000000000E+00 0.  1.
</event>
<event>
 7    1  0.5138511E-013  0.5052887E+02  0.7816164E-02  0.1300439E+00
        -11   -1    0    0    0    0  0.00000000000E+00  0.00000000000E+00  0.45593999997E+02  0.45594000000E+02  0.51100000000E-03 0. -1.
         11   -1    0    0    0    0 -0.00000000000E+00 -0.00000000000E+00 -0.45593999997E+02  0.45594000000E+02  0.51100000000E-03 0.  1.
    9900012    2    1    2    0    0  0.33173664568E+02 -0.15127056978E+02  0.17995699058E+02  0.50528867468E+02  0.30000023155E+02 0.  0.
        -12    1    1    2    0    0 -0.33173664568E+02  0.15127056978E+02 -0.17995699058E+02  0.40659132532E+02  0.00000000000E+00 0.  1.
         11    1    3    3    0    0  0.38150175923E+01 -0.38998780682E+01  0.11626833655E+01  0.55781037142E+01  0.51100000000E-03 0. -1.
        -11    1    3    3    0    0  0.54040497767E+01  0.65157795498E+01  0.12100323636E+02  0.14767429346E+02  0.51100000000E-03 0.  1.
        -12    1    3    3    0    0  0.23954597199E+02 -0.17742958460E+02  0.47326920565E+01  0.30183334408E+02  0.00000000000E+00 0.  1.
</event>
<event>
 7    1  0.5138511E-013  0.5052886E+02  0.7816164E-02  0.1300439E+00
        -11   -1    0    0    0    0  0.00000000000E+00  0.00000000000E+00  0.45593999997E+02  0.45594000000E+02  0.51100000000E-03 0.  1.
         11   -1    0    0    0    0 -0.00000000000E+00 -0.00000000000E+00 -0.45593999997E+02  0.45594000000E+02  0.51100000000E-03 0. -1.
    9900012    2    1    2    0    0  0.17403340239E+02  0.26311375515E+02 -0.25651524809E+02  0.50528862552E+02  0.30000008214E+02 0.  0.
        -12    1    1    2    0    0 -0.17403340239E+02 -0.26311375515E+02  0.25651524809E+02  0.40659137448E+02  0.00000000000E+00 0.  1.
         11    1    3    3    0    0  0.21633657643E+02  0.25401854384E+02 -0.19741945989E+02  0.38768721682E+02  0.51100000000E-03 0. -1.
        -11    1    3    3    0    0  0.58887857711E+00 -0.35427074422E+01 -0.17861621285E+01  0.40109761168E+01  0.51100000000E-03 0.  1.
        -12    1    3    3    0    0 -0.48191959805E+01  0.44522285736E+01 -0.41234166909E+01  0.77491647535E+01  0.00000000000E+00 0.  1.
</event>
<event>
 7    1  0.5138511E-013  0.5052886E+02  0.7816164E-02  0.1300439E+00
        -11   -1    0    0    0    0  0.00000000000E+00  0.00000000000E+00  0.45593999997E+02  0.45594000000E+02  0.51100000000E-03 0.  1.
         11   -1    0    0    0    0 -0.00000000000E+00 -0.00000000000E+00 -0.45593999997E+02  0.45594000000E+02  0.51100000000E-03 0. -1.
    9900012    2    1    2    0    0 -0.20332897416E+02 -0.28952681477E+02  0.20036988904E+02  0.50528863187E+02  0.30000010143E+02 0.  0.
        -12    1    1    2    0    0  0.20332897416E+02  0.28952681477E+02 -0.20036988904E+02  0.40659136813E+02  0.00000000000E+00 0.  1.
         11    1    3    3    0    0 -0.13186971704E+02 -0.29508363519E+01  0.72602531243E+01  0.15339978278E+02  0.51100000000E-03 0. -1.
        -11    1    3    3    0    0  0.18569315084E+00  0.33879633416E-02  0.76936979741E+01  0.76959393320E+01  0.51100000000E-03 0.  1.
         12    1    3    3    0    0 -0.73316188630E+01 -0.26005233088E+02  0.50830378060E+01  0.27492945576E+02  0.00000000000E+00 0. -1.
</event>
<event>
 7    1  0.5138511E-013  0.5052886E+02  0.7816164E-02  0.1300439E+00
        -11   -1    0    0    0    0  0.00000000000E+00  0.00000000000E+00  0.45593999997E+02  0.45594000000E+02  0.51100000000E-03 0. -1.
         11   -1    0    0    0    0 -0.00000000000E+00 -0.00000000000E+00 -0.45593999997E+02  0.45594000000E+02  0.51100000000E-03 0.  1.
    9900012    2    1    2    0    0 -0.38074333332E+02 -0.99706410995E+01  0.10202817891E+02  0.50528855450E+02  0.29999986626E+02 0.  0.
        -12    1    1    2    0    0  0.38074333332E+02  0.99706410995E+01 -0.10202817891E+02  0.40659144550E+02  0.00000000000E+00 0.  1.
         11    1    3    3    0    0 -0.32062373415E+00 -0.67980755278E+01  0.53583539655E+01  0.86619044061E+01  0.51100000000E-03 0. -1.
        -11    1    3    3    0    0 -0.18774402991E+01 -0.55648262422E+00 -0.43228321132E+01  0.47456646244E+01  0.51100000000E-03 0.  1.
         12    1    3    3    0    0 -0.35876269299E+02 -0.26160829475E+01  0.91672960385E+01  0.37121286420E+02  0.00000000000E+00 0. -1.
</event>
<event>
 7    1  0.5138511E-013  0.5052886E+02  0.7816164E-02  0.1300439E+00
        -11   -1    0    0    0    0  0.00000000000E+00  0.00000000000E+00  0.45593999997E+02  0.45594000000E+02  0.51100000000E-03 0.  1.
         11   -1    0    0    0    0 -0.00000000000E+00 -0.00000000000E+00 -0.45593999997E+02  0.45594000000E+02  0.51100000000E-03 0. -1.
    9900012    2    1    2    0    0  0.19174859433E+02  0.95449892938E+01 -0.34559859498E+02  0.50528856583E+02  0.29999990069E+02 0.  0.
        -12    1    1    2    0    0 -0.19174859433E+02 -0.95449892938E+01  0.34559859498E+02  0.40659143417E+02  0.00000000000E+00 0.  1.
         11    1    3    3    0    0  0.13810753720E+02  0.20713763719E+01 -0.16157158953E+02  0.21356060126E+02  0.51100000000E-03 0. -1.
        -11    1    3    3    0    0  0.93413384606E+01  0.98059331646E+00 -0.14812050181E+00  0.93938334791E+01  0.51100000000E-03 0.  1.
        -12    1    3    3    0    0 -0.39772327481E+01  0.64930196054E+01 -0.18254580043E+02  0.19778962978E+02  0.00000000000E+00 0.  1.
</event>
<event>
 7    1  0.5138511E-013  0.5052887E+02  0.7816164E-02  0.1300439E+00
        -11   -1    0    0    0    0  0.00000000000E+00  0.00000000000E+00  0.45593999997E+02  0.45594000000E+02  0.51100000000E-03 0.  1.
         11   -1    0    0    0    0 -0.00000000000E+00 -0.00000000000E+00 -0.45593999997E+02  0.45594000000E+02  0.51100000000E-03 0. -1.
    9900012    2    1    2    0    0  0.81887391776E+01 -0.37314413350E+02 -0.13919207790E+02  0.50528865252E+02  0.30000016419E+02 0.  0.
        -12    1    1    2    0    0 -0.81887391776E+01  0.37314413350E+02  0.13919207790E+02  0.40659134748E+02  0.00000000000E+00 0.  1.
         11    1    3    3    0    0 -0.64299202423E+01 -0.60281472202E+01 -0.11179438362E+02  0.14235950111E+02  0.51100000000E-03 0. -1.
        -11    1    3    3    0    0  0.44221145331E+01 -0.11636458944E+02 -0.61655100727E+01  0.13891572568E+02  0.51100000000E-03 0.  1.
        -12    1    3    3    0    0  0.10196544887E+02 -0.19649807186E+02  0.34257406449E+01  0.22401342572E+02  0.00000000000E+00 0.  1.
</event>
<event>
 7    1  0.5138511E-013  0.5052890E+02  0.7816164E-02  0.1300439E+00
        -11   -1    0    0    0    0  0.00000000000E+00  0.00000000000E+00  0.45593999997E+02  0.45594000000E+02  0.51100000000E-03 0. -1.
         11   -1    0    0    0    0 -0.00000000000E+00 -0.00000000000E+00 -0.45593999997E+02  0.45594000000E+02  0.51100000000E-03 0.  1.
    9900012    2    1    2    0    0 -0.25212204731E+02  0.31571272848E+02  0.45564797547E+01  0.50528904530E+02  0.30000135810E+02 0.  0.
        -12    1    1    2    0    0  0.25212204731E+02 -0.31571272848E+02 -0.45564797547E+01  0.40659095470E+02  0.00000000000E+00 0.  1.
         11    1    3    3    0    0 -0.15087222076E+02  0.69335167928E+01 -0.10530502972E+01  0.16637513044E+02  0.51100000000E-03 0. -1.
        -11    1    3    3    0    0 -0.10024130944E+02  0.19837763187E+02 -0.45201691174E+01  0.22681533867E+02  0.51100000000E-03 0.  1.
        -12    1    3    3    0    0 -0.10085171120E+00  0.47999928685E+01  0.10129699169E+02  0.11209857620E+02  0.00000000000E+00 0.  1.
</event>
<event>
 7    1  0.5138511E-013  0.5052886E+02  0.7816164E-02  0.1300439E+00
        -11   -1    0    0    0    0  0.00000000000E+00  0.00000000000E+00  0.45593999997E+02  0.45594000000E+02  0.51100000000E-03 0.  1.
         11   -1    0    0    0    0 -0.00000000000E+00 -0.00000000000E+00 -0.45593999997E+02  0.45594000000E+02  0.51100000000E-03 0. -1.
    9900012    2    1    2    0    0  0.19982292773E+02  0.23051411532E+02 -0.26879467508E+02  0.50528863615E+02  0.30000011444E+02 0.  0.
        -12    1    1    2    0    0 -0.19982292773E+02 -0.23051411532E+02  0.26879467508E+02  0.40659136385E+02  0.00000000000E+00 0.  1.
         11    1    3    3    0    0  0.86104862828E+01  0.19157633116E+02 -0.42326474098E+01  0.21425934868E+02  0.51100000000E-03 0. -1.
        -11    1    3    3    0    0  0.71969046293E+01  0.86418457091E+01 -0.10387994367E+02  0.15309714587E+02  0.51100000000E-03 0.  1.
        -12    1    3    3    0    0  0.41749018606E+01 -0.47480672924E+01 -0.12258825731E+02  0.13793214160E+02  0.00000000000E+00 0.  1.
</event>
<event>
 7    1  0.5694130E-013  0.5052883E+02  0.7816164E-02  0.1300439E+00
        -11   -1    0    0    0    0  0.00000000000E+00  0.00000000000E+00  0.45593999997E+02  0.45594000000E+02  0.51100000000E-03 0. -1.
         11   -1    0    0    0    0 -0.00000000000E+00 -0.00000000000E+00 -0.45593999997E+02  0.45594000000E+02  0.51100000000E-03 0.  1.
    9900012    2    1    2    0    0 -0.11097984847E+02 -0.22458537119E+02  0.32025257825E+02  0.50528827653E+02  0.29999902133E+02 0.  0.
        -12    1    1    2    0    0  0.11097984847E+02  0.22458537119E+02 -0.32025257825E+02  0.40659172347E+02  0.00000000000E+00 0.  1.
         11    1    3    3    0    0 -0.13945645654E+02 -0.10288183136E+02  0.17976263335E+02  0.24969457117E+02  0.51100000000E-03 0. -1.
        -11    1    3    3    0    0 -0.90248999908E+00 -0.14067308104E+02  0.15649711605E+02  0.21062220184E+02  0.51100000000E-03 0.  1.
        -12    1    3    3    0    0  0.37501508062E+01  0.18969541215E+01 -0.16007171146E+01  0.44971503521E+01  0.00000000000E+00 0.  1.
</event>
<event>
 7    1  0.5138511E-013  0.5052886E+02  0.7816164E-02  0.1300439E+00
        -11   -1    0    0    0    0  0.00000000000E+00  0.00000000000E+00  0.45593999997E+02  0.45594000000E+02  0.51100000000E-03 0.  1.
         11   -1    0    0    0    0 -0.00000000000E+00 -0.00000000000E+00 -0.45593999997E+02  0.45594000000E+02  0.51100000000E-03 0. -1.
    9900012    2    1    2    0    0 -0.34928323709E+02  0.16907247259E+02  0.12137674158E+02  0.50528856613E+02  0.29999990161E+02 0.  0.
        -12    1    1    2    0    0  0.34928323709E+02 -0.16907247259E+02 -0.12137674158E+02  0.40659143387E+02  0.00000000000E+00 0.  1.
         11    1    3    3    0    0 -0.33216202616E+02  0.13514811003E+02  0.13784698557E+02  0.38418539108E+02  0.51100000000E-03 0. -1.
        -11    1    3    3    0    0 -0.49865906921E+01 -0.22161721891E+01 -0.12826518432E+01  0.56055955896E+01  0.51100000000E-03 0.  1.
        -12    1    3    3    0    0  0.32744695985E+01  0.56086084445E+01 -0.36437255531E+00  0.65047219152E+01  0.00000000000E+00 0.  1.
</event>
<event>
 7    1  0.5138511E-013  0.5052889E+02  0.7816164E-02  0.1300439E+00
        -11   -1    0    0    0    0  0.00000000000E+00  0.00000000000E+00  0.45593999997E+02  0.45594000000E+02  0.51100000000E-03 0.  1.
         11   -1    0    0    0    0 -0.00000000000E+00 -0.00000000000E+00 -0.45593999997E+02  0.45594000000E+02  0.51100000000E-03 0. -1.
    9900012    2    1    2    0    0 -0.26954481990E+02  0.26189640365E+02 -0.15515223542E+02  0.50528886343E+02  0.30000080527E+02 0.  0.
        -12    1    1    2    0    0  0.26954481990E+02 -0.26189640365E+02  0.15515223542E+02  0.40659113657E+02  0.00000000000E+00 0.  1.
         11    1    3    3    0    0  0.35689365134E+01  0.65264647389E+00 -0.47928339602E+01  0.60111989560E+01  0.51100000000E-03 0.  1.
        -11    1    3    3    0    0 -0.22402112685E+02  0.11779206653E+02 -0.12876144059E+02  0.28397173243E+02  0.51100000000E-03 0. -1.
         12    1    3    3    0    0 -0.81213058184E+01  0.13757787239E+02  0.21537544771E+01  0.16120514143E+02  0.00000000000E+00 0. -1.
</event>
<event>
 7    1  0.5138511E-013  0.5052899E+02  0.7816164E-02  0.1300438E+00
        -11   -1    0    0    0    0  0.00000000000E+00  0.00000000000E+00  0.45593999997E+02  0.45594000000E+02  0.51100000000E-03 0. -1.
         11   -1    0    0    0    0 -0.00000000000E+00 -0.00000000000E+00 -0.45593999997E+02  0.45594000000E+02  0.51100000000E-03 0.  1.
    9900012    2    1    2    0    0 -0.36791653788E+02  0.17106710596E+02  0.26247798332E+01  0.50528993556E+02  0.30000406409E+02 0.  0.
        -12    1    1    2    0    0  0.36791653788E+02 -0.17106710596E+02 -0.26247798332E+01  0.40659006444E+02  0.00000000000E+00 0.  1.
         11    1    3    3    0    0 -0.71265367470E+01 -0.25361538814E+01 -0.44071932966E+01  0.87545962518E+01  0.51100000000E-03 0. -1.
        -11    1    3    3    0    0 -0.21020286534E+02  0.23360036694E+02  0.31066780222E+01  0.31578397821E+02  0.51100000000E-03 0.  1.
         12    1    3    3    0    0 -0.86448305066E+01 -0.37171722165E+01  0.39252951077E+01  0.10195999483E+02  0.00000000000E+00 0. -1.
</event>
<event>
 7    1  0.5138511E-013  0.5052886E+02  0.7816164E-02  0.1300439E+00
        -11   -1    0    0    0    0  0.00000000000E+00  0.00000000000E+00  0.45593999997E+02  0.45594000000E+02  0.51100000000E-03 0.  1.
         11   -1    0    0    0    0 -0.00000000000E+00 -0.00000000000E+00 -0.45593999997E+02  0.45594000000E+02  0.51100000000E-03 0. -1.
    9900012    2    1    2    0    0  0.18797985386E+01 -0.27674079290E+02 -0.29728393263E+02  0.50528859908E+02  0.30000000175E+02 0.  0.
        -12    1    1    2    0    0 -0.18797985386E+01  0.27674079290E+02  0.29728393263E+02  0.40659140092E+02  0.00000000000E+00 0.  1.
         11    1    3    3    0    0 -0.86441858981E+01 -0.32998718915E+01 -0.15456359237E+02  0.18014165133E+02  0.51100000000E-03 0. -1.
        -11    1    3    3    0    0  0.66124141245E+01 -0.26485416338E+01 -0.30114512038E+01  0.77335394195E+01  0.51100000000E-03 0.  1.
         12    1    3    3    0    0  0.39115703123E+01 -0.21725665764E+02 -0.11260582822E+02  0.24781155355E+02  0.00000000000E+00 0. -1.
</event>
<event>
 7    1  0.5138511E-013  0.5052886E+02  0.7816164E-02  0.1300439E+00
        -11   -1    0    0    0    0  0.00000000000E+00  0.00000000000E+00  0.45593999997E+02  0.45594000000E+02  0.51100000000E-03 0. -1.
         11   -1    0    0    0    0 -0.00000000000E+00 -0.00000000000E+00 -0.45593999997E+02  0.45594000000E+02  0.51100000000E-03 0.  1.
    9900012    2    1    2    0    0 -0.38625116499E+02  0.92735607233E+01  0.86756546391E+01  0.50528861588E+02  0.30000005282E+02 0.  0.
        -12    1    1    2    0    0  0.38625116499E+02 -0.92735607233E+01 -0.86756546391E+01  0.40659138412E+02  0.00000000000E+00 0.  1.
         11    1    3    3    0    0 -0.26407859371E+02  0.14500890663E+02 -0.10011620475E+01  0.30143874872E+02  0.51100000000E-03 0.  1.
        -11    1    3    3    0    0  0.40454274710E-01  0.29801031488E+01  0.28735913980E+01  0.41400699402E+01  0.51100000000E-03 0. -1.
        -12    1    3    3    0    0 -0.12257711402E+02 -0.82074330884E+01  0.68032252886E+01  0.16244916776E+02  0.00000000000E+00 0.  1.
</event>
<event>
 7    1  0.5138511E-013  0.5052886E+02  0.7816164E-02  0.1300439E+00
        -11   -1    0    0    0    0  0.00000000000E+00  0.00000000000E+00  0.45593999997E+02  0.45594000000E+02  0.51100000000E-03 0. -1.
         11   -1    0    0    0    0 -0.00000000000E+00 -0.00000000000E+00 -0.45593999997E+02  0.45594000000E+02  0.51100000000E-03 0.  1.
    9900012    2    1    2    0    0  0.20209347878E+02  0.30088738697E+02  0.18423234704E+02  0.50528861852E+02  0.30000006084E+02 0.  0.
        -12    1    1    2    0    0 -0.20209347878E+02 -0.30088738697E+02 -0.18423234704E+02  0.40659138148E+02  0.00000000000E+00 0.  1.
         11    1    3    3    0    0  0.65162057733E+01  0.20936873883E+02  0.15812444957E+02  0.27034182833E+02  0.51100000000E-03 0. -1.
        -11    1    3    3    0    0  0.32885222173E+01  0.60936280120E+01  0.86512761461E+01  0.11081121782E+02  0.51100000000E-03 0.  1.
        -12    1    3    3    0    0  0.10404619887E+02  0.30582368023E+01 -0.60404863996E+01  0.12413557237E+02  0.00000000000E+00 0.  1.
</event>
<event>
 7    1  0.5138511E-013  0.5052886E+02  0.7816164E-02  0.1300439E+00
        -11   -1    0    0    0    0  0.00000000000E+00  0.00000000000E+00  0.45593999997E+02  0.45594000000E+02  0.51100000000E-03 0. -1.
         11   -1    0    0    0    0 -0.00000000000E+00 -0.00000000000E+00 -0.45593999997E+02  0.45594000000E+02  0.51100000000E-03 0.  1.
    9900012    2    1    2    0    0  0.23041198323E+02 -0.39809387581E+01  0.33262906554E+02  0.50528860240E+02  0.30000001187E+02 0.  0.
        -12    1    1    2    0    0 -0.23041198323E+02  0.39809387581E+01 -0.33262906554E+02  0.40659139760E+02  0.00000000000E+00 0.  1.
         11    1    3    3    0    0  0.17831480055E+02 -0.63691539722E+00  0.19678949692E+02  0.26563666979E+02  0.51100000000E-03 0. -1.
        -11    1    3    3    0    0  0.55914658067E+00  0.36210658634E+01  0.15026616603E+02  0.15466866834E+02  0.51100000000E-03 0.  1.
        -12    1    3    3    0    0  0.46505716881E+01 -0.69650892243E+01 -0.14426597404E+01  0.84983264267E+01  0.00000000000E+00 0.  1.
</event>
<event>
 7    1  0.5138511E-013  0.5052886E+02  0.7816164E-02  0.1300439E+00
        -11   -1    0    0    0    0  0.00000000000E+00  0.00000000000E+00  0.45593999997E+02  0.45594000000E+02  0.51100000000E-03 0.  1.
         11   -1    0    0    0    0 -0.00000000000E+00 -0.00000000000E+00 -0.45593999997E+02  0.45594000000E+02  0.51100000000E-03 0. -1.
    9900012    2    1    2    0    0  0.20925986443E+02 -0.11675189389E+02 -0.32847507385E+02  0.50528859610E+02  0.29999999269E+02 0.  0.
        -12    1    1    2    0    0 -0.20925986443E+02  0.11675189389E+02  0.32847507385E+02  0.40659140390E+02  0.00000000000E+00 0.  1.
         11    1    3    3    0    0  0.46882933173E+01 -0.13471645541E+02 -0.25551825438E+02  0.29263648291E+02  0.51100000000E-03 0. -1.
        -11    1    3    3    0    0  0.10546397212E+02 -0.40224473883E+01 -0.66487697034E+01  0.13100103662E+02  0.51100000000E-03 0.  1.
        -12    1    3    3    0    0  0.56912959137E+01  0.58189035403E+01 -0.64691224366E+00  0.81651076564E+01  0.00000000000E+00 0.  1.
</event>
<event>
 7    1  0.5138511E-013  0.5052886E+02  0.7816164E-02  0.1300439E+00
        -11   -1    0    0    0    0  0.00000000000E+00  0.00000000000E+00  0.45593999997E+02  0.45594000000E+02  0.51100000000E-03 0. -1.
         11   -1    0    0    0    0 -0.00000000000E+00 -0.00000000000E+00 -0.45593999997E+02  0.45594000000E+02  0.51100000000E-03 0.  1.
    9900012    2    1    2    0    0 -0.24721590452E+02  0.23406148527E+02  0.22229724718E+02  0.50528862228E+02  0.30000007227E+02 0.  0.
        -12    1    1    2    0    0  0.24721590452E+02 -0.23406148527E+02 -0.22229724718E+02  0.40659137772E+02  0.00000000000E+00 0.  1.
         11    1    3    3    0    0 -0.16898326008E+02  0.30871031722E+01  0.31301688058E+01  0.17460858653E+02  0.51100000000E-03 0. -1.
        -11    1    3    3    0    0 -0.12462197029E+02  0.17554768411E+02  0.14316017818E+02  0.25853909089E+02  0.51100000000E-03 0.  1.
        -12    1    3    3    0    0  0.46389325850E+01  0.27642769439E+01  0.47835380945E+01  0.72140944860E+01  0.00000000000E+00 0.  1.
</event>
<event>
 7    1  0.5138511E-013  0.5052886E+02  0.7816164E-02  0.1300439E+00
        -11   -1    0    0    0    0  0.00000000000E+00  0.00000000000E+00  0.45593999997E+02  0.45594000000E+02  0.51100000000E-03 0.  1.
         11   -1    0    0    0    0 -0.00000000000E+00 -0.00000000000E+00 -0.45593999997E+02  0.45594000000E+02  0.51100000000E-03 0. -1.
    9900012    2    1    2    0    0 -0.39338521306E+02  0.92071569320E+01 -0.45689223155E+01  0.50528855291E+02  0.29999986143E+02 0.  0.
        -12    1    1    2    0    0  0.39338521306E+02 -0.92071569320E+01  0.45689223155E+01  0.40659144709E+02  0.00000000000E+00 0.  1.
         11    1    3    3    0    0 -0.10956204652E+02 -0.54183915016E+01 -0.29452513000E-01  0.12222857872E+02  0.51100000000E-03 0. -1.
        -11    1    3    3    0    0 -0.17440002161E+02  0.12119202668E+02  0.68494378476E+01  0.22314648726E+02  0.51100000000E-03 0.  1.
         12    1    3    3    0    0 -0.10942314493E+02  0.25063457660E+01 -0.11388907650E+02  0.15991348693E+02  0.00000000000E+00 0. -1.
</event>
<event>
 7    1  0.5138511E-013  0.5052886E+02  0.7816164E-02  0.1300439E+00
        -11   -1    0    0    0    0  0.00000000000E+00  0.00000000000E+00  0.45593999997E+02  0.45594000000E+02  0.51100000000E-03 0. -1.
         11   -1    0    0    0    0 -0.00000000000E+00 -0.00000000000E+00 -0.45593999997E+02  0.45594000000E+02  0.51100000000E-03 0.  1.
    9900012    2    1    2    0    0 -0.23256825283E+02 -0.30673418557E+02  0.13093014144E+02  0.50528861450E+02  0.30000004865E+02 0.  0.
        -12    1    1    2    0    0  0.23256825283E+02  0.30673418557E+02 -0.13093014144E+02  0.40659138550E+02  0.00000000000E+00 0.  1.
         11    1    3    3    0    0 -0.13167017803E+02 -0.23225317619E+02  0.14209677897E+02  0.30244018954E+02  0.51100000000E-03 0. -1.
        -11    1    3    3    0    0 -0.36224446755E+01 -0.11542670380E+02  0.15111995645E+01  0.12191762355E+02  0.51100000000E-03 0.  1.
        -12    1    3    3    0    0 -0.64673628043E+01  0.40945694420E+01 -0.26278633170E+01  0.80930801411E+01  0.00000000000E+00 0.  1.
</event>
<event>
 7    1  0.5138511E-013  0.5052888E+02  0.7816164E-02  0.1300439E+00
        -11   -1    0    0    0    0  0.00000000000E+00  0.00000000000E+00  0.45593999997E+02  0.45594000000E+02  0.51100000000E-03 0. -1.
         11   -1    0    0    0    0 -0.00000000000E+00 -0.00000000000E+00 -0.45593999997E+02  0.45594000000E+02  0.51100000000E-03 0.  1.
    9900012    2    1    2    0    0  0.13727621672E+01 -0.33628895088E+02  0.22811773999E+02  0.50528879328E+02  0.30000059205E+02 0.  0.
        -12    1    1    2    0    0 -0.13727621672E+01  0.33628895088E+02 -0.22811773999E+02  0.40659120672E+02  0.00000000000E+00 0.  1.
         11    1    3    3    0    0 -0.27714672185E+01  0.20858241100E+01  0.93267917108E+01  0.99509163718E+01  0.51100000000E-03 0.  1.
        -11    1    3    3    0    0 -0.34944955440E+01 -0.16729493698E+02  0.10052494844E+02  0.19827761128E+02  0.51100000000E-03 0. -1.
        -12    1    3    3    0    0  0.76387249297E+01 -0.18985225500E+02  0.34324874440E+01  0.20750201828E+02  0.00000000000E+00 0.  1.
</event>
<event>
 7    1  0.5138511E-013  0.5052887E+02  0.7816164E-02  0.1300439E+00
        -11   -1    0    0    0    0  0.00000000000E+00  0.00000000000E+00  0.45593999997E+02  0.45594000000E+02  0.51100000000E-03 0.  1.
         11   -1    0    0    0    0 -0.00000000000E+00 -0.00000000000E+00 -0.45593999997E+02  0.45594000000E+02  0.51100000000E-03 0. -1.
    9900012    2    1    2    0    0  0.21464155711E+02 -0.32263068731E+02  0.12310527487E+02  0.50528872226E+02  0.30000037618E+02 0.  0.
        -12    1    1    2    0    0 -0.21464155711E+02  0.32263068731E+02 -0.12310527487E+02  0.40659127774E+02  0.00000000000E+00 0.  1.
         11    1    3    3    0    0  0.58075422485E+01 -0.35448601034E-01 -0.21819822322E+01  0.62040188825E+01  0.51100000000E-03 0. -1.
        -11    1    3    3    0    0  0.89387966821E+01 -0.18580547064E+00  0.49717866860E+01  0.10230115977E+02  0.51100000000E-03 0.  1.
         12    1    3    3    0    0  0.67178167801E+01 -0.32041814660E+02  0.95207230332E+01  0.34094737366E+02  0.00000000000E+00 0. -1.
</event>
<event>
 7    1  0.5138511E-013  0.5052890E+02  0.7816164E-02  0.1300439E+00
        -11   -1    0    0    0    0  0.00000000000E+00  0.00000000000E+00  0.45593999997E+02  0.45594000000E+02  0.51100000000E-03 0. -1.
         11   -1    0    0    0    0 -0.00000000000E+00 -0.00000000000E+00 -0.45593999997E+02  0.45594000000E+02  0.51100000000E-03 0.  1.
    9900012    2    1    2    0    0  0.19913886781E+02 -0.26806208255E+01  0.35347045452E+02  0.50528902164E+02  0.30000128616E+02 0.  0.
        -12    1    1    2    0    0 -0.19913886781E+02  0.26806208255E+01 -0.35347045452E+02  0.40659097836E+02  0.00000000000E+00 0.  1.
         11    1    3    3    0    0  0.11369411740E+01 -0.67499807101E+01  0.22922954665E+01  0.72186905729E+01  0.51100000000E-03 0. -1.
        -11    1    3    3    0    0 -0.20447241325E+01  0.43268920636E+01  0.70412504482E+00  0.48372186273E+01  0.51100000000E-03 0.  1.
         12    1    3    3    0    0  0.20821669739E+02 -0.25753217894E+00  0.32350624940E+02  0.38472992963E+02  0.00000000000E+00 0. -1.
</event>
<event>
 7    1  0.5138511E-013  0.5052884E+02  0.7816164E-02  0.1300439E+00
        -11   -1    0    0    0    0  0.00000000000E+00  0.00000000000E+00  0.45593999997E+02  0.45594000000E+02  0.51100000000E-03 0.  1.
         11   -1    0    0    0    0 -0.00000000000E+00 -0.00000000000E+00 -0.45593999997E+02  0.45594000000E+02  0.51100000000E-03 0. -1.
    9900012    2    1    2    0    0 -0.20135888667E+02  0.26034013609E+02 -0.23873481444E+02  0.50528843672E+02  0.29999950826E+02 0.  0.
        -12    1    1    2    0    0  0.20135888667E+02 -0.26034013609E+02  0.23873481444E+02  0.40659156328E+02  0.00000000000E+00 0.  1.
         11    1    3    3    0    0 -0.18972810098E+01 -0.10798107769E+01  0.22902045620E+01  0.31639696176E+01  0.51100000000E-03 0.  1.
        -11    1    3    3    0    0 -0.12128137924E+02  0.29836723630E+02 -0.18310197260E+02  0.37048416032E+02  0.51100000000E-03 0. -1.
         12    1    3    3    0    0 -0.61104697332E+01 -0.27228992444E+01 -0.78534887455E+01  0.10316458023E+02  0.00000000000E+00 0. -1.
</event>
<event>
 7    1  0.5138511E-013  0.5052886E+02  0.7816164E-02  0.1300439E+00
        -11   -1    0    0    0    0  0.00000000000E+00  0.00000000000E+00  0.45593999997E+02  0.45594000000E+02  0.51100000000E-03 0.  1.
         11   -1    0    0    0    0 -0.00000000000E+00 -0.00000000000E+00 -0.45593999997E+02  0.45594000000E+02  0.51100000000E-03 0. -1.
    9900012    2    1    2    0    0 -0.99528199660E+01 -0.38713809439E+02 -0.74396358288E+01  0.50528857759E+02  0.29999993643E+02 0.  0.
        -12    1    1    2    0    0  0.99528199660E+01  0.38713809439E+02  0.74396358288E+01  0.40659142241E+02  0.00000000000E+00 0.  1.
         11    1    3    3    0    0 -0.47653984008E+01 -0.31959838396E+02 -0.69271383114E+01  0.33047322701E+02  0.51100000000E-03 0. -1.
        -11    1    3    3    0    0 -0.48794140136E+01 -0.45528989692E+01 -0.75645108954E+01  0.10087586207E+02  0.51100000000E-03 0.  1.
        -12    1    3    3    0    0 -0.30800755154E+00 -0.22010720733E+01  0.70520133781E+01  0.73939488508E+01  0.00000000000E+00 0.  1.
</event>
<event>
 7    1  0.5138511E-013  0.5052885E+02  0.7816164E-02  0.1300439E+00
        -11   -1    0    0    0    0  0.00000000000E+00  0.00000000000E+00  0.45593999997E+02  0.45594000000E+02  0.51100000000E-03 0.  1.
         11   -1    0    0    0    0 -0.00000000000E+00 -0.00000000000E+00 -0.45593999997E+02  0.45594000000E+02  0.51100000000E-03 0. -1.
    9900012    2    1    2    0    0  0.38055807592E+02  0.84649568768E+01 -0.11544109246E+02  0.50528850419E+02  0.29999971333E+02 0.  0.
        -12    1    1    2    0    0 -0.38055807592E+02 -0.84649568768E+01  0.11544109246E+02  0.40659149581E+02  0.00000000000E+00 0.  1.
         11    1    3    3    0    0  0.34138155946E+01 -0.58833153473E+01 -0.58820994017E+01  0.89925875043E+01  0.51100000000E-03 0. -1.
        -11    1    3    3    0    0  0.10010159337E+02  0.99089678929E+01 -0.83329404276E+01  0.16365476806E+02  0.51100000000E-03 0.  1.
        -12    1    3    3    0    0  0.24631832660E+02  0.44393043312E+01  0.26709305836E+01  0.25170786108E+02  0.00000000000E+00 0.  1.
</event>
<event>
 7    1  0.5138511E-013  0.5052873E+02  0.7816164E-02  0.1300439E+00
        -11   -1    0    0    0    0  0.00000000000E+00  0.00000000000E+00  0.45593999997E+02  0.45594000000E+02  0.51100000000E-03 0.  1.
         11   -1    0    0    0    0 -0.00000000000E+00 -0.00000000000E+00 -0.45593999997E+02  0.45594000000E+02  0.51100000000E-03 0. -1.
    9900012    2    1    2    0    0  0.30543603733E+02 -0.89141466489E+00 -0.26822929066E+02  0.50528734478E+02  0.29999618916E+02 0.  0.
        -12    1    1    2    0    0 -0.30543603733E+02  0.89141466489E+00  0.26822929066E+02  0.40659265522E+02  0.00000000000E+00 0.  1.
         11    1    3    3    0    0  0.12920741017E+02  0.43699708859E+01 -0.67474718174E+00  0.13656407947E+02  0.51100000000E-03 0. -1.
        -11    1    3    3    0    0  0.60041610983E+01 -0.75869878263E+01 -0.18664638657E+01  0.98537313944E+01  0.51100000000E-03 0.  1.
        -12    1    3    3    0    0  0.11618701617E+02  0.23256022755E+01 -0.24281718019E+02  0.27018595137E+02  0.00000000000E+00 0.  1.
</event>
<event>
 7    1  0.5138511E-013  0.5052886E+02  0.7816164E-02  0.1300439E+00
        -11   -1    0    0    0    0  0.00000000000E+00  0.00000000000E+00  0.45593999997E+02  0.45594000000E+02  0.51100000000E-03 0.  1.
         11   -1    0    0    0    0 -0.00000000000E+00 -0.00000000000E+00 -0.45593999997E+02  0.45594000000E+02  0.51100000000E-03 0. -1.
    9900012    2    1    2    0    0  0.81216944536E+01  0.54170736760E+01 -0.39469722773E+02  0.50528860514E+02  0.30000002017E+02 0.  0.
        -12    1    1    2    0    0 -0.81216944536E+01 -0.54170736760E+01  0.39469722773E+02  0.40659139486E+02  0.00000000000E+00 0.  1.
         11    1    3    3    0    0  0.76737906998E+01 -0.51109281437E+01 -0.21118439140E+02  0.23043374800E+02  0.51100000000E-03 0. -1.
        -11    1    3    3    0    0 -0.51044015543E-01 -0.24369265007E+01  0.21323071513E+01  0.32385105079E+01  0.51100000000E-03 0.  1.
         12    1    3    3    0    0  0.49894776930E+00  0.12964928320E+02 -0.20483590784E+02  0.24246975206E+02  0.00000000000E+00 0. -1.
</event>
<event>
 7    1  0.5138511E-013  0.5052885E+02  0.7816164E-02  0.1300439E+00
        -11   -1    0    0    0    0  0.00000000000E+00  0.00000000000E+00  0.45593999997E+02  0.45594000000E+02  0.51100000000E-03 0.  1.
         11   -1    0    0    0    0 -0.00000000000E+00 -0.00000000000E+00 -0.45593999997E+02  0.45594000000E+02  0.51100000000E-03 0. -1.
    9900012    2    1    2    0    0  0.26146726914E+02 -0.90548742648E+01 -0.29791344279E+02  0.50528852564E+02  0.29999977855E+02 0.  0.
        -12    1    1    2    0    0 -0.26146726914E+02  0.90548742648E+01  0.29791344279E+02  0.40659147436E+02  0.00000000000E+00 0.  1.
         11    1    3    3    0    0  0.20063709382E+02  0.25160384609E+01 -0.92664658301E+01  0.22242982555E+02  0.51100000000E-03 0. -1.
        -11    1    3    3    0    0  0.85035523254E+01 -0.10747763391E+01 -0.75483682757E+01  0.11421182523E+02  0.51100000000E-03 0.  1.
        -12    1    3    3    0    0 -0.24205347942E+01 -0.10496136387E+02 -0.12976510173E+02  0.16864687486E+02  0.00000000000E+00 0.  1.
</event>
<event>
 7    1  0.5138511E-013  0.5052878E+02  0.7816164E-02  0.1300439E+00
        -11   -1    0    0    0    0  0.00000000000E+00  0.00000000000E+00  0.45593999997E+02  0.45594000000E+02  0.51100000000E-03 0.  1.
         11   -1    0    0    0    0 -0.00000000000E+00 -0.00000000000E+00 -0.45593999997E+02  0.45594000000E+02  0.51100000000E-03 0. -1.
    9900012    2    1    2    0    0 -0.16142208441E+02  0.28615250853E+02 -0.23953476082E+02  0.50528776063E+02  0.29999745319E+02 0.  0.
        -12    1    1    2    0    0  0.16142208441E+02 -0.28615250853E+02  0.23953476082E+02  0.40659223937E+02  0.00000000000E+00 0.  1.
         11    1    3    3    0    0  0.42022258003E+00  0.69808492387E+01 -0.13134243522E+02  0.14880093960E+02  0.51100000000E-03 0. -1.
        -11    1    3    3    0    0  0.90800854108E+00  0.23892674913E+01  0.47186098770E+01  0.53664101677E+01  0.51100000000E-03 0.  1.
         12    1    3    3    0    0 -0.17470439562E+02  0.19245134123E+02 -0.15537842438E+02  0.30282271935E+02  0.00000000000E+00 0. -1.
</event>
<event>
 7    1  0.5138511E-013  0.5052886E+02  0.7816164E-02  0.1300439E+00
        -11   -1    0    0    0    0  0.00000000000E+00  0.00000000000E+00  0.45593999997E+02  0.45594000000E+02  0.51100000000E-03 0.  1.
         11   -1    0    0    0    0 -0.00000000000E+00 -0.00000000000E+00 -0.45593999997E+02  0.45594000000E+02  0.51100000000E-03 0. -1.
    9900012    2    1    2    0    0  0.22266419077E+02 -0.41834657088E+01 -0.33761971086E+02  0.50528862092E+02  0.30000006813E+02 0.  0.
        -12    1    1    2    0    0 -0.22266419077E+02  0.41834657088E+01  0.33761971086E+02  0.40659137908E+02  0.00000000000E+00 0.  1.
         11    1    3    3    0    0  0.99251643423E+01  0.75832868935E+01 -0.18056778785E+01  0.12620443740E+02  0.51100000000E-03 0.  1.
        -11    1    3    3    0    0  0.77496108398E+01 -0.31275017181E+01 -0.63470261943E+01  0.10493925716E+02  0.51100000000E-03 0. -1.
        -12    1    3    3    0    0  0.45916438948E+01 -0.86392508842E+01 -0.25609267013E+02  0.27414492635E+02  0.00000000000E+00 0.  1.
</event>
<event>
 7    1  0.5138511E-013  0.5052886E+02  0.7816164E-02  0.1300439E+00
        -11   -1    0    0    0    0  0.00000000000E+00  0.00000000000E+00  0.45593999997E+02  0.45594000000E+02  0.51100000000E-03 0.  1.
         11   -1    0    0    0    0 -0.00000000000E+00 -0.00000000000E+00 -0.45593999997E+02  0.45594000000E+02  0.51100000000E-03 0. -1.
    9900012    2    1    2    0    0  0.31007004878E+02  0.25128934422E+02  0.77632238565E+01  0.50528863987E+02  0.30000012575E+02 0.  0.
        -12    1    1    2    0    0 -0.31007004878E+02 -0.25128934422E+02 -0.77632238565E+01  0.40659136013E+02  0.00000000000E+00 0.  1.
         11    1    3    3    0    0  0.18006072912E+01 -0.26186578839E+01  0.58809894715E+01  0.66847283531E+01  0.51100000000E-03 0. -1.
        -11    1    3    3    0    0 -0.80785834477E-01 -0.19977011520E+01 -0.39727214022E+00  0.20384213642E+01  0.51100000000E-03 0.  1.
         12    1    3    3    0    0  0.29287183421E+02  0.29745293457E+02  0.22795065253E+01  0.41805714270E+02  0.00000000000E+00 0. -1.
</event>
<event>
 7    1  0.5138511E-013  0.5052885E+02  0.7816164E-02  0.1300439E+00
        -11   -1    0    0    0    0  0.00000000000E+00  0.00000000000E+00  0.45593999997E+02  0.45594000000E+02  0.51100000000E-03 0.  1.
         11   -1    0    0    0    0 -0.00000000000E+00 -0.00000000000E+00 -0.45593999997E+02  0.45594000000E+02  0.51100000000E-03 0. -1.
    9900012    2    1    2    0    0 -0.35630996792E+02 -0.12688614489E+02 -0.14919694717E+02  0.50528853913E+02  0.29999981955E+02 0.  0.
        -12    1    1    2    0    0  0.35630996792E+02  0.12688614489E+02  0.14919694717E+02  0.40659146087E+02  0.00000000000E+00 0.  1.
         11    1    3    3    0    0 -0.97621374336E+01  0.18332842232E+00 -0.60010336717E+01  0.11460599547E+02  0.51100000000E-03 0. -1.
        -11    1    3    3    0    0 -0.29315194254E+02 -0.15161161263E+02 -0.50196885488E+01  0.33383209828E+02  0.51100000000E-03 0.  1.
        -12    1    3    3    0    0  0.34463348959E+01  0.22892183522E+01 -0.38989724968E+01  0.56850445389E+01  0.00000000000E+00 0.  1.
</event>
<event>
 7    1  0.5138511E-013  0.5052887E+02  0.7816164E-02  0.1300439E+00
        -11   -1    0    0    0    0  0.00000000000E+00  0.00000000000E+00  0.45593999997E+02  0.45594000000E+02  0.51100000000E-03 0.  1.
         11   -1    0    0    0    0 -0.00000000000E+00 -0.00000000000E+00 -0.45593999997E+02  0.45594000000E+02  0.51100000000E-03 0. -1.
    9900012    2    1    2    0    0  0.19475866107E+02  0.27866801541E+02 -0.22300161532E+02  0.50528865810E+02  0.30000018115E+02 0.  0.
        -12    1    1    2    0    0 -0.19475866107E+02 -0.27866801541E+02  0.22300161532E+02  0.40659134190E+02  0.00000000000E+00 0.  1.
         11    1    3    3    0    0  0.20748916719E+02  0.19849112330E+02 -0.12301043026E+02  0.31238125185E+02  0.51100000000E-03 0. -1.
        -11    1    3    3    0    0  0.13570671556E+01 -0.34674435682E+01  0.16908199643E+00  0.37273831498E+01  0.51100000000E-03 0.  1.
        -12    1    3    3    0    0 -0.26301177669E+01  0.11485132779E+02 -0.10168200503E+02  0.15563357475E+02  0.00000000000E+00 0.  1.
</event>
<event>
 7    1  0.5138511E-013  0.5052886E+02  0.7816164E-02  0.1300439E+00
        -11   -1    0    0    0    0  0.00000000000E+00  0.00000000000E+00  0.45593999997E+02  0.45594000000E+02  0.51100000000E-03 0.  1.
         11   -1    0    0    0    0 -0.00000000000E+00 -0.00000000000E+00 -0.45593999997E+02  0.45594000000E+02  0.51100000000E-03 0. -1.
    9900012    2    1    2    0    0  0.27747704310E+01 -0.24650972089E+02 -0.32214838342E+02  0.50528860987E+02  0.30000003457E+02 0.  0.
        -12    1    1    2    0    0 -0.27747704310E+01  0.24650972089E+02  0.32214838342E+02  0.40659139013E+02  0.00000000000E+00 0.  1.
         11    1    3    3    0    0 -0.10116895322E+01 -0.72310286239E+00 -0.55052964532E+01  0.56439952833E+01  0.51100000000E-03 0. -1.
        -11    1    3    3    0    0  0.10859940608E+01 -0.28348337892E+02 -0.15022180024E+02  0.32100989662E+02  0.51100000000E-03 0.  1.
        -12    1    3    3    0    0  0.27004659024E+01  0.44204686653E+01 -0.11687361865E+02  0.12783876042E+02  0.00000000000E+00 0.  1.
</event>
<event>
 7    1  0.5138511E-013  0.5052886E+02  0.7816164E-02  0.1300439E+00
        -11   -1    0    0    0    0  0.00000000000E+00  0.00000000000E+00  0.45593999997E+02  0.45594000000E+02  0.51100000000E-03 0.  1.
         11   -1    0    0    0    0 -0.00000000000E+00 -0.00000000000E+00 -0.45593999997E+02  0.45594000000E+02  0.51100000000E-03 0. -1.
    9900012    2    1    2    0    0  0.33422719466E+02 -0.22804295300E+02 -0.40064524480E+01  0.50528859308E+02  0.29999998352E+02 0.  0.
        -12    1    1    2    0    0 -0.33422719466E+02  0.22804295300E+02  0.40064524480E+01  0.40659140692E+02  0.00000000000E+00 0.  1.
         11    1    3    3    0    0  0.10769472664E+02  0.25473043844E+01  0.53637571044E+01  0.12297975103E+02  0.51100000000E-03 0. -1.
        -11    1    3    3    0    0 -0.13234548083E+01 -0.27150995651E+01 -0.36941384754E+01  0.47717876750E+01  0.51100000000E-03 0.  1.
         12    1    3    3    0    0  0.23976701609E+02 -0.22636500119E+02 -0.56760710770E+01  0.33459096530E+02  0.00000000000E+00 0. -1.
</event>
<event>
 7    1  0.5138511E-013  0.5052886E+02  0.7816164E-02  0.1300439E+00
        -11   -1    0    0    0    0  0.00000000000E+00  0.00000000000E+00  0.45593999997E+02  0.45594000000E+02  0.51100000000E-03 0.  1.
         11   -1    0    0    0    0 -0.00000000000E+00 -0.00000000000E+00 -0.45593999997E+02  0.45594000000E+02  0.51100000000E-03 0. -1.
    9900012    2    1    2    0    0 -0.27709766293E+02  0.21170658490E+02 -0.20907841219E+02  0.50528858920E+02  0.29999997173E+02 0.  0.
        -12    1    1    2    0    0  0.27709766293E+02 -0.21170658490E+02  0.20907841219E+02  0.40659141080E+02  0.00000000000E+00 0.  1.
         11    1    3    3    0    0 -0.76829626661E+01  0.13147863206E+02 -0.21533800728E+02  0.26374207027E+02  0.51100000000E-03 0. -1.
        -11    1    3    3    0    0 -0.35604143791E+01  0.44610846519E+01 -0.36478541753E+01  0.67738221978E+01  0.51100000000E-03 0.  1.
        -12    1    3    3    0    0 -0.16466389248E+02  0.35617106322E+01  0.42738136843E+01  0.17380829695E+02  0.00000000000E+00 0.  1.
</event>
<event>
 7    1  0.5138511E-013  0.5052886E+02  0.7816164E-02  0.1300439E+00
        -11   -1    0    0    0    0  0.00000000000E+00  0.00000000000E+00  0.45593999997E+02  0.45594000000E+02  0.51100000000E-03 0. -1.
         11   -1    0    0    0    0 -0.00000000000E+00 -0.00000000000E+00 -0.45593999997E+02  0.45594000000E+02  0.51100000000E-03 0.  1.
    9900012    2    1    2    0    0 -0.28356799615E+02  0.19996265011E+02 -0.21194504312E+02  0.50528859431E+02  0.29999998727E+02 0.  0.
        -12    1    1    2    0    0  0.28356799615E+02 -0.19996265011E+02  0.21194504312E+02  0.40659140569E+02  0.00000000000E+00 0.  1.
         11    1    3    3    0    0 -0.16290047662E+02  0.10334339461E+02 -0.12132712176E+01  0.19329672843E+02  0.51100000000E-03 0. -1.
        -11    1    3    3    0    0 -0.36902372434E+01  0.13617887010E+02 -0.15326388309E+02  0.20831775642E+02  0.51100000000E-03 0.  1.
         12    1    3    3    0    0 -0.83765147099E+01 -0.39559614601E+01 -0.46548447847E+01  0.10367410946E+02  0.00000000000E+00 0. -1.
</event>
<event>
 7    1  0.5138511E-013  0.5052889E+02  0.7816164E-02  0.1300439E+00
        -11   -1    0    0    0    0  0.00000000000E+00  0.00000000000E+00  0.45593999997E+02  0.45594000000E+02  0.51100000000E-03 0. -1.
         11   -1    0    0    0    0 -0.00000000000E+00 -0.00000000000E+00 -0.45593999997E+02  0.45594000000E+02  0.51100000000E-03 0.  1.
    9900012    2    1    2    0    0 -0.10351399016E+02  0.59786400653E+01  0.38862159733E+02  0.50528892070E+02  0.30000097934E+02 0.  0.
        -12    1    1    2    0    0  0.10351399016E+02 -0.59786400653E+01 -0.38862159733E+02  0.40659107930E+02  0.00000000000E+00 0.  1.
         11    1    3    3    0    0 -0.23395749894E+01 -0.49823965636E+01  0.22956852994E+02  0.23607519699E+02  0.51100000000E-03 0. -1.
        -11    1    3    3    0    0  0.48517308434E+01  0.49057125696E-01  0.35086684888E+01  0.59876918428E+01  0.51100000000E-03 0.  1.
        -12    1    3    3    0    0 -0.12863554870E+02  0.10911979503E+02  0.12396638249E+02  0.20933680528E+02  0.00000000000E+00 0.  1.
</event>
<event>
 7    1  0.5138511E-013  0.5052884E+02  0.7816164E-02  0.1300439E+00
        -11   -1    0    0    0    0  0.00000000000E+00  0.00000000000E+00  0.45593999997E+02  0.45594000000E+02  0.51100000000E-03 0. -1.
         11   -1    0    0    0    0 -0.00000000000E+00 -0.00000000000E+00 -0.45593999997E+02  0.45594000000E+02  0.51100000000E-03 0.  1.
    9900012    2    1    2    0    0  0.10971446403E+02  0.51697362095E+01  0.38808095557E+02  0.50528842490E+02  0.29999947234E+02 0.  0.
        -12    1    1    2    0    0 -0.10971446403E+02 -0.51697362095E+01 -0.38808095557E+02  0.40659157510E+02  0.00000000000E+00 0.  1.
         11    1    3    3    0    0 -0.31974360261E+01  0.67352258744E+01  0.22753405753E+02  0.23943774522E+02  0.51100000000E-03 0. -1.
        -11    1    3    3    0    0  0.77136563652E+01 -0.70256121890E+01  0.14694076765E+02  0.18021531938E+02  0.51100000000E-03 0.  1.
         12    1    3    3    0    0  0.64552260636E+01  0.54601225241E+01  0.13606130388E+01  0.85635360309E+01  0.00000000000E+00 0. -1.
</event>
<event>
 7    1  0.5138511E-013  0.5052887E+02  0.7816164E-02  0.1300439E+00
        -11   -1    0    0    0    0  0.00000000000E+00  0.00000000000E+00  0.45593999997E+02  0.45594000000E+02  0.51100000000E-03 0. -1.
         11   -1    0    0    0    0 -0.00000000000E+00 -0.00000000000E+00 -0.45593999997E+02  0.45594000000E+02  0.51100000000E-03 0.  1.
    9900012    2    1    2    0    0 -0.26791392071E+02  0.10733844795E+02  0.28638629361E+02  0.50528865666E+02  0.30000017677E+02 0.  0.
        -12    1    1    2    0    0  0.26791392071E+02 -0.10733844795E+02 -0.28638629361E+02  0.40659134334E+02  0.00000000000E+00 0.  1.
         11    1    3    3    0    0 -0.19763618178E+02  0.18336494462E+00  0.12096028315E+02  0.23172141192E+02  0.51100000000E-03 0. -1.
        -11    1    3    3    0    0 -0.12484347280E+02  0.86093761716E+01  0.15072913826E+02  0.21381604629E+02  0.51100000000E-03 0.  1.
        -12    1    3    3    0    0  0.54565733874E+01  0.19411036784E+01  0.14696872200E+01  0.59751198437E+01  0.00000000000E+00 0.  1.
</event>
<event>
 7    1  0.5138511E-013  0.5052887E+02  0.7816164E-02  0.1300439E+00
        -11   -1    0    0    0    0  0.00000000000E+00  0.00000000000E+00  0.45593999997E+02  0.45594000000E+02  0.51100000000E-03 0.  1.
         11   -1    0    0    0    0 -0.00000000000E+00 -0.00000000000E+00 -0.45593999997E+02  0.45594000000E+02  0.51100000000E-03 0. -1.
    9900012    2    1    2    0    0  0.70546481771E+01  0.15490215321E+01 -0.40012466865E+02  0.50528867775E+02  0.30000024090E+02 0.  0.
        -12    1    1    2    0    0 -0.70546481771E+01 -0.15490215321E+01  0.40012466865E+02  0.40659132225E+02  0.00000000000E+00 0.  1.
         11    1    3    3    0    0  0.40483627027E+01  0.43448222861E+01 -0.19619859607E+02  0.20498917350E+02  0.51100000000E-03 0. -1.
        -11    1    3    3    0    0  0.10316359789E+02  0.48701625002E+01 -0.96333819054E+01  0.14931436946E+02  0.51100000000E-03 0.  1.
        -12    1    3    3    0    0 -0.73100743145E+01 -0.76659632542E+01 -0.10759225353E+02  0.15098513480E+02  0.00000000000E+00 0.  1.
</event>
<event>
 7    1  0.5138511E-013  0.5052886E+02  0.7816164E-02  0.1300439E+00
        -11   -1    0    0    0    0  0.00000000000E+00  0.00000000000E+00  0.45593999997E+02  0.45594000000E+02  0.51100000000E-03 0.  1.
         11   -1    0    0    0    0 -0.00000000000E+00 -0.00000000000E+00 -0.45593999997E+02  0.45594000000E+02  0.51100000000E-03 0. -1.
    9900012    2    1    2    0    0  0.24401386005E+02  0.88051942145E+01 -0.31308257026E+02  0.50528855370E+02  0.29999986381E+02 0.  0.
        -12    1    1    2    0    0 -0.24401386005E+02 -0.88051942145E+01  0.31308257026E+02  0.40659144630E+02  0.00000000000E+00 0.  1.
         11    1    3    3    0    0  0.14129650270E+02 -0.36495016465E+01 -0.25297644267E+02  0.29205079776E+02  0.51100000000E-03 0. -1.
        -11    1    3    3    0    0  0.96284391795E+01  0.22016245100E+01 -0.11024266306E+01  0.99382763221E+01  0.51100000000E-03 0.  1.
        -12    1    3    3    0    0  0.64329655471E+00  0.10253071351E+02 -0.49081861284E+01  0.11385499271E+02  0.00000000000E+00 0.  1.
</event>
<event>
 7    1  0.5138511E-013  0.5052894E+02  0.7816164E-02  0.1300439E+00
        -11   -1    0    0    0    0  0.00000000000E+00  0.00000000000E+00  0.45593999997E+02  0.45594000000E+02  0.51100000000E-03 0. -1.
         11   -1    0    0    0    0 -0.00000000000E+00 -0.00000000000E+00 -0.45593999997E+02  0.45594000000E+02  0.51100000000E-03 0.  1.
    9900012    2    1    2    0    0 -0.29982119132E+02  0.82113486034E+01  0.26206973220E+02  0.50528940015E+02  0.30000243668E+02 0.  0.
        -12    1    1    2    0    0  0.29982119132E+02 -0.82113486034E+01 -0.26206973220E+02  0.40659059985E+02  0.00000000000E+00 0.  1.
         11    1    3    3    0    0 -0.84349651955E+01  0.47566470912E+01  0.30748569093E+01  0.10160170996E+02  0.51100000000E-03 0. -1.
        -11    1    3    3    0    0  0.13188581257E+01 -0.38959661352E+00 -0.42624049338E+01  0.44787574569E+01  0.51100000000E-03 0.  1.
         12    1    3    3    0    0 -0.22866012062E+02  0.38442981257E+01  0.27394521244E+02  0.35890011562E+02  0.00000000000E+00 0. -1.
</event>
<event>
 7    1  0.5138511E-013  0.5052887E+02  0.7816164E-02  0.1300439E+00
        -11   -1    0    0    0    0  0.00000000000E+00  0.00000000000E+00  0.45593999997E+02  0.45594000000E+02  0.51100000000E-03 0.  1.
         11   -1    0    0    0    0 -0.00000000000E+00 -0.00000000000E+00 -0.45593999997E+02  0.45594000000E+02  0.51100000000E-03 0. -1.
    9900012    2    1    2    0    0 -0.22274902190E+02 -0.96500549608E+01 -0.32617024386E+02  0.50528866855E+02  0.30000021291E+02 0.  0.
        -12    1    1    2    0    0  0.22274902190E+02  0.96500549608E+01  0.32617024386E+02  0.40659133145E+02  0.00000000000E+00 0.  1.
         11    1    3    3    0    0 -0.15293380303E+01  0.60697994196E+01 -0.20948917236E+02  0.21864090959E+02  0.51100000000E-03 0.  1.
        -11    1    3    3    0    0 -0.51251337527E+01 -0.27829435532E+01 -0.34867645349E+01  0.67947993338E+01  0.51100000000E-03 0. -1.
        -12    1    3    3    0    0 -0.15620430407E+02 -0.12936910827E+02 -0.81813426148E+01  0.21869976562E+02  0.00000000000E+00 0.  1.
</event>
<event>
 7    1  0.5138511E-013  0.5052886E+02  0.7816164E-02  0.1300439E+00
        -11   -1    0    0    0    0  0.00000000000E+00  0.00000000000E+00  0.45593999997E+02  0.45594000000E+02  0.51100000000E-03 0.  1.
         11   -1    0    0    0    0 -0.00000000000E+00 -0.00000000000E+00 -0.45593999997E+02  0.45594000000E+02  0.51100000000E-03 0. -1.
    9900012    2    1    2    0    0  0.38744841690E+02 -0.29655298646E+01 -0.11966968219E+02  0.50528862610E+02  0.30000008388E+02 0.  0.
        -12    1    1    2    0    0 -0.38744841690E+02  0.29655298646E+01  0.11966968219E+02  0.40659137390E+02  0.00000000000E+00 0.  1.
         11    1    3    3    0    0  0.13532506427E+02 -0.84954310063E+01 -0.55876481255E+01  0.16926987033E+02  0.51100000000E-03 0. -1.
        -11    1    3    3    0    0  0.26325921471E+02  0.20201879750E+01 -0.10191328270E+02  0.28301916418E+02  0.51100000000E-03 0.  1.
        -12    1    3    3    0    0 -0.11135862075E+01  0.35097131666E+01  0.38120081764E+01  0.52999591593E+01  0.00000000000E+00 0.  1.
</event>
<event>
 7    1  0.5138511E-013  0.5052885E+02  0.7816164E-02  0.1300439E+00
        -11   -1    0    0    0    0  0.00000000000E+00  0.00000000000E+00  0.45593999997E+02  0.45594000000E+02  0.51100000000E-03 0.  1.
         11   -1    0    0    0    0 -0.00000000000E+00 -0.00000000000E+00 -0.45593999997E+02  0.45594000000E+02  0.51100000000E-03 0. -1.
    9900012    2    1    2    0    0  0.34756440974E+02  0.10980095538E+02 -0.18016489834E+02  0.50528848593E+02  0.29999965784E+02 0.  0.
        -12    1    1    2    0    0 -0.34756440974E+02 -0.10980095538E+02  0.18016489834E+02  0.40659151407E+02  0.00000000000E+00 0.  1.
         11    1    3    3    0    0  0.76185286848E+01  0.34755035916E+01 -0.66667125570E+01  0.10703558339E+02  0.51100000000E-03 0. -1.
        -11    1    3    3    0    0  0.27329472385E+02  0.10103274313E+02 -0.10019434971E+01  0.29154418254E+02  0.51100000000E-03 0.  1.
        -12    1    3    3    0    0 -0.19156009574E+00 -0.25986823670E+01 -0.10347833780E+02  0.10670872001E+02  0.00000000000E+00 0.  1.
</event>
<event>
 7    1  0.5138511E-013  0.5052885E+02  0.7816164E-02  0.1300439E+00
        -11   -1    0    0    0    0  0.00000000000E+00  0.00000000000E+00  0.45593999997E+02  0.45594000000E+02  0.51100000000E-03 0.  1.
         11   -1    0    0    0    0 -0.00000000000E+00 -0.00000000000E+00 -0.45593999997E+02  0.45594000000E+02  0.51100000000E-03 0. -1.
    9900012    2    1    2    0    0  0.20602738163E+02 -0.19224827497E+02 -0.29310397361E+02  0.50528853359E+02  0.29999980270E+02 0.  0.
        -12    1    1    2    0    0 -0.20602738163E+02  0.19224827497E+02  0.29310397361E+02  0.40659146641E+02  0.00000000000E+00 0.  1.
         11    1    3    3    0    0  0.95834452803E+00 -0.16416205917E+02 -0.14649545084E+02  0.22023156276E+02  0.51100000000E-03 0. -1.
        -11    1    3    3    0    0  0.32198071925E+01 -0.17130821077E+01 -0.11072957087E+02  0.11658138255E+02  0.51100000000E-03 0.  1.
        -12    1    3    3    0    0  0.16424586443E+02 -0.10955394722E+01 -0.35878951899E+01  0.16847558827E+02  0.00000000000E+00 0.  1.
</event>
<event>
 7    1  0.5138511E-013  0.5052886E+02  0.7816164E-02  0.1300439E+00
        -11   -1    0    0    0    0  0.00000000000E+00  0.00000000000E+00  0.45593999997E+02  0.45594000000E+02  0.51100000000E-03 0. -1.
         11   -1    0    0    0    0 -0.00000000000E+00 -0.00000000000E+00 -0.45593999997E+02  0.45594000000E+02  0.51100000000E-03 0.  1.
    9900012    2    1    2    0    0  0.45897733189E+01  0.39556993043E+02  0.82063404617E+01  0.50528859066E+02  0.29999997618E+02 0.  0.
        -12    1    1    2    0    0 -0.45897733189E+01 -0.39556993043E+02 -0.82063404617E+01  0.40659140934E+02  0.00000000000E+00 0.  1.
         11    1    3    3    0    0  0.53427707704E+01  0.96506606802E+01 -0.59647059505E+00  0.11047000883E+02  0.51100000000E-03 0. -1.
        -11    1    3    3    0    0  0.11020217874E+02  0.15753249444E+02  0.86248502832E+01  0.21071262723E+02  0.51100000000E-03 0.  1.
        -12    1    3    3    0    0 -0.11773215326E+02  0.14153082918E+02  0.17796077355E+00  0.18410595461E+02  0.00000000000E+00 0.  1.
</event>
<event>
 7    1  0.5138511E-013  0.5052887E+02  0.7816164E-02  0.1300439E+00
        -11   -1    0    0    0    0  0.00000000000E+00  0.00000000000E+00  0.45593999997E+02  0.45594000000E+02  0.51100000000E-03 0. -1.
         11   -1    0    0    0    0 -0.00000000000E+00 -0.00000000000E+00 -0.45593999997E+02  0.45594000000E+02  0.51100000000E-03 0.  1.
    9900012    2    1    2    0    0 -0.40542408767E+02  0.29246415263E+01 -0.96144826879E+00  0.50528870404E+02  0.30000032081E+02 0.  0.
        -12    1    1    2    0    0  0.40542408767E+02 -0.29246415263E+01  0.96144826879E+00  0.40659129596E+02  0.00000000000E+00 0.  1.
         11    1    3    3    0    0 -0.10589600723E+02  0.92383289695E+00 -0.92848353295E+01  0.14113868288E+02  0.51100000000E-03 0. -1.
        -11    1    3    3    0    0 -0.52733891044E+01 -0.43168546140E+01  0.85563870930E+01  0.10938721440E+02  0.51100000000E-03 0.  1.
         12    1    3    3    0    0 -0.24679418940E+02  0.63176632434E+01 -0.23300003229E+00  0.25476280676E+02  0.00000000000E+00 0. -1.
</event>
<event>
 7    1  0.5138511E-013  0.5052886E+02  0.7816164E-02  0.1300439E+00
        -11   -1    0    0    0    0  0.00000000000E+00  0.00000000000E+00  0.45593999997E+02  0.45594000000E+02  0.51100000000E-03 0. -1.
         11   -1    0    0    0    0 -0.00000000000E+00 -0.00000000000E+00 -0.45593999997E+02  0.45594000000E+02  0.51100000000E-03 0.  1.
    9900012    2    1    2    0    0  0.29408053526E+02 -0.25316563582E+02  0.12141003982E+02  0.50528856115E+02  0.29999988646E+02 0.  0.
        -12    1    1    2    0    0 -0.29408053526E+02  0.25316563582E+02 -0.12141003982E+02  0.40659143885E+02  0.00000000000E+00 0.  1.
         11    1    3    3    0    0  0.15181338341E+02 -0.16457004553E+02  0.13358346115E+02  0.26072043340E+02  0.51100000000E-03 0. -1.
        -11    1    3    3    0    0  0.15557735253E+02 -0.19460425375E+00 -0.18440655234E+01  0.15667851638E+02  0.51100000000E-03 0.  1.
        -12    1    3    3    0    0 -0.13310200683E+01 -0.86649547744E+01  0.62672339014E+00  0.87889611373E+01  0.00000000000E+00 0.  1.
</event>
<event>
 7    1  0.5138511E-013  0.5052885E+02  0.7816164E-02  0.1300439E+00
        -11   -1    0    0    0    0  0.00000000000E+00  0.00000000000E+00  0.45593999997E+02  0.45594000000E+02  0.51100000000E-03 0.  1.
         11   -1    0    0    0    0 -0.00000000000E+00 -0.00000000000E+00 -0.45593999997E+02  0.45594000000E+02  0.51100000000E-03 0. -1.
    9900012    2    1    2    0    0 -0.31587744027E+02 -0.60455707372E+01 -0.24876335192E+02  0.50528849113E+02  0.29999967365E+02 0.  0.
        -12    1    1    2    0    0  0.31587744027E+02  0.60455707372E+01  0.24876335192E+02  0.40659150887E+02  0.00000000000E+00 0.  1.
         11    1    3    3    0    0 -0.89402086852E+01 -0.64065565858E+01 -0.17281946239E+02  0.20485042463E+02  0.51100000000E-03 0. -1.
        -11    1    3    3    0    0 -0.12994937811E+02  0.87401255909E+01 -0.72488916712E+01  0.17257016972E+02  0.51100000000E-03 0.  1.
         12    1    3    3    0    0 -0.96525975304E+01 -0.83791397422E+01 -0.34549728109E+00  0.12786789678E+02  0.00000000000E+00 0. -1.
</event>
<event>
 7    1  0.5138511E-013  0.5052886E+02  0.7816164E-02  0.1300439E+00
        -11   -1    0    0    0    0  0.00000000000E+00  0.00000000000E+00  0.45593999997E+02  0.45594000000E+02  0.51100000000E-03 0.  1.
         11   -1    0    0    0    0 -0.00000000000E+00 -0.00000000000E+00 -0.45593999997E+02  0.45594000000E+02  0.51100000000E-03 0. -1.
    9900012    2    1    2    0    0 -0.31163036071E+01  0.36900896104E+02 -0.16786250165E+02  0.50528859870E+02  0.30000000062E+02 0.  0.
        -12    1    1    2    0    0  0.31163036071E+01 -0.36900896104E+02  0.16786250165E+02  0.40659140130E+02  0.00000000000E+00 0.  1.
         11    1    3    3    0    0 -0.12507090454E+01  0.28909967079E+02 -0.18395559972E+02  0.34289168794E+02  0.51100000000E-03 0. -1.
        -11    1    3    3    0    0  0.49320779688E+00 -0.17041160816E+01 -0.42941743581E+01  0.46462026677E+01  0.51100000000E-03 0.  1.
        -12    1    3    3    0    0 -0.23588023585E+01  0.96950451072E+01  0.59034841652E+01  0.11593488409E+02  0.00000000000E+00 0.  1.
</event>
<event>
 7    1  0.5138511E-013  0.5052886E+02  0.7816164E-02  0.1300439E+00
        -11   -1    0    0    0    0  0.00000000000E+00  0.00000000000E+00  0.45593999997E+02  0.45594000000E+02  0.51100000000E-03 0. -1.
         11   -1    0    0    0    0 -0.00000000000E+00 -0.00000000000E+00 -0.45593999997E+02  0.45594000000E+02  0.51100000000E-03 0.  1.
    9900012    2    1    2    0    0 -0.30892021479E+02 -0.11048011280E+02  0.24016451968E+02  0.50528861919E+02  0.30000006289E+02 0.  0.
        -12    1    1    2    0    0  0.30892021479E+02  0.11048011280E+02 -0.24016451968E+02  0.40659138081E+02  0.00000000000E+00 0.  1.
         11    1    3    3    0    0 -0.11890037887E+01  0.49776415672E+01  0.56364892171E+01  0.76131896428E+01  0.51100000000E-03 0. -1.
        -11    1    3    3    0    0 -0.22142458568E+02 -0.45607582429E+01  0.38683224158E+01  0.22935843254E+02  0.51100000000E-03 0.  1.
        -12    1    3    3    0    0 -0.75605591224E+01 -0.11464894604E+02  0.14511640335E+02  0.19979829022E+02  0.00000000000E+00 0.  1.
</event>
<event>
 7    1  0.5138511E-013  0.5052887E+02  0.7816164E-02  0.1300439E+00
        -11   -1    0    0    0    0  0.00000000000E+00  0.00000000000E+00  0.45593999997E+02  0.45594000000E+02  0.51100000000E-03 0. -1.
         11   -1    0    0    0    0 -0.00000000000E+00 -0.00000000000E+00 -0.45593999997E+02  0.45594000000E+02  0.51100000000E-03 0.  1.
    9900012    2    1    2    0    0  0.48349566365E+01 -0.38565654191E+02 -0.11936447032E+02  0.50528865029E+02  0.30000015743E+02 0.  0.
        -12    1    1    2    0    0 -0.48349566365E+01  0.38565654191E+02  0.11936447032E+02  0.40659134971E+02  0.00000000000E+00 0.  1.
         11    1    3    3    0    0  0.87574953982E+00  0.46901393772E+00  0.11872663879E+00  0.10005036762E+01  0.51100000000E-03 0.  1.
        -11    1    3    3    0    0 -0.68038002176E+01 -0.32049762202E+02 -0.13061726591E+01  0.32790014362E+02  0.51100000000E-03 0. -1.
         12    1    3    3    0    0  0.10763007314E+02 -0.69849059265E+01 -0.10749001011E+02  0.16738346991E+02  0.00000000000E+00 0. -1.
</event>
<event>
 7    1  0.5138511E-013  0.5052887E+02  0.7816164E-02  0.1300439E+00
        -11   -1    0    0    0    0  0.00000000000E+00  0.00000000000E+00  0.45593999997E+02  0.45594000000E+02  0.51100000000E-03 0.  1.
         11   -1    0    0    0    0 -0.00000000000E+00 -0.00000000000E+00 -0.45593999997E+02  0.45594000000E+02  0.51100000000E-03 0. -1.
    9900012    2    1    2    0    0 -0.53135012677E+01  0.11294516535E+02 -0.38695808038E+02  0.50528868687E+02  0.30000026860E+02 0.  0.
        -12    1    1    2    0    0  0.53135012677E+01 -0.11294516535E+02  0.38695808038E+02  0.40659131313E+02  0.00000000000E+00 0.  1.
         11    1    3    3    0    0 -0.49428024798E+01  0.61709629687E+00  0.26042515525E+01  0.56208745409E+01  0.51100000000E-03 0.  1.
        -11    1    3    3    0    0 -0.49908313050E+01  0.11853640212E+02 -0.29554913455E+02  0.32232128273E+02  0.51100000000E-03 0. -1.
        -12    1    3    3    0    0  0.46201325171E+01 -0.11762199740E+01 -0.11745146135E+02  0.12675865873E+02  0.00000000000E+00 0.  1.
</event>
<event>
 7    1  0.5138511E-013  0.5052885E+02  0.7816164E-02  0.1300439E+00
        -11   -1    0    0    0    0  0.00000000000E+00  0.00000000000E+00  0.45593999997E+02  0.45594000000E+02  0.51100000000E-03 0.  1.
         11   -1    0    0    0    0 -0.00000000000E+00 -0.00000000000E+00 -0.45593999997E+02  0.45594000000E+02  0.51100000000E-03 0. -1.
    9900012    2    1    2    0    0 -0.84421219444E+01  0.19132690040E+02 -0.34868854039E+02  0.50528853021E+02  0.29999979242E+02 0.  0.
        -12    1    1    2    0    0  0.84421219444E+01 -0.19132690040E+02  0.34868854039E+02  0.40659146979E+02  0.00000000000E+00 0.  1.
         11    1    3    3    0    0 -0.74850057321E+01  0.10853084848E+02 -0.77990795935E+01  0.15317976508E+02  0.51100000000E-03 0. -1.
        -11    1    3    3    0    0  0.33758600556E+01 -0.49778232609E+01 -0.16840167749E+01  0.62458841081E+01  0.51100000000E-03 0.  1.
         12    1    3    3    0    0 -0.43329762679E+01  0.13257428453E+02 -0.25385757670E+02  0.28964992405E+02  0.00000000000E+00 0. -1.
</event>
<event>
 7    1  0.5138511E-013  0.5052887E+02  0.7816164E-02  0.1300439E+00
        -11   -1    0    0    0    0  0.00000000000E+00  0.00000000000E+00  0.45593999997E+02  0.45594000000E+02  0.51100000000E-03 0.  1.
         11   -1    0    0    0    0 -0.00000000000E+00 -0.00000000000E+00 -0.45593999997E+02  0.45594000000E+02  0.51100000000E-03 0. -1.
    9900012    2    1    2    0    0  0.29682141657E+02 -0.16439183962E+02 -0.22402874364E+02  0.50528867170E+02  0.30000022251E+02 0.  0.
        -12    1    1    2    0    0 -0.29682141657E+02  0.16439183962E+02  0.22402874364E+02  0.40659132830E+02  0.00000000000E+00 0.  1.
         11    1    3    3    0    0  0.15601342080E+02 -0.17160009533E+02 -0.23849306670E+02  0.33266458043E+02  0.51100000000E-03 0. -1.
        -11    1    3    3    0    0  0.62554886909E+01  0.74343202079E+00 -0.42362124535E+01  0.75913981679E+01  0.51100000000E-03 0.  1.
         12    1    3    3    0    0  0.78253108859E+01 -0.22606450500E-01  0.56826447592E+01  0.96710109591E+01  0.00000000000E+00 0. -1.
</event>
<event>
 7    1  0.5138511E-013  0.5052887E+02  0.7816164E-02  0.1300439E+00
        -11   -1    0    0    0    0  0.00000000000E+00  0.00000000000E+00  0.45593999997E+02  0.45594000000E+02  0.51100000000E-03 0. -1.
         11   -1    0    0    0    0 -0.00000000000E+00 -0.00000000000E+00 -0.45593999997E+02  0.45594000000E+02  0.51100000000E-03 0.  1.
    9900012    2    1    2    0    0 -0.17151519801E+02  0.23936943747E+01  0.36786690292E+02  0.50528868346E+02  0.30000025824E+02 0.  0.
        -12    1    1    2    0    0  0.17151519801E+02 -0.23936943747E+01 -0.36786690292E+02  0.40659131654E+02  0.00000000000E+00 0.  1.
         11    1    3    3    0    0  0.45094193333E+01 -0.68206668396E+01  0.10872763400E+02  0.13604166387E+02  0.51100000000E-03 0.  1.
        -11    1    3    3    0    0 -0.10272203077E+02  0.68241537353E+01  0.20870787341E+02  0.24242050135E+02  0.51100000000E-03 0. -1.
        -12    1    3    3    0    0 -0.11388736057E+02  0.23902074790E+01  0.50431395511E+01  0.12682651824E+02  0.00000000000E+00 0.  1.
</event>
<event>
 7    1  0.5682013E-013  0.5052886E+02  0.7816164E-02  0.1300439E+00
        -11   -1    0    0    0    0  0.00000000000E+00  0.00000000000E+00  0.45593999997E+02  0.45594000000E+02  0.51100000000E-03 0. -1.
         11   -1    0    0    0    0 -0.00000000000E+00 -0.00000000000E+00 -0.45593999997E+02  0.45594000000E+02  0.51100000000E-03 0.  1.
    9900012    2    1    2    0    0  0.24604392919E+02  0.31149689124E+02  0.88026423610E+01  0.50528858396E+02  0.29999995582E+02 0.  0.
        -12    1    1    2    0    0 -0.24604392919E+02 -0.31149689124E+02 -0.88026423610E+01  0.40659141604E+02  0.00000000000E+00 0.  1.
         11    1    3    3    0    0  0.10497136838E+02  0.16550371233E+02  0.13485559926E+02  0.23790018842E+02  0.51100000000E-03 0. -1.
        -11    1    3    3    0    0  0.13178050015E+02  0.24684165646E+01  0.72025405998E+00  0.13426572485E+02  0.51100000000E-03 0.  1.
        -12    1    3    3    0    0  0.92920606608E+00  0.12130901326E+02 -0.54031716250E+01  0.13312267069E+02  0.00000000000E+00 0.  1.
</event>
<event>
 7    1  0.5138511E-013  0.5052886E+02  0.7816164E-02  0.1300439E+00
        -11   -1    0    0    0    0  0.00000000000E+00  0.00000000000E+00  0.45593999997E+02  0.45594000000E+02  0.51100000000E-03 0.  1.
         11   -1    0    0    0    0 -0.00000000000E+00 -0.00000000000E+00 -0.45593999997E+02  0.45594000000E+02  0.51100000000E-03 0. -1.
    9900012    2    1    2    0    0 -0.25503169015E+02  0.71580404737E+01 -0.30846661167E+02  0.50528859842E+02  0.29999999976E+02 0.  0.
        -12    1    1    2    0    0  0.25503169015E+02 -0.71580404737E+01  0.30846661167E+02  0.40659140158E+02  0.00000000000E+00 0.  1.
         11    1    3    3    0    0 -0.12399200981E+02  0.82536643920E+01 -0.78409789007E+00  0.14915695446E+02  0.51100000000E-03 0. -1.
        -11    1    3    3    0    0 -0.12415767571E+02  0.46649037369E+01 -0.20006032558E+02  0.24003207082E+02  0.51100000000E-03 0.  1.
        -12    1    3    3    0    0 -0.68820046342E+00 -0.57605276551E+01 -0.10056530719E+02  0.11609957314E+02  0.00000000000E+00 0.  1.
</event>
<event>
 7    1  0.5138511E-013  0.5052885E+02  0.7816164E-02  0.1300439E+00
        -11   -1    0    0    0    0  0.00000000000E+00  0.00000000000E+00  0.45593999997E+02  0.45594000000E+02  0.51100000000E-03 0. -1.
         11   -1    0    0    0    0 -0.00000000000E+00 -0.00000000000E+00 -0.45593999997E+02  0.45594000000E+02  0.51100000000E-03 0.  1.
    9900012    2    1    2    0    0 -0.25795008373E+02  0.72478691165E+01  0.30581892765E+02  0.50528853074E+02  0.29999979402E+02 0.  0.
        -12    1    1    2    0    0  0.25795008373E+02 -0.72478691165E+01 -0.30581892765E+02  0.40659146926E+02  0.00000000000E+00 0.  1.
         11    1    3    3    0    0 -0.79447879830E+01 -0.39671465716E+01  0.91640718654E+01  0.12760804106E+02  0.51100000000E-03 0. -1.
        -11    1    3    3    0    0 -0.22885000915E+02  0.97999360119E+01  0.13615405409E+02  0.28375011497E+02  0.51100000000E-03 0.  1.
        -12    1    3    3    0    0  0.50347805257E+01  0.14150796762E+01  0.78024154909E+01  0.93930374707E+01  0.00000000000E+00 0.  1.
</event>
<event>
 7    1  0.5138511E-013  0.5052888E+02  0.7816164E-02  0.1300439E+00
        -11   -1    0    0    0    0  0.00000000000E+00  0.00000000000E+00  0.45593999997E+02  0.45594000000E+02  0.51100000000E-03 0.  1.
         11   -1    0    0    0    0 -0.00000000000E+00 -0.00000000000E+00 -0.45593999997E+02  0.45594000000E+02  0.51100000000E-03 0. -1.
    9900012    2    1    2    0    0 -0.18611761947E+02  0.21787515587E+02 -0.28845634396E+02  0.50528878736E+02  0.30000057406E+02 0.  0.
        -12    1    1    2    0    0  0.18611761947E+02 -0.21787515587E+02  0.28845634396E+02  0.40659121264E+02  0.00000000000E+00 0.  1.
         11    1    3    3    0    0 -0.18716707672E+02  0.13831920968E+02 -0.91761529032E+01  0.25016773695E+02  0.51100000000E-03 0. -1.
        -11    1    3    3    0    0  0.29844158757E+01  0.35916031656E+01  0.48094938143E+00  0.46944290374E+01  0.51100000000E-03 0.  1.
         12    1    3    3    0    0 -0.28794701505E+01  0.43639914536E+01 -0.20150430875E+02  0.20817676004E+02  0.00000000000E+00 0. -1.
</event>
<event>
 7    1  0.5138511E-013  0.5052886E+02  0.7816164E-02  0.1300439E+00
        -11   -1    0    0    0    0  0.00000000000E+00  0.00000000000E+00  0.45593999997E+02  0.45594000000E+02  0.51100000000E-03 0.  1.
         11   -1    0    0    0    0 -0.00000000000E+00 -0.00000000000E+00 -0.45593999997E+02  0.45594000000E+02  0.51100000000E-03 0. -1.
    9900012    2    1    2    0    0 -0.16433840846E+02  0.44698306315E+00 -0.37187296031E+02  0.50528857056E+02  0.29999991509E+02 0.  0.
        -12    1    1    2    0    0  0.16433840846E+02 -0.44698306315E+00  0.37187296031E+02  0.40659142944E+02  0.00000000000E+00 0.  1.
         11    1    3    3    0    0 -0.91122697972E+01  0.38527318292E+01 -0.20101776419E+02  0.22404428555E+02  0.51100000000E-03 0. -1.
        -11    1    3    3    0    0 -0.97460037864E+01  0.49166860134E+01 -0.25649668026E+01  0.11213270982E+02  0.51100000000E-03 0.  1.
        -12    1    3    3    0    0  0.24244327378E+01 -0.83224347794E+01 -0.14520552810E+02  0.16911157520E+02  0.00000000000E+00 0.  1.
</event>
<event>
 7    1  0.5138511E-013  0.5052887E+02  0.7816164E-02  0.1300439E+00
        -11   -1    0    0    0    0  0.00000000000E+00  0.00000000000E+00  0.45593999997E+02  0.45594000000E+02  0.51100000000E-03 0. -1.
         11   -1    0    0    0    0 -0.00000000000E+00 -0.00000000000E+00 -0.45593999997E+02  0.45594000000E+02  0.51100000000E-03 0.  1.
    9900012    2    1    2    0    0  0.69246130313E+01 -0.13071580764E+02  0.37872793655E+02  0.50528868325E+02  0.30000025761E+02 0.  0.
        -12    1    1    2    0    0 -0.69246130313E+01  0.13071580764E+02 -0.37872793655E+02  0.40659131675E+02  0.00000000000E+00 0.  1.
         11    1    3    3    0    0  0.50418075581E+01 -0.37115499236E+01  0.31695440488E+02  0.32307837661E+02  0.51100000000E-03 0. -1.
        -11    1    3    3    0    0 -0.11642727868E+01 -0.91105548120E+01  0.98330926407E+01  0.13455387443E+02  0.51100000000E-03 0.  1.
        -12    1    3    3    0    0  0.30470782600E+01 -0.24947602861E+00 -0.36557394739E+01  0.47656432212E+01  0.00000000000E+00 0.  1.
</event>
<event>
 7    1  0.5138511E-013  0.5052886E+02  0.7816164E-02  0.1300439E+00
        -11   -1    0    0    0    0  0.00000000000E+00  0.00000000000E+00  0.45593999997E+02  0.45594000000E+02  0.51100000000E-03 0.  1.
         11   -1    0    0    0    0 -0.00000000000E+00 -0.00000000000E+00 -0.45593999997E+02  0.45594000000E+02  0.51100000000E-03 0. -1.
    9900012    2    1    2    0    0  0.17814970434E+02 -0.32975155207E+02  0.15761707678E+02  0.50528862510E+02  0.30000008086E+02 0.  0.
        -12    1    1    2    0    0 -0.17814970434E+02  0.32975155207E+02 -0.15761707678E+02  0.40659137490E+02  0.00000000000E+00 0.  1.
         11    1    3    3    0    0  0.23566223559E+01 -0.32211388069E+01 -0.58600499849E+01  0.70901050929E+01  0.51100000000E-03 0. -1.
        -11    1    3    3    0    0  0.53445791230E+01 -0.15840544288E+01  0.97674990177E+01  0.11246234559E+02  0.51100000000E-03 0.  1.
        -12    1    3    3    0    0  0.10113768955E+02 -0.28169961972E+02  0.11854258645E+02  0.32192522858E+02  0.00000000000E+00 0.  1.
</event>
<event>
 7    1  0.5541187E-013  0.5052887E+02  0.7816164E-02  0.1300439E+00
        -11   -1    0    0    0    0  0.00000000000E+00  0.00000000000E+00  0.45593999997E+02  0.45594000000E+02  0.51100000000E-03 0.  1.
         11   -1    0    0    0    0 -0.00000000000E+00 -0.00000000000E+00 -0.45593999997E+02  0.45594000000E+02  0.51100000000E-03 0. -1.
    9900012    2    1    2    0    0 -0.40152115160E+02 -0.59169930942E+01 -0.24417042514E+01  0.50528867216E+02  0.30000022390E+02 0.  0.
        -12    1    1    2    0    0  0.40152115160E+02  0.59169930942E+01  0.24417042514E+01  0.40659132784E+02  0.00000000000E+00 0.  1.
         11    1    3    3    0    0 -0.25662651337E+02 -0.41497608489E+00  0.88092597765E+00  0.25681119711E+02  0.51100000000E-03 0. -1.
        -11    1    3    3    0    0 -0.33657658098E+00  0.57326073911E+01 -0.35965421179E+01  0.67757794210E+01  0.51100000000E-03 0.  1.
         12    1    3    3    0    0 -0.14152887242E+02 -0.11234624400E+02  0.27391188888E+00  0.18071968084E+02  0.00000000000E+00 0. -1.
</event>
<event>
 7    1  0.5138511E-013  0.5052886E+02  0.7816164E-02  0.1300439E+00
        -11   -1    0    0    0    0  0.00000000000E+00  0.00000000000E+00  0.45593999997E+02  0.45594000000E+02  0.51100000000E-03 0.  1.
         11   -1    0    0    0    0 -0.00000000000E+00 -0.00000000000E+00 -0.45593999997E+02  0.45594000000E+02  0.51100000000E-03 0. -1.
    9900012    2    1    2    0    0 -0.26090416322E+02  0.59269015979E+01 -0.30615807473E+02  0.50528860146E+02  0.30000000900E+02 0.  0.
        -12    1    1    2    0    0  0.26090416322E+02 -0.59269015979E+01  0.30615807473E+02  0.40659139854E+02  0.00000000000E+00 0.  1.
         11    1    3    3    0    0 -0.18205814113E+02  0.82733154869E+01 -0.19688915899E+02  0.28063371612E+02  0.51100000000E-03 0. -1.
        -11    1    3    3    0    0 -0.75674339246E+01 -0.65282903509E+01 -0.14046081145E+02  0.17238823246E+02  0.51100000000E-03 0.  1.
        -12    1    3    3    0    0 -0.31716828407E+00  0.41818764619E+01  0.31191895705E+01  0.52266652887E+01  0.00000000000E+00 0.  1.
</event>
<event>
 7    1  0.5138511E-013  0.5052886E+02  0.7816164E-02  0.1300439E+00
        -11   -1    0    0    0    0  0.00000000000E+00  0.00000000000E+00  0.45593999997E+02  0.45594000000E+02  0.51100000000E-03 0.  1.
         11   -1    0    0    0    0 -0.00000000000E+00 -0.00000000000E+00 -0.45593999997E+02  0.45594000000E+02  0.51100000000E-03 0. -1.
    9900012    2    1    2    0    0 -0.33350431501E+02 -0.23071173501E+02  0.29386062477E+01  0.50528859149E+02  0.29999997871E+02 0.  0.
        -12    1    1    2    0    0  0.33350431501E+02  0.23071173501E+02 -0.29386062477E+01  0.40659140851E+02  0.00000000000E+00 0.  1.
         11    1    3    3    0    0 -0.12357951881E+02 -0.47331950898E+01  0.78294920787E+00  0.13256512369E+02  0.51100000000E-03 0. -1.
        -11    1    3    3    0    0 -0.19644016821E+02 -0.75024793173E+01  0.10524835672E+02  0.23514819986E+02  0.51100000000E-03 0.  1.
         12    1    3    3    0    0 -0.13484627988E+01 -0.10835499094E+02 -0.83691786323E+01  0.13757526795E+02  0.00000000000E+00 0. -1.
</event>
<event>
 7    1  0.5138511E-013  0.5052885E+02  0.7816164E-02  0.1300439E+00
        -11   -1    0    0    0    0  0.00000000000E+00  0.00000000000E+00  0.45593999997E+02  0.45594000000E+02  0.51100000000E-03 0.  1.
         11   -1    0    0    0    0 -0.00000000000E+00 -0.00000000000E+00 -0.45593999997E+02  0.45594000000E+02  0.51100000000E-03 0. -1.
    9900012    2    1    2    0    0  0.37744470030E+02  0.10579458444E+02 -0.10797968534E+02  0.50528854863E+02  0.29999984841E+02 0.  0.
        -12    1    1    2    0    0 -0.37744470030E+02 -0.10579458444E+02  0.10797968534E+02  0.40659145137E+02  0.00000000000E+00 0.  1.
         11    1    3    3    0    0  0.63013735302E+01  0.39470454124E+01  0.44379821510E+01  0.86592240812E+01  0.51100000000E-03 0. -1.
        -11    1    3    3    0    0  0.10220330397E+02  0.12869756820E+01  0.55373081460E+01  0.11695009260E+02  0.51100000000E-03 0.  1.
         12    1    3    3    0    0  0.21222766103E+02  0.53454373498E+01 -0.20773258831E+02  0.30174621521E+02  0.00000000000E+00 0. -1.
</event>
<event>
 7    1  0.5138511E-013  0.5052886E+02  0.7816164E-02  0.1300439E+00
        -11   -1    0    0    0    0  0.00000000000E+00  0.00000000000E+00  0.45593999997E+02  0.45594000000E+02  0.51100000000E-03 0.  1.
         11   -1    0    0    0    0 -0.00000000000E+00 -0.00000000000E+00 -0.45593999997E+02  0.45594000000E+02  0.51100000000E-03 0. -1.
    9900012    2    1    2    0    0 -0.32467215540E+02 -0.19126009493E+02 -0.15272238617E+02  0.50528860850E+02  0.30000003039E+02 0.  0.
        -12    1    1    2    0    0  0.32467215540E+02  0.19126009493E+02  0.15272238617E+02  0.40659139150E+02  0.00000000000E+00 0.  1.
         11    1    3    3    0    0 -0.13383441523E+02 -0.69776501607E+01  0.28295335435E+01  0.15356118295E+02  0.51100000000E-03 0. -1.
        -11    1    3    3    0    0  0.38231741123E+00  0.35380700410E+01  0.10159534611E+01  0.37008469185E+01  0.51100000000E-03 0.  1.
         12    1    3    3    0    0 -0.19466091428E+02 -0.15686429373E+02 -0.19117725622E+02  0.31471895636E+02  0.00000000000E+00 0. -1.
</event>
<event>
 7    1  0.5138511E-013  0.5052886E+02  0.7816164E-02  0.1300439E+00
        -11   -1    0    0    0    0  0.00000000000E+00  0.00000000000E+00  0.45593999997E+02  0.45594000000E+02  0.51100000000E-03 0.  1.
         11   -1    0    0    0    0 -0.00000000000E+00 -0.00000000000E+00 -0.45593999997E+02  0.45594000000E+02  0.51100000000E-03 0. -1.
    9900012    2    1    2    0    0  0.21118031601E+02 -0.20327513202E+02 -0.28177770027E+02  0.50528858650E+02  0.29999996352E+02 0.  0.
        -12    1    1    2    0    0 -0.21118031601E+02  0.20327513202E+02  0.28177770027E+02  0.40659141350E+02  0.00000000000E+00 0.  1.
         11    1    3    3    0    0  0.12278485081E+02 -0.37569437311E+01 -0.91283776379E+01  0.15754462880E+02  0.51100000000E-03 0. -1.
        -11    1    3    3    0    0  0.75210921681E+01 -0.79532798461E+01 -0.22794376747E+02  0.25286460789E+02  0.51100000000E-03 0.  1.
        -12    1    3    3    0    0  0.13184543518E+01 -0.86172896245E+01  0.37449843580E+01  0.94879349804E+01  0.00000000000E+00 0.  1.
</event>
<event>
 7    1  0.5138511E-013  0.5052885E+02  0.7816164E-02  0.1300439E+00
        -11   -1    0    0    0    0  0.00000000000E+00  0.00000000000E+00  0.45593999997E+02  0.45594000000E+02  0.51100000000E-03 0. -1.
         11   -1    0    0    0    0 -0.00000000000E+00 -0.00000000000E+00 -0.45593999997E+02  0.45594000000E+02  0.51100000000E-03 0.  1.
    9900012    2    1    2    0    0  0.11844370095E+02  0.26426243307E+02  0.28539988450E+02  0.50528851227E+02  0.29999973788E+02 0.  0.
        -12    1    1    2    0    0 -0.11844370095E+02 -0.26426243307E+02 -0.28539988450E+02  0.40659148773E+02  0.00000000000E+00 0.  1.
         11    1    3    3    0    0  0.42493287442E+01  0.68139999353E+01  0.74469231833E+01  0.10951897327E+02  0.51100000000E-03 0. -1.
        -11    1    3    3    0    0 -0.92610036407E+01  0.61083141604E+01  0.11387700392E+02  0.15898346165E+02  0.51100000000E-03 0.  1.
        -12    1    3    3    0    0  0.16856044992E+02  0.13503929211E+02  0.97053648748E+01  0.23678607735E+02  0.00000000000E+00 0.  1.
</event>
<event>
 7    1  0.5138511E-013  0.5052886E+02  0.7816164E-02  0.1300439E+00
        -11   -1    0    0    0    0  0.00000000000E+00  0.00000000000E+00  0.45593999997E+02  0.45594000000E+02  0.51100000000E-03 0.  1.
         11   -1    0    0    0    0 -0.00000000000E+00 -0.00000000000E+00 -0.45593999997E+02  0.45594000000E+02  0.51100000000E-03 0. -1.
    9900012    2    1    2    0    0  0.14624507297E+01  0.10655919670E+02 -0.39210692568E+02  0.50528858373E+02  0.29999995511E+02 0.  0.
        -12    1    1    2    0    0 -0.14624507297E+01 -0.10655919670E+02  0.39210692568E+02  0.40659141627E+02  0.00000000000E+00 0.  1.
         11    1    3    3    0    0  0.83730905071E+01 -0.35978993188E+00 -0.70932707429E+01  0.10979644053E+02  0.51100000000E-03 0. -1.
        -11    1    3    3    0    0 -0.25204200430E+01  0.82933688015E+01 -0.18744835318E+01  0.88682677025E+01  0.51100000000E-03 0.  1.
         12    1    3    3    0    0 -0.43902197344E+01  0.27223408001E+01 -0.30242938293E+02  0.30680946618E+02  0.00000000000E+00 0. -1.
</event>
<event>
 7    1  0.5138511E-013  0.5052889E+02  0.7816164E-02  0.1300439E+00
        -11   -1    0    0    0    0  0.00000000000E+00  0.00000000000E+00  0.45593999997E+02  0.45594000000E+02  0.51100000000E-03 0. -1.
         11   -1    0    0    0    0 -0.00000000000E+00 -0.00000000000E+00 -0.45593999997E+02  0.45594000000E+02  0.51100000000E-03 0.  1.
    9900012    2    1    2    0    0  0.26638230543E+02  0.20551456910E+02 -0.22829918063E+02  0.50528894423E+02  0.30000105088E+02 0.  0.
        -12    1    1    2    0    0 -0.26638230543E+02 -0.20551456910E+02  0.22829918063E+02  0.40659105577E+02  0.00000000000E+00 0.  1.
         11    1    3    3    0    0  0.86697662117E+01  0.86537355409E+01 -0.14457064839E+01  0.12334587649E+02  0.51100000000E-03 0. -1.
        -11    1    3    3    0    0  0.83777328510E+01  0.15295714993E+02 -0.37548748697E+01  0.17839405551E+02  0.51100000000E-03 0.  1.
        -12    1    3    3    0    0  0.95907314799E+01 -0.33979936238E+01 -0.17629336709E+02  0.20354901223E+02  0.00000000000E+00 0.  1.
</event>
<event>
 7    1  0.5138511E-013  0.5052888E+02  0.7816164E-02  0.1300439E+00
        -11   -1    0    0    0    0  0.00000000000E+00  0.00000000000E+00  0.45593999997E+02  0.45594000000E+02  0.51100000000E-03 0. -1.
         11   -1    0    0    0    0 -0.00000000000E+00 -0.00000000000E+00 -0.45593999997E+02  0.45594000000E+02  0.51100000000E-03 0.  1.
    9900012    2    1    2    0    0  0.36306157990E+02 -0.68581625729E+01 -0.16970354190E+02  0.50528875277E+02  0.30000046893E+02 0.  0.
        -12    1    1    2    0    0 -0.36306157990E+02  0.68581625729E+01  0.16970354190E+02  0.40659124723E+02  0.00000000000E+00 0.  1.
         11    1    3    3    0    0  0.19366637339E+01  0.50174477642E+01 -0.15510516615E+01  0.55974288743E+01  0.51100000000E-03 0. -1.
        -11    1    3    3    0    0 -0.27300747418E+01  0.80227914411E+00 -0.12604231603E+00  0.28483059610E+01  0.51100000000E-03 0.  1.
         12    1    3    3    0    0  0.37099568998E+02 -0.12677889481E+02 -0.15293260213E+02  0.42083140442E+02  0.00000000000E+00 0. -1.
</event>
<event>
 7    1  0.5138511E-013  0.5052888E+02  0.7816164E-02  0.1300439E+00
        -11   -1    0    0    0    0  0.00000000000E+00  0.00000000000E+00  0.45593999997E+02  0.45594000000E+02  0.51100000000E-03 0.  1.
         11   -1    0    0    0    0 -0.00000000000E+00 -0.00000000000E+00 -0.45593999997E+02  0.45594000000E+02  0.51100000000E-03 0. -1.
    9900012    2    1    2    0    0  0.26482270831E+01  0.31000172024E+02 -0.26175191615E+02  0.50528875215E+02  0.30000046704E+02 0.  0.
        -12    1    1    2    0    0 -0.26482270831E+01 -0.31000172024E+02  0.26175191615E+02  0.40659124785E+02  0.00000000000E+00 0.  1.
         11    1    3    3    0    0  0.69253139338E+00  0.24756292250E+02 -0.59749956694E+01  0.25476541744E+02  0.51100000000E-03 0. -1.
        -11    1    3    3    0    0 -0.14408399370E+01 -0.34923718669E+01 -0.23841004876E+01  0.44672828852E+01  0.51100000000E-03 0.  1.
        -12    1    3    3    0    0  0.33965356267E+01  0.97362516401E+01 -0.17816095458E+02  0.20585050586E+02  0.00000000000E+00 0.  1.
</event>
<event>
 7    1  0.5138511E-013  0.5052885E+02  0.7816164E-02  0.1300439E+00
        -11   -1    0    0    0    0  0.00000000000E+00  0.00000000000E+00  0.45593999997E+02  0.45594000000E+02  0.51100000000E-03 0.  1.
         11   -1    0    0    0    0 -0.00000000000E+00 -0.00000000000E+00 -0.45593999997E+02  0.45594000000E+02  0.51100000000E-03 0. -1.
    9900012    2    1    2    0    0  0.10822162264E+02  0.18103197584E+02 -0.34760915773E+02  0.50528853129E+02  0.29999979572E+02 0.  0.
        -12    1    1    2    0    0 -0.10822162264E+02 -0.18103197584E+02  0.34760915773E+02  0.40659146871E+02  0.00000000000E+00 0.  1.
         11    1    3    3    0    0 -0.21780505008E+01  0.11973455069E+02 -0.75985013622E+01  0.14347290807E+02  0.51100000000E-03 0. -1.
        -11    1    3    3    0    0  0.76586913853E+01 -0.19542370322E+01 -0.62286247635E+00  0.79285909239E+01  0.51100000000E-03 0.  1.
         12    1    3    3    0    0  0.53415213798E+01  0.80839795472E+01 -0.26539551935E+02  0.28252971399E+02  0.00000000000E+00 0. -1.
</event>
<event>
 7    1  0.5138511E-013  0.5052886E+02  0.7816164E-02  0.1300439E+00
        -11   -1    0    0    0    0  0.00000000000E+00  0.00000000000E+00  0.45593999997E+02  0.45594000000E+02  0.51100000000E-03 0.  1.
         11   -1    0    0    0    0 -0.00000000000E+00 -0.00000000000E+00 -0.45593999997E+02  0.45594000000E+02  0.51100000000E-03 0. -1.
    9900012    2    1    2    0    0  0.35348864443E+02 -0.20082382618E+02  0.56720523543E+00  0.50528855508E+02  0.29999986803E+02 0.  0.
        -12    1    1    2    0    0 -0.35348864443E+02  0.20082382618E+02 -0.56720523543E+00  0.40659144492E+02  0.00000000000E+00 0.  1.
         11    1    3    3    0    0  0.85154531913E+01 -0.74404715076E+01 -0.49661821238E+01  0.12350567779E+02  0.51100000000E-03 0. -1.
        -11    1    3    3    0    0  0.10625438905E+02 -0.17659679883E+02  0.49770617928E+01  0.21202249642E+02  0.51100000000E-03 0.  1.
         12    1    3    3    0    0  0.16207972346E+02  0.50177687727E+01  0.55632556648E+00  0.16976038088E+02  0.00000000000E+00 0. -1.
</event>
<event>
 7    1  0.5138511E-013  0.5052884E+02  0.7816164E-02  0.1300439E+00
        -11   -1    0    0    0    0  0.00000000000E+00  0.00000000000E+00  0.45593999997E+02  0.45594000000E+02  0.51100000000E-03 0.  1.
         11   -1    0    0    0    0 -0.00000000000E+00 -0.00000000000E+00 -0.45593999997E+02  0.45594000000E+02  0.51100000000E-03 0. -1.
    9900012    2    1    2    0    0  0.62681641555E+01  0.34717341195E+02 -0.20213449320E+02  0.50528841193E+02  0.29999943290E+02 0.  0.
        -12    1    1    2    0    0 -0.62681641555E+01 -0.34717341195E+02  0.20213449320E+02  0.40659158807E+02  0.00000000000E+00 0.  1.
         11    1    3    3    0    0  0.10670774496E+02  0.24465894098E+02 -0.14059811120E+02  0.30168256353E+02  0.51100000000E-03 0. -1.
        -11    1    3    3    0    0  0.43070115325E+01 -0.54168374731E+00  0.14087197048E+01  0.45637989758E+01  0.51100000000E-03 0.  1.
         12    1    3    3    0    0 -0.87096218725E+01  0.10793130844E+02 -0.75623579045E+01  0.15796785864E+02  0.00000000000E+00 0. -1.
</event>
<event>
 7    1  0.5138511E-013  0.5052888E+02  0.7816164E-02  0.1300439E+00
        -11   -1    0    0    0    0  0.00000000000E+00  0.00000000000E+00  0.45593999997E+02  0.45594000000E+02  0.51100000000E-03 0. -1.
         11   -1    0    0    0    0 -0.00000000000E+00 -0.00000000000E+00 -0.45593999997E+02  0.45594000000E+02  0.51100000000E-03 0.  1.
    9900012    2    1    2    0    0 -0.24559813995E+02  0.29255178374E+02 -0.13932476479E+02  0.50528882622E+02  0.30000069217E+02 0.  0.
        -12    1    1    2    0    0  0.24559813995E+02 -0.29255178374E+02  0.13932476479E+02  0.40659117378E+02  0.00000000000E+00 0.  1.
         11    1    3    3    0    0  0.44750937408E+01  0.12769469181E+02  0.14168373796E+01  0.13604897485E+02  0.51100000000E-03 0. -1.
        -11    1    3    3    0    0 -0.39941756002E+01  0.35938065892E+01 -0.31742790054E+01  0.62405874716E+01  0.51100000000E-03 0.  1.
         12    1    3    3    0    0 -0.25040732135E+02  0.12891902604E+02 -0.12175034853E+02  0.30683397665E+02  0.00000000000E+00 0. -1.
</event>
<event>
 7    1  0.5138511E-013  0.5052888E+02  0.7816164E-02  0.1300439E+00
        -11   -1    0    0    0    0  0.00000000000E+00  0.00000000000E+00  0.45593999997E+02  0.45594000000E+02  0.51100000000E-03 0.  1.
         11   -1    0    0    0    0 -0.00000000000E+00 -0.00000000000E+00 -0.45593999997E+02  0.45594000000E+02  0.51100000000E-03 0. -1.
    9900012    2    1    2    0    0  0.35166454190E+01  0.32962522597E+01 -0.40372420277E+02  0.50528875650E+02  0.30000048024E+02 0.  0.
        -12    1    1    2    0    0 -0.35166454190E+01 -0.32962522597E+01  0.40372420277E+02  0.40659124350E+02  0.00000000000E+00 0.  1.
         11    1    3    3    0    0  0.76818230092E+01  0.45153492607E+01 -0.21780053868E+02  0.23532308226E+02  0.51100000000E-03 0. -1.
        -11    1    3    3    0    0 -0.34759216803E+01  0.73540253499E+00 -0.22390053792E+02  0.22670186534E+02  0.51100000000E-03 0.  1.
        -12    1    3    3    0    0 -0.68925590989E+00 -0.19544995360E+01  0.37976873830E+01  0.43263808899E+01  0.00000000000E+00 0.  1.
</event>
<event>
 7    1  0.5138511E-013  0.5052885E+02  0.7816164E-02  0.1300439E+00
        -11   -1    0    0    0    0  0.00000000000E+00  0.00000000000E+00  0.45593999997E+02  0.45594000000E+02  0.51100000000E-03 0.  1.
         11   -1    0    0    0    0 -0.00000000000E+00 -0.00000000000E+00 -0.45593999997E+02  0.45594000000E+02  0.51100000000E-03 0. -1.
    9900012    2    1    2    0    0  0.10078795079E+02  0.24419785315E+02 -0.30907253129E+02  0.50528851939E+02  0.29999975953E+02 0.  0.
        -12    1    1    2    0    0 -0.10078795079E+02 -0.24419785315E+02  0.30907253129E+02  0.40659148061E+02  0.00000000000E+00 0.  1.
         11    1    3    3    0    0 -0.30451411693E+01 -0.17647560324E+01 -0.13921019392E+02  0.14359040002E+02  0.51100000000E-03 0. -1.
        -11    1    3    3    0    0 -0.19597585163E+01  0.55417054793E+01 -0.85552882418E+00  0.59399564722E+01  0.51100000000E-03 0.  1.
         12    1    3    3    0    0  0.15083694764E+02  0.20642835868E+02 -0.16130704913E+02  0.30229855465E+02  0.00000000000E+00 0. -1.
</event>
<event>
 7    1  0.5138511E-013  0.5052886E+02  0.7816164E-02  0.1300439E+00
        -11   -1    0    0    0    0  0.00000000000E+00  0.00000000000E+00  0.45593999997E+02  0.45594000000E+02  0.51100000000E-03 0.  1.
         11   -1    0    0    0    0 -0.00000000000E+00 -0.00000000000E+00 -0.45593999997E+02  0.45594000000E+02  0.51100000000E-03 0. -1.
    9900012    2    1    2    0    0 -0.18054246724E+02 -0.35655102933E+02  0.74782205115E+01  0.50528856233E+02  0.29999989004E+02 0.  0.
        -12    1    1    2    0    0  0.18054246724E+02  0.35655102933E+02 -0.74782205115E+01  0.40659143767E+02  0.00000000000E+00 0.  1.
         11    1    3    3    0    0 -0.14528403821E+01 -0.54204096291E+00 -0.26990050794E+01  0.31127451327E+01  0.51100000000E-03 0. -1.
        -11    1    3    3    0    0  0.38788373356E+01  0.78194234721E+00  0.40069411322E+01  0.56313755343E+01  0.51100000000E-03 0.  1.
         12    1    3    3    0    0 -0.20480243677E+02 -0.35895004317E+02  0.61702844588E+01  0.41784735566E+02  0.00000000000E+00 0. -1.
</event>
<event>
 7    1  0.5138511E-013  0.5052886E+02  0.7816164E-02  0.1300439E+00
        -11   -1    0    0    0    0  0.00000000000E+00  0.00000000000E+00  0.45593999997E+02  0.45594000000E+02  0.51100000000E-03 0.  1.
         11   -1    0    0    0    0 -0.00000000000E+00 -0.00000000000E+00 -0.45593999997E+02  0.45594000000E+02  0.51100000000E-03 0. -1.
    9900012    2    1    2    0    0  0.76298637001E+01  0.39750086916E+02  0.38576759559E+01  0.50528857195E+02  0.29999991929E+02 0.  0.
        -12    1    1    2    0    0 -0.76298637001E+01 -0.39750086916E+02 -0.38576759559E+01  0.40659142805E+02  0.00000000000E+00 0.  1.
         11    1    3    3    0    0  0.47607104174E+01  0.22524565911E+02  0.11128776254E+02  0.25570883722E+02  0.51100000000E-03 0. -1.
        -11    1    3    3    0    0 -0.50992931812E+01  0.12201580126E+01  0.86576419531E+00  0.53142378970E+01  0.51100000000E-03 0.  1.
        -12    1    3    3    0    0  0.79684464639E+01  0.16005362992E+02 -0.81368644938E+01  0.19643735575E+02  0.00000000000E+00 0.  1.
</event>
<event>
 7    1  0.5138511E-013  0.5052886E+02  0.7816164E-02  0.1300439E+00
        -11   -1    0    0    0    0  0.00000000000E+00  0.00000000000E+00  0.45593999997E+02  0.45594000000E+02  0.51100000000E-03 0.  1.
         11   -1    0    0    0    0 -0.00000000000E+00 -0.00000000000E+00 -0.45593999997E+02  0.45594000000E+02  0.51100000000E-03 0. -1.
    9900012    2    1    2    0    0  0.35680177123E+02 -0.88136797669E+01 -0.17389938478E+02  0.50528856491E+02  0.29999989791E+02 0.  0.
        -12    1    1    2    0    0 -0.35680177123E+02  0.88136797669E+01  0.17389938478E+02  0.40659143509E+02  0.00000000000E+00 0.  1.
         11    1    3    3    0    0  0.20719041048E+02  0.70653151982E+01 -0.53132703771E+01  0.22526166632E+02  0.51100000000E-03 0. -1.
        -11    1    3    3    0    0 -0.20092816823E+01 -0.18011661700E+01  0.30339917051E+00  0.27154122649E+01  0.51100000000E-03 0.  1.
        -12    1    3    3    0    0  0.16970417758E+02 -0.14077828795E+02 -0.12380067272E+02  0.25287277594E+02  0.00000000000E+00 0.  1.
</event>
<event>
 7    1  0.5138511E-013  0.5052886E+02  0.7816164E-02  0.1300439E+00
        -11   -1    0    0    0    0  0.00000000000E+00  0.00000000000E+00  0.45593999997E+02  0.45594000000E+02  0.51100000000E-03 0.  1.
         11   -1    0    0    0    0 -0.00000000000E+00 -0.00000000000E+00 -0.45593999997E+02  0.45594000000E+02  0.51100000000E-03 0. -1.
    9900012    2    1    2    0    0  0.28984836167E+01 -0.77209285544E+01 -0.39813968447E+02  0.50528855536E+02  0.29999986888E+02 0.  0.
        -12    1    1    2    0    0 -0.28984836167E+01  0.77209285544E+01  0.39813968447E+02  0.40659144464E+02  0.00000000000E+00 0.  1.
         11    1    3    3    0    0 -0.13175060125E+01 -0.57854526885E+01 -0.69915894756E+01  0.91700386346E+01  0.51100000000E-03 0.  1.
        -11    1    3    3    0    0  0.91758691657E+01 -0.50893610752E+01 -0.29301699194E+01  0.10894221731E+02  0.51100000000E-03 0. -1.
         12    1    3    3    0    0 -0.49598795365E+01  0.31538852094E+01 -0.29892209052E+02  0.30464595171E+02  0.00000000000E+00 0. -1.
</event>
<event>
 7    1  0.5138511E-013  0.5052886E+02  0.7816164E-02  0.1300439E+00
        -11   -1    0    0    0    0  0.00000000000E+00  0.00000000000E+00  0.45593999997E+02  0.45594000000E+02  0.51100000000E-03 0.  1.
         11   -1    0    0    0    0 -0.00000000000E+00 -0.00000000000E+00 -0.45593999997E+02  0.45594000000E+02  0.51100000000E-03 0. -1.
    9900012    2    1    2    0    0 -0.44139531423E+01 -0.38958610585E+02 -0.10766120967E+02  0.50528859801E+02  0.29999999851E+02 0.  0.
        -12    1    1    2    0    0  0.44139531423E+01  0.38958610585E+02  0.10766120967E+02  0.40659140199E+02  0.00000000000E+00 0.  1.
         11    1    3    3    0    0 -0.19282363648E+01 -0.19102063890E+02 -0.46290257741E+01  0.19749299233E+02  0.51100000000E-03 0. -1.
        -11    1    3    3    0    0  0.98367514419E+01 -0.12127114057E+02 -0.32630103758E+01  0.15952297993E+02  0.51100000000E-03 0.  1.
        -12    1    3    3    0    0 -0.12322468219E+02 -0.77294326385E+01 -0.28740848172E+01  0.14827262575E+02  0.00000000000E+00 0.  1.
</event>
<event>
 7    1  0.5138511E-013  0.5052886E+02  0.7816164E-02  0.1300439E+00
        -11   -1    0    0    0    0  0.00000000000E+00  0.00000000000E+00  0.45593999997E+02  0.45594000000E+02  0.51100000000E-03 0. -1.
         11   -1    0    0    0    0 -0.00000000000E+00 -0.00000000000E+00 -0.45593999997E+02  0.45594000000E+02  0.51100000000E-03 0.  1.
    9900012    2    1    2    0    0 -0.13822391762E+02  0.36552250889E+02 -0.11226747333E+02  0.50528863084E+02  0.30000009830E+02 0.  0.
        -12    1    1    2    0    0  0.13822391762E+02 -0.36552250889E+02  0.11226747333E+02  0.40659136916E+02  0.00000000000E+00 0.  1.
         11    1    3    3    0    0  0.22777085748E+01  0.72781616492E+01  0.26818571539E+01  0.80840553807E+01  0.51100000000E-03 0. -1.
        -11    1    3    3    0    0 -0.12889555310E+02  0.55638345634E+01  0.12912728517E+01  0.14098378523E+02  0.51100000000E-03 0.  1.
         12    1    3    3    0    0 -0.32105450270E+01  0.23710254676E+02 -0.15199877338E+02  0.28346429181E+02  0.00000000000E+00 0. -1.
</event>
<event>
 7    1  0.5138511E-013  0.5052887E+02  0.7816164E-02  0.1300439E+00
        -11   -1    0    0    0    0  0.00000000000E+00  0.00000000000E+00  0.45593999997E+02  0.45594000000E+02  0.51100000000E-03 0.  1.
         11   -1    0    0    0    0 -0.00000000000E+00 -0.00000000000E+00 -0.45593999997E+02  0.45594000000E+02  0.51100000000E-03 0. -1.
    9900012    2    1    2    0    0  0.80417450925E+01 -0.30067205668E+02 -0.26162162183E+02  0.50528865100E+02  0.30000015957E+02 0.  0.
        -12    1    1    2    0    0 -0.80417450925E+01  0.30067205668E+02  0.26162162183E+02  0.40659134900E+02  0.00000000000E+00 0.  1.
         11    1    3    3    0    0 -0.33991496104E+01 -0.34314007096E+01 -0.97472622033E+01  0.10878320166E+02  0.51100000000E-03 0. -1.
        -11    1    3    3    0    0 -0.61286691150E+01 -0.95434917368E+01 -0.31105228548E+01  0.11760704585E+02  0.51100000000E-03 0.  1.
         12    1    3    3    0    0  0.17569563818E+02 -0.17092313221E+02 -0.13304377124E+02  0.27889840349E+02  0.00000000000E+00 0. -1.
</event>
<event>
 7    1  0.6629466E-013  0.5052886E+02  0.7816164E-02  0.1300439E+00
        -11   -1    0    0    0    0  0.00000000000E+00  0.00000000000E+00  0.45593999997E+02  0.45594000000E+02  0.51100000000E-03 0.  1.
         11   -1    0    0    0    0 -0.00000000000E+00 -0.00000000000E+00 -0.45593999997E+02  0.45594000000E+02  0.51100000000E-03 0. -1.
    9900012    2    1    2    0    0  0.10186793869E+02 -0.27478055080E+02 -0.28184239132E+02  0.50528860613E+02  0.30000002318E+02 0.  0.
        -12    1    1    2    0    0 -0.10186793869E+02  0.27478055080E+02  0.28184239132E+02  0.40659139387E+02  0.00000000000E+00 0.  1.
         11    1    3    3    0    0  0.14431861290E+01 -0.73091722496E+01 -0.18679896098E+02  0.20110825534E+02  0.51100000000E-03 0. -1.
        -11    1    3    3    0    0  0.36845404779E+01  0.29432252533E+01 -0.38616217308E+01  0.60951239592E+01  0.51100000000E-03 0.  1.
        -12    1    3    3    0    0  0.50590672622E+01 -0.23112108083E+02 -0.56427213032E+01  0.24322911120E+02  0.00000000000E+00 0.  1.
</event>
<event>
 7    1  0.5138511E-013  0.5052887E+02  0.7816164E-02  0.1300439E+00
        -11   -1    0    0    0    0  0.00000000000E+00  0.00000000000E+00  0.45593999997E+02  0.45594000000E+02  0.51100000000E-03 0.  1.
         11   -1    0    0    0    0 -0.00000000000E+00 -0.00000000000E+00 -0.45593999997E+02  0.45594000000E+02  0.51100000000E-03 0. -1.
    9900012    2    1    2    0    0 -0.13063847655E+01  0.25945023539E+02 -0.31278015671E+02  0.50528866316E+02  0.30000019655E+02 0.  0.
        -12    1    1    2    0    0  0.13063847655E+01 -0.25945023539E+02  0.31278015671E+02  0.40659133684E+02  0.00000000000E+00 0.  1.
         11    1    3    3    0    0  0.75689393454E+01 -0.20056288520E+01 -0.79884063869E+01  0.11185974556E+02  0.51100000000E-03 0.  1.
        -11    1    3    3    0    0 -0.96317898047E+00  0.18591904308E+02 -0.18317981090E+02  0.26117715272E+02  0.51100000000E-03 0. -1.
        -12    1    3    3    0    0 -0.79121451304E+01  0.93587480833E+01 -0.49716281937E+01  0.13225176488E+02  0.00000000000E+00 0.  1.
</event>
<event>
 7    1  0.5138511E-013  0.5052886E+02  0.7816164E-02  0.1300439E+00
        -11   -1    0    0    0    0  0.00000000000E+00  0.00000000000E+00  0.45593999997E+02  0.45594000000E+02  0.51100000000E-03 0.  1.
         11   -1    0    0    0    0 -0.00000000000E+00 -0.00000000000E+00 -0.45593999997E+02  0.45594000000E+02  0.51100000000E-03 0. -1.
    9900012    2    1    2    0    0 -0.24635571363E+02  0.25497835581E+02 -0.19902622862E+02  0.50528863358E+02  0.30000010663E+02 0.  0.
        -12    1    1    2    0    0  0.24635571363E+02 -0.25497835581E+02  0.19902622862E+02  0.40659136642E+02  0.00000000000E+00 0.  1.
         11    1    3    3    0    0 -0.18075288669E+02  0.81679357266E+01 -0.63164158471E+01  0.20816540152E+02  0.51100000000E-03 0. -1.
        -11    1    3    3    0    0 -0.64414835247E+01  0.84619678662E+01  0.28728488780E+01  0.11015937141E+02  0.51100000000E-03 0.  1.
         12    1    3    3    0    0 -0.11879916970E+00  0.88679319887E+01 -0.16459055892E+02  0.18696386064E+02  0.00000000000E+00 0. -1.
</event>
<event>
 7    1  0.5138511E-013  0.5052885E+02  0.7816164E-02  0.1300439E+00
        -11   -1    0    0    0    0  0.00000000000E+00  0.00000000000E+00  0.45593999997E+02  0.45594000000E+02  0.51100000000E-03 0.  1.
         11   -1    0    0    0    0 -0.00000000000E+00 -0.00000000000E+00 -0.45593999997E+02  0.45594000000E+02  0.51100000000E-03 0. -1.
    9900012    2    1    2    0    0  0.57204776200E+01 -0.30717652683E+02 -0.26016693688E+02  0.50528850956E+02  0.29999972966E+02 0.  0.
        -12    1    1    2    0    0 -0.57204776200E+01  0.30717652683E+02  0.26016693688E+02  0.40659149044E+02  0.00000000000E+00 0.  1.
         11    1    3    3    0    0 -0.21804288768E+01 -0.62824221803E+01 -0.27022348538E+01  0.71781036496E+01  0.51100000000E-03 0. -1.
        -11    1    3    3    0    0  0.98178588749E+01 -0.98749700342E+01  0.20167494457E+01  0.14070275927E+02  0.51100000000E-03 0.  1.
        -12    1    3    3    0    0 -0.19169523780E+01 -0.14560260468E+02 -0.25331208280E+02  0.29280471380E+02  0.00000000000E+00 0.  1.
</event>
<event>
 7    1  0.5138511E-013  0.5052886E+02  0.7816164E-02  0.1300439E+00
        -11   -1    0    0    0    0  0.00000000000E+00  0.00000000000E+00  0.45593999997E+02  0.45594000000E+02  0.51100000000E-03 0.  1.
         11   -1    0    0    0    0 -0.00000000000E+00 -0.00000000000E+00 -0.45593999997E+02  0.45594000000E+02  0.51100000000E-03 0. -1.
    9900012    2    1    2    0    0  0.24174652576E+02 -0.30854459176E+02 -0.10805298511E+02  0.50528856452E+02  0.29999989671E+02 0.  0.
        -12    1    1    2    0    0 -0.24174652576E+02  0.30854459176E+02  0.10805298511E+02  0.40659143548E+02  0.00000000000E+00 0.  1.
         11    1    3    3    0    0  0.41678080407E+01 -0.12949713388E+02 -0.69656667332E+01  0.15283527538E+02  0.51100000000E-03 0. -1.
        -11    1    3    3    0    0 -0.42697839936E+01  0.71187627397E+00  0.45403614797E+00  0.43524673768E+01  0.51100000000E-03 0.  1.
        -12    1    3    3    0    0  0.24276628528E+02 -0.18616622061E+02 -0.42936679253E+01  0.30892861537E+02  0.00000000000E+00 0.  1.
</event>
<event>
 7    1  0.5208967E-013  0.5052887E+02  0.7816164E-02  0.1300439E+00
        -11   -1    0    0    0    0  0.00000000000E+00  0.00000000000E+00  0.45593999997E+02  0.45594000000E+02  0.51100000000E-03 0.  1.
         11   -1    0    0    0    0 -0.00000000000E+00 -0.00000000000E+00 -0.45593999997E+02  0.45594000000E+02  0.51100000000E-03 0. -1.
    9900012    2    1    2    0    0  0.93101350273E+01 -0.38466640178E+02 -0.93168709978E+01  0.50528866880E+02  0.30000021370E+02 0.  0.
        -12    1    1    2    0    0 -0.93101350273E+01  0.38466640178E+02  0.93168709978E+01  0.40659133120E+02  0.00000000000E+00 0.  1.
         11    1    3    3    0    0  0.30126647078E+01 -0.19294524268E+02 -0.10374697180E+02  0.22113099222E+02  0.51100000000E-03 0.  1.
        -11    1    3    3    0    0  0.10343384009E+02 -0.21294999270E+02 -0.20664750974E+00  0.23674992927E+02  0.51100000000E-03 0. -1.
        -12    1    3    3    0    0 -0.40459136893E+01  0.21228833589E+01  0.12644736920E+01  0.47407747315E+01  0.00000000000E+00 0.  1.
</event>
<event>
 7    1  0.5138511E-013  0.5052886E+02  0.7816164E-02  0.1300439E+00
        -11   -1    0    0    0    0  0.00000000000E+00  0.00000000000E+00  0.45593999997E+02  0.45594000000E+02  0.51100000000E-03 0.  1.
         11   -1    0    0    0    0 -0.00000000000E+00 -0.00000000000E+00 -0.45593999997E+02  0.45594000000E+02  0.51100000000E-03 0. -1.
    9900012    2    1    2    0    0  0.23476079524E+02 -0.17326518702E+02 -0.28316629250E+02  0.50528855245E+02  0.29999986002E+02 0.  0.
        -12    1    1    2    0    0 -0.23476079524E+02  0.17326518702E+02  0.28316629250E+02  0.40659144755E+02  0.00000000000E+00 0.  1.
         11    1    3    3    0    0  0.13381954104E+02 -0.79885069400E+01 -0.51549964990E+01  0.16415447844E+02  0.51100000000E-03 0. -1.
        -11    1    3    3    0    0 -0.16924126763E+00  0.60617541584E+00  0.36645582823E+01  0.37182090994E+01  0.51100000000E-03 0.  1.
         12    1    3    3    0    0  0.10263366688E+02 -0.99441871777E+01 -0.26826191033E+02  0.30395198301E+02  0.00000000000E+00 0. -1.
</event>
<event>
 7    1  0.5138511E-013  0.5052886E+02  0.7816164E-02  0.1300439E+00
        -11   -1    0    0    0    0  0.00000000000E+00  0.00000000000E+00  0.45593999997E+02  0.45594000000E+02  0.51100000000E-03 0.  1.
         11   -1    0    0    0    0 -0.00000000000E+00 -0.00000000000E+00 -0.45593999997E+02  0.45594000000E+02  0.51100000000E-03 0. -1.
    9900012    2    1    2    0    0 -0.22287374226E+02  0.25932527422E+02 -0.21998691427E+02  0.50528862615E+02  0.30000008404E+02 0.  0.
        -12    1    1    2    0    0  0.22287374226E+02 -0.25932527422E+02  0.21998691427E+02  0.40659137385E+02  0.00000000000E+00 0.  1.
         11    1    3    3    0    0  0.44256896980E+01  0.24990551280E+01 -0.62878271641E+00  0.51212668160E+01  0.51100000000E-03 0.  1.
        -11    1    3    3    0    0 -0.13050200947E+02  0.99006591361E+01  0.36726494049E+00  0.16384922334E+02  0.51100000000E-03 0. -1.
        -12    1    3    3    0    0 -0.13662862976E+02  0.13532813158E+02 -0.21737173652E+02  0.29022673465E+02  0.00000000000E+00 0.  1.
</event>
<event>
 7    1  0.5138511E-013  0.5052885E+02  0.7816164E-02  0.1300439E+00
        -11   -1    0    0    0    0  0.00000000000E+00  0.00000000000E+00  0.45593999997E+02  0.45594000000E+02  0.51100000000E-03 0.  1.
         11   -1    0    0    0    0 -0.00000000000E+00 -0.00000000000E+00 -0.45593999997E+02  0.45594000000E+02  0.51100000000E-03 0. -1.
    9900012    2    1    2    0    0  0.61238385818E+01 -0.22218719540E+02 -0.33496173822E+02  0.50528849029E+02  0.29999967108E+02 0.  0.
        -12    1    1    2    0    0 -0.61238385818E+01  0.22218719540E+02  0.33496173822E+02  0.40659150971E+02  0.00000000000E+00 0.  1.
         11    1    3    3    0    0 -0.79053876501E+01 -0.98672246654E+01 -0.87296648526E+01  0.15364384960E+02  0.51100000000E-03 0. -1.
        -11    1    3    3    0    0 -0.13091130314E+01 -0.82667399954E+00 -0.12045700826E+02  0.12144796230E+02  0.51100000000E-03 0.  1.
        -12    1    3    3    0    0  0.15338339263E+02 -0.11524820875E+02 -0.12720808144E+02  0.23019667838E+02  0.00000000000E+00 0.  1.
</event>
<event>
 7    1  0.5138511E-013  0.5052886E+02  0.7816164E-02  0.1300439E+00
        -11   -1    0    0    0    0  0.00000000000E+00  0.00000000000E+00  0.45593999997E+02  0.45594000000E+02  0.51100000000E-03 0.  1.
         11   -1    0    0    0    0 -0.00000000000E+00 -0.00000000000E+00 -0.45593999997E+02  0.45594000000E+02  0.51100000000E-03 0. -1.
    9900012    2    1    2    0    0  0.43563713389E+01  0.40325455567E+02  0.28364507926E+01  0.50528858457E+02  0.29999995765E+02 0.  0.
        -12    1    1    2    0    0 -0.43563713389E+01 -0.40325455567E+02 -0.28364507926E+01  0.40659141543E+02  0.00000000000E+00 0.  1.
         11    1    3    3    0    0 -0.51519140858E+01  0.13822777238E+02 -0.84571510186E+01  0.17003964036E+02  0.51100000000E-03 0. -1.
        -11    1    3    3    0    0  0.22511027587E+01  0.16681340925E+02 -0.86281779807E-01  0.16832766959E+02  0.51100000000E-03 0.  1.
         12    1    3    3    0    0  0.72571826660E+01  0.98213374035E+01  0.11379883591E+02  0.16692127461E+02  0.00000000000E+00 0. -1.
</event>
<event>
 7    1  0.5138511E-013  0.5052884E+02  0.7816164E-02  0.1300439E+00
        -11   -1    0    0    0    0  0.00000000000E+00  0.00000000000E+00  0.45593999997E+02  0.45594000000E+02  0.51100000000E-03 0.  1.
         11   -1    0    0    0    0 -0.00000000000E+00 -0.00000000000E+00 -0.45593999997E+02  0.45594000000E+02  0.51100000000E-03 0. -1.
    9900012    2    1    2    0    0 -0.15671845231E+02  0.28369628113E+01 -0.37410055070E+02  0.50528839762E+02  0.29999938941E+02 0.  0.
        -12    1    1    2    0    0  0.15671845231E+02 -0.28369628113E+01  0.37410055070E+02  0.40659160238E+02  0.00000000000E+00 0.  1.
         11    1    3    3    0    0 -0.50942505394E+01  0.57601167567E+01 -0.25305702347E+01  0.80953146686E+01  0.51100000000E-03 0.  1.
        -11    1    3    3    0    0 -0.17204930006E+02 -0.23334495861E+01 -0.22999170731E+02  0.28816947410E+02  0.51100000000E-03 0. -1.
         12    1    3    3    0    0  0.66273353143E+01 -0.58970435929E+00 -0.11880314104E+02  0.13616577683E+02  0.00000000000E+00 0. -1.
</event>
<event>
 7    1  0.5138511E-013  0.5052886E+02  0.7816164E-02  0.1300439E+00
        -11   -1    0    0    0    0  0.00000000000E+00  0.00000000000E+00  0.45593999997E+02  0.45594000000E+02  0.51100000000E-03 0.  1.
         11   -1    0    0    0    0 -0.00000000000E+00 -0.00000000000E+00 -0.45593999997E+02  0.45594000000E+02  0.51100000000E-03 0. -1.
    9900012    2    1    2    0    0 -0.21795811075E+02  0.14320619504E+02 -0.31193397439E+02  0.50528861209E+02  0.30000004131E+02 0.  0.
        -12    1    1    2    0    0  0.21795811075E+02 -0.14320619504E+02  0.31193397439E+02  0.40659138791E+02  0.00000000000E+00 0.  1.
         11    1    3    3    0    0 -0.27153012846E+02  0.11759737515E+02 -0.18143580389E+02  0.34709754287E+02  0.51100000000E-03 0. -1.
        -11    1    3    3    0    0 -0.78075339024E+00 -0.13597873879E+01 -0.32570606589E+01  0.36148363716E+01  0.51100000000E-03 0.  1.
         12    1    3    3    0    0  0.61379551613E+01  0.39206693774E+01 -0.97927563914E+01  0.12204270551E+02  0.00000000000E+00 0. -1.
</event>
<event>
 7    1  0.5138511E-013  0.5052886E+02  0.7816164E-02  0.1300439E+00
        -11   -1    0    0    0    0  0.00000000000E+00  0.00000000000E+00  0.45593999997E+02  0.45594000000E+02  0.51100000000E-03 0.  1.
         11   -1    0    0    0    0 -0.00000000000E+00 -0.00000000000E+00 -0.45593999997E+02  0.45594000000E+02  0.51100000000E-03 0. -1.
    9900012    2    1    2    0    0 -0.16025272257E+00  0.45489500581E+01 -0.40403553941E+02  0.50528858363E+02  0.29999995481E+02 0.  0.
        -12    1    1    2    0    0  0.16025272257E+00 -0.45489500581E+01  0.40403553941E+02  0.40659141637E+02  0.00000000000E+00 0.  1.
         11    1    3    3    0    0 -0.26069059335E+01 -0.98449130170E+01 -0.24779368091E+02  0.26790583311E+02  0.51100000000E-03 0. -1.
        -11    1    3    3    0    0  0.12577647404E+01 -0.75755583467E+00 -0.49582119980E+01  0.51710472307E+01  0.51100000000E-03 0.  1.
        -12    1    3    3    0    0  0.11888884706E+01  0.15151418910E+02 -0.10665973852E+02  0.18567227822E+02  0.00000000000E+00 0.  1.
</event>
<event>
 7    1  0.5138511E-013  0.5052888E+02  0.7816164E-02  0.1300439E+00
        -11   -1    0    0    0    0  0.00000000000E+00  0.00000000000E+00  0.45593999997E+02  0.45594000000E+02  0.51100000000E-03 0. -1.
         11   -1    0    0    0    0 -0.00000000000E+00 -0.00000000000E+00 -0.45593999997E+02  0.45594000000E+02  0.51100000000E-03 0.  1.
    9900012    2    1    2    0    0  0.26083502612E+02  0.15746129982E+02  0.26923497601E+02  0.50528875059E+02  0.30000046229E+02 0.  0.
        -12    1    1    2    0    0 -0.26083502612E+02 -0.15746129982E+02 -0.26923497601E+02  0.40659124941E+02  0.00000000000E+00 0.  1.
         11    1    3    3    0    0  0.66360153988E+01  0.67013020083E+00  0.94387388165E+01  0.11557489588E+02  0.51100000000E-03 0. -1.
        -11    1    3    3    0    0  0.10850449643E+02 -0.20685949684E+01 -0.24436801492E+01  0.11312953440E+02  0.51100000000E-03 0.  1.
         12    1    3    3    0    0  0.85970375699E+01  0.17144594749E+02  0.19928438934E+02  0.27658432032E+02  0.00000000000E+00 0. -1.
</event>
<event>
 7    1  0.5138511E-013  0.5052884E+02  0.7816164E-02  0.1300439E+00
        -11   -1    0    0    0    0  0.00000000000E+00  0.00000000000E+00  0.45593999997E+02  0.45594000000E+02  0.51100000000E-03 0. -1.
         11   -1    0    0    0    0 -0.00000000000E+00 -0.00000000000E+00 -0.45593999997E+02  0.45594000000E+02  0.51100000000E-03 0.  1.
    9900012    2    1    2    0    0  0.34100155149E+02 -0.45521818081E+01  0.21670822117E+02  0.50528837790E+02  0.29999932947E+02 0.  0.
        -12    1    1    2    0    0 -0.34100155149E+02  0.45521818081E+01 -0.21670822117E+02  0.40659162210E+02  0.00000000000E+00 0.  1.
         11    1    3    3    0    0  0.29879808073E+02  0.90943647241E+01  0.14797226630E+02  0.34561080950E+02  0.51100000000E-03 0. -1.
        -11    1    3    3    0    0  0.10899373707E+01 -0.22987219044E+01  0.54127258215E+00  0.26009733054E+01  0.51100000000E-03 0.  1.
         12    1    3    3    0    0  0.31304097053E+01 -0.11347824628E+02  0.63323229049E+01  0.13366783535E+02  0.00000000000E+00 0. -1.
</event>
<event>
 7    1  0.5138511E-013  0.5052887E+02  0.7816164E-02  0.1300439E+00
        -11   -1    0    0    0    0  0.00000000000E+00  0.00000000000E+00  0.45593999997E+02  0.45594000000E+02  0.51100000000E-03 0.  1.
         11   -1    0    0    0    0 -0.00000000000E+00 -0.00000000000E+00 -0.45593999997E+02  0.45594000000E+02  0.51100000000E-03 0. -1.
    9900012    2    1    2    0    0 -0.17305439962E+02  0.27306787323E+02 -0.24658187197E+02  0.50528867176E+02  0.30000022269E+02 0.  0.
        -12    1    1    2    0    0  0.17305439962E+02 -0.27306787323E+02  0.24658187197E+02  0.40659132824E+02  0.00000000000E+00 0.  1.
         11    1    3    3    0    0  0.19486127353E+01  0.67693595385E+01 -0.95993074762E+00  0.71093450792E+01  0.51100000000E-03 0. -1.
        -11    1    3    3    0    0 -0.10241049484E+02  0.11777033060E+02  0.10710513549E+01  0.15643680945E+02  0.51100000000E-03 0.  1.
         12    1    3    3    0    0 -0.90130032126E+01  0.87603947244E+01 -0.24769307804E+02  0.27775841153E+02  0.00000000000E+00 0. -1.
</event>
<event>
 7    1  0.5138511E-013  0.5052888E+02  0.7816164E-02  0.1300439E+00
        -11   -1    0    0    0    0  0.00000000000E+00  0.00000000000E+00  0.45593999997E+02  0.45594000000E+02  0.51100000000E-03 0.  1.
         11   -1    0    0    0    0 -0.00000000000E+00 -0.00000000000E+00 -0.45593999997E+02  0.45594000000E+02  0.51100000000E-03 0. -1.
    9900012    2    1    2    0    0 -0.24340301297E+02  0.32282191740E+02 -0.43097738182E+01  0.50528876533E+02  0.30000050709E+02 0.  0.
        -12    1    1    2    0    0  0.24340301297E+02 -0.32282191740E+02  0.43097738182E+01  0.40659123467E+02  0.00000000000E+00 0.  1.
         11    1    3    3    0    0 -0.10766647916E+01  0.13247250987E+02  0.68677005053E+01  0.14960420324E+02  0.51100000000E-03 0. -1.
        -11    1    3    3    0    0  0.72921521870E+00  0.26903571454E+00 -0.42632148492E+01  0.43334900672E+01  0.51100000000E-03 0.  1.
        -12    1    3    3    0    0 -0.23992851725E+02  0.18765905038E+02 -0.69142594743E+01  0.31234966141E+02  0.00000000000E+00 0.  1.
</event>
<event>
 7    1  0.5138511E-013  0.5052886E+02  0.7816164E-02  0.1300439E+00
        -11   -1    0    0    0    0  0.00000000000E+00  0.00000000000E+00  0.45593999997E+02  0.45594000000E+02  0.51100000000E-03 0.  1.
         11   -1    0    0    0    0 -0.00000000000E+00 -0.00000000000E+00 -0.45593999997E+02  0.45594000000E+02  0.51100000000E-03 0. -1.
    9900012    2    1    2    0    0  0.10432562643E+01 -0.21356170383E+02 -0.34583102780E+02  0.50528863327E+02  0.30000010570E+02 0.  0.
        -12    1    1    2    0    0 -0.10432562643E+01  0.21356170383E+02  0.34583102780E+02  0.40659136673E+02  0.00000000000E+00 0.  1.
         11    1    3    3    0    0  0.59958180071E+01 -0.18827774357E+02 -0.28459186481E+02  0.34646215035E+02  0.51100000000E-03 0. -1.
        -11    1    3    3    0    0 -0.71224904388E+01 -0.54000560116E+01 -0.78453612166E+01  0.11892862055E+02  0.51100000000E-03 0.  1.
         12    1    3    3    0    0  0.21699286960E+01  0.28716599859E+01  0.17214449171E+01  0.39897862378E+01  0.00000000000E+00 0. -1.
</event>
<event>
 7    1  0.5138511E-013  0.5052887E+02  0.7816164E-02  0.1300439E+00
        -11   -1    0    0    0    0  0.00000000000E+00  0.00000000000E+00  0.45593999997E+02  0.45594000000E+02  0.51100000000E-03 0. -1.
         11   -1    0    0    0    0 -0.00000000000E+00 -0.00000000000E+00 -0.45593999997E+02  0.45594000000E+02  0.51100000000E-03 0.  1.
    9900012    2    1    2    0    0 -0.35935720933E+02  0.18769831227E+02  0.30793428855E+01  0.50528868727E+02  0.30000026984E+02 0.  0.
        -12    1    1    2    0    0  0.35935720933E+02 -0.18769831227E+02 -0.30793428855E+01  0.40659131273E+02  0.00000000000E+00 0.  1.
         11    1    3    3    0    0 -0.52530935745E+01  0.81173658017E+01  0.53256333090E+01  0.11038523002E+02  0.51100000000E-03 0. -1.
        -11    1    3    3    0    0 -0.10256199976E+02 -0.29688182562E+01 -0.90684550034E+01  0.14008582947E+02  0.51100000000E-03 0.  1.
         12    1    3    3    0    0 -0.20426427382E+02  0.13621283681E+02  0.68221645799E+01  0.25481762778E+02  0.00000000000E+00 0. -1.
</event>
<event>
 7    1  0.5138511E-013  0.5052886E+02  0.7816164E-02  0.1300439E+00
        -11   -1    0    0    0    0  0.00000000000E+00  0.00000000000E+00  0.45593999997E+02  0.45594000000E+02  0.51100000000E-03 0. -1.
         11   -1    0    0    0    0 -0.00000000000E+00 -0.00000000000E+00 -0.45593999997E+02  0.45594000000E+02  0.51100000000E-03 0.  1.
    9900012    2    1    2    0    0  0.16257087504E+01  0.37443849140E+02  0.15763278937E+02  0.50528859205E+02  0.29999998039E+02 0.  0.
        -12    1    1    2    0    0 -0.16257087504E+01 -0.37443849140E+02 -0.15763278937E+02  0.40659140795E+02  0.00000000000E+00 0.  1.
         11    1    3    3    0    0  0.44652620881E+00  0.20434951676E+02  0.26873880517E+00  0.20441596231E+02  0.51100000000E-03 0. -1.
        -11    1    3    3    0    0 -0.33384869535E+01  0.25358140293E+01 -0.37243829114E+01  0.56077514443E+01  0.51100000000E-03 0.  1.
         12    1    3    3    0    0  0.45176694951E+01  0.14473083434E+02  0.19218923044E+02  0.24479511529E+02  0.00000000000E+00 0. -1.
</event>
<event>
 7    1  0.5138511E-013  0.5052887E+02  0.7816164E-02  0.1300439E+00
        -11   -1    0    0    0    0  0.00000000000E+00  0.00000000000E+00  0.45593999997E+02  0.45594000000E+02  0.51100000000E-03 0. -1.
         11   -1    0    0    0    0 -0.00000000000E+00 -0.00000000000E+00 -0.45593999997E+02  0.45594000000E+02  0.51100000000E-03 0.  1.
    9900012    2    1    2    0    0 -0.27531043243E+02 -0.26624916215E+02 -0.13649926636E+02  0.50528868152E+02  0.30000025234E+02 0.  0.
        -12    1    1    2    0    0  0.27531043243E+02  0.26624916215E+02  0.13649926636E+02  0.40659131848E+02  0.00000000000E+00 0.  1.
         11    1    3    3    0    0 -0.15242337096E+02 -0.17855373164E+02 -0.13584863665E+02  0.27123637515E+02  0.51100000000E-03 0. -1.
        -11    1    3    3    0    0 -0.73307668327E+01 -0.77867685587E+00 -0.81600940201E+01  0.10996982071E+02  0.51100000000E-03 0.  1.
        -12    1    3    3    0    0 -0.49579393140E+01 -0.79908661947E+01  0.80950310486E+01  0.12408248565E+02  0.00000000000E+00 0.  1.
</event>
<event>
 7    1  0.5441092E-013  0.5052890E+02  0.7816164E-02  0.1300439E+00
        -11   -1    0    0    0    0  0.00000000000E+00  0.00000000000E+00  0.45593999997E+02  0.45594000000E+02  0.51100000000E-03 0.  1.
         11   -1    0    0    0    0 -0.00000000000E+00 -0.00000000000E+00 -0.45593999997E+02  0.45594000000E+02  0.51100000000E-03 0. -1.
    9900012    2    1    2    0    0 -0.22941505485E+02  0.85785204308E+01 -0.32453953078E+02  0.50528895766E+02  0.30000109170E+02 0.  0.
        -12    1    1    2    0    0  0.22941505485E+02 -0.85785204308E+01  0.32453953078E+02  0.40659104234E+02  0.00000000000E+00 0.  1.
         11    1    3    3    0    0 -0.18007151536E+02  0.34993049760E-01 -0.20965051381E+02  0.27636789080E+02  0.51100000000E-03 0. -1.
        -11    1    3    3    0    0 -0.78074179797E+01  0.11699220125E+02 -0.12134172259E+02  0.18575943145E+02  0.51100000000E-03 0.  1.
        -12    1    3    3    0    0  0.28730640304E+01 -0.31556927442E+01  0.64527056187E+00  0.43161635415E+01  0.00000000000E+00 0.  1.
</event>
<event>
 7    1  0.5138511E-013  0.5052886E+02  0.7816164E-02  0.1300439E+00
        -11   -1    0    0    0    0  0.00000000000E+00  0.00000000000E+00  0.45593999997E+02  0.45594000000E+02  0.51100000000E-03 0. -1.
         11   -1    0    0    0    0 -0.00000000000E+00 -0.00000000000E+00 -0.45593999997E+02  0.45594000000E+02  0.51100000000E-03 0.  1.
    9900012    2    1    2    0    0 -0.99991517719E+00  0.40015288460E+02 -0.71374055445E+01  0.50528859591E+02  0.29999999211E+02 0.  0.
        -12    1    1    2    0    0  0.99991517719E+00 -0.40015288460E+02  0.71374055445E+01  0.40659140409E+02  0.00000000000E+00 0.  1.
         11    1    3    3    0    0  0.14458001270E+01  0.50080345838E+01 -0.63250637758E+01  0.81961686433E+01  0.51100000000E-03 0.  1.
        -11    1    3    3    0    0  0.10264135777E+02  0.10929246143E+02  0.11365217735E+01  0.15036375444E+02  0.51100000000E-03 0. -1.
         12    1    3    3    0    0 -0.12709851081E+02  0.24078007734E+02 -0.19488635421E+01  0.27296315503E+02  0.00000000000E+00 0. -1.
</event>
<event>
 7    1  0.5138511E-013  0.5052888E+02  0.7816164E-02  0.1300439E+00
        -11   -1    0    0    0    0  0.00000000000E+00  0.00000000000E+00  0.45593999997E+02  0.45594000000E+02  0.51100000000E-03 0.  1.
         11   -1    0    0    0    0 -0.00000000000E+00 -0.00000000000E+00 -0.45593999997E+02  0.45594000000E+02  0.51100000000E-03 0. -1.
    9900012    2    1    2    0    0 -0.98930976509E+00 -0.12134403788E+02 -0.38793581234E+02  0.50528875144E+02  0.30000046489E+02 0.  0.
        -12    1    1    2    0    0  0.98930976509E+00  0.12134403788E+02  0.38793581234E+02  0.40659124856E+02  0.00000000000E+00 0.  1.
         11    1    3    3    0    0 -0.30160039904E+01 -0.56051394294E+01  0.27978987795E+01  0.69528487639E+01  0.51100000000E-03 0.  1.
        -11    1    3    3    0    0 -0.22690606867E+01 -0.57037840013E+01 -0.10378285059E+02  0.12057802012E+02  0.51100000000E-03 0. -1.
        -12    1    3    3    0    0  0.42957549119E+01 -0.82548035686E+00 -0.31213194954E+02  0.31518224368E+02  0.00000000000E+00 0.  1.
</event>
<event>
 7    1  0.5138511E-013  0.5052886E+02  0.7816164E-02  0.1300439E+00
        -11   -1    0    0    0    0  0.00000000000E+00  0.00000000000E+00  0.45593999997E+02  0.45594000000E+02  0.51100000000E-03 0.  1.
         11   -1    0    0    0    0 -0.00000000000E+00 -0.00000000000E+00 -0.45593999997E+02  0.45594000000E+02  0.51100000000E-03 0. -1.
    9900012    2    1    2    0    0  0.15044493620E+02 -0.30340594605E+02 -0.22500607730E+02  0.50528858131E+02  0.29999994776E+02 0.  0.
        -12    1    1    2    0    0 -0.15044493620E+02  0.30340594605E+02  0.22500607730E+02  0.40659141869E+02  0.00000000000E+00 0.  1.
         11    1    3    3    0    0  0.57944423191E+01 -0.12461295105E+02 -0.56945113772E+01  0.14875715028E+02  0.51100000000E-03 0. -1.
        -11    1    3    3    0    0  0.12056258252E+02 -0.11534750902E+01 -0.49298112518E+00  0.12121340621E+02  0.51100000000E-03 0.  1.
        -12    1    3    3    0    0 -0.28062069507E+01 -0.16725824410E+02 -0.16313115228E+02  0.23531802482E+02  0.00000000000E+00 0.  1.
</event>
<event>
 7    1  0.5738733E-013  0.5052886E+02  0.7816164E-02  0.1300439E+00
        -11   -1    0    0    0    0  0.00000000000E+00  0.00000000000E+00  0.45593999997E+02  0.45594000000E+02  0.51100000000E-03 0.  1.
         11   -1    0    0    0    0 -0.00000000000E+00 -0.00000000000E+00 -0.45593999997E+02  0.45594000000E+02  0.51100000000E-03 0. -1.
    9900012    2    1    2    0    0 -0.92203782069E+01 -0.35221814008E+02 -0.18099005194E+02  0.50528861479E+02  0.30000004952E+02 0.  0.
        -12    1    1    2    0    0  0.92203782069E+01  0.35221814008E+02  0.18099005194E+02  0.40659138521E+02  0.00000000000E+00 0.  1.
         11    1    3    3    0    0  0.26508079467E+01 -0.12523044683E+02 -0.66445452018E+01  0.14422323394E+02  0.51100000000E-03 0. -1.
        -11    1    3    3    0    0 -0.36763398949E+01 -0.10137366342E+02 -0.16986890626E+02  0.20120539873E+02  0.51100000000E-03 0.  1.
        -12    1    3    3    0    0 -0.81948462587E+01 -0.12561402983E+02  0.55324306339E+01  0.15985998212E+02  0.00000000000E+00 0.  1.
</event>
<event>
 7    1  0.5138511E-013  0.5052886E+02  0.7816164E-02  0.1300439E+00
        -11   -1    0    0    0    0  0.00000000000E+00  0.00000000000E+00  0.45593999997E+02  0.45594000000E+02  0.51100000000E-03 0.  1.
         11   -1    0    0    0    0 -0.00000000000E+00 -0.00000000000E+00 -0.45593999997E+02  0.45594000000E+02  0.51100000000E-03 0. -1.
    9900012    2    1    2    0    0  0.30244024359E+02  0.27172394427E+02 -0.35452652470E+00  0.50528859363E+02  0.29999998519E+02 0.  0.
        -12    1    1    2    0    0 -0.30244024359E+02 -0.27172394427E+02  0.35452652470E+00  0.40659140637E+02  0.00000000000E+00 0.  1.
         11    1    3    3    0    0  0.18996958074E+02  0.87238156546E+01  0.40633618878E+01  0.21295546148E+02  0.51100000000E-03 0. -1.
        -11    1    3    3    0    0  0.33378353681E+01  0.80255267881E+01  0.75410466307E+01  0.11507285072E+02  0.51100000000E-03 0.  1.
         12    1    3    3    0    0  0.79092309164E+01  0.10423051985E+02 -0.11958935043E+02  0.17726028143E+02  0.00000000000E+00 0. -1.
</event>
<event>
 7    1  0.5138511E-013  0.5052886E+02  0.7816164E-02  0.1300439E+00
        -11   -1    0    0    0    0  0.00000000000E+00  0.00000000000E+00  0.45593999997E+02  0.45594000000E+02  0.51100000000E-03 0. -1.
         11   -1    0    0    0    0 -0.00000000000E+00 -0.00000000000E+00 -0.45593999997E+02  0.45594000000E+02  0.51100000000E-03 0.  1.
    9900012    2    1    2    0    0 -0.36112155330E+02 -0.14217022295E+02 -0.12122476151E+02  0.50528856950E+02  0.29999991186E+02 0.  0.
        -12    1    1    2    0    0  0.36112155330E+02  0.14217022295E+02  0.12122476151E+02  0.40659143050E+02  0.00000000000E+00 0.  1.
         11    1    3    3    0    0 -0.24165512920E+02 -0.14227348700E+02 -0.34708540858E+01  0.28256615050E+02  0.51100000000E-03 0.  1.
        -11    1    3    3    0    0 -0.14102506569E+02 -0.38830465190E+01 -0.98848266223E+01  0.17654136609E+02  0.51100000000E-03 0. -1.
        -12    1    3    3    0    0  0.21558641589E+01  0.38933729245E+01  0.12332045574E+01  0.46181052913E+01  0.00000000000E+00 0.  1.
</event>
<event>
 7    1  0.6146612E-013  0.5052885E+02  0.7816164E-02  0.1300439E+00
        -11   -1    0    0    0    0  0.00000000000E+00  0.00000000000E+00  0.45593999997E+02  0.45594000000E+02  0.51100000000E-03 0. -1.
         11   -1    0    0    0    0 -0.00000000000E+00 -0.00000000000E+00 -0.45593999997E+02  0.45594000000E+02  0.51100000000E-03 0.  1.
    9900012    2    1    2    0    0 -0.20944222313E+02 -0.29426538721E+01  0.34725304565E+02  0.50528850511E+02  0.29999971613E+02 0.  0.
        -12    1    1    2    0    0  0.20944222313E+02  0.29426538721E+01 -0.34725304565E+02  0.40659149489E+02  0.00000000000E+00 0.  1.
         11    1    3    3    0    0 -0.13982595380E+02  0.78046168934E+01  0.18901676065E+02  0.24772936377E+02  0.51100000000E-03 0. -1.
        -11    1    3    3    0    0 -0.11203769701E+02 -0.37172078160E+01  0.70957326210E+01  0.13772854140E+02  0.51100000000E-03 0.  1.
        -12    1    3    3    0    0  0.42421427691E+01 -0.70300629495E+01  0.87278958786E+01  0.11983059994E+02  0.00000000000E+00 0.  1.
</event>
<event>
 7    1  0.5138511E-013  0.5052885E+02  0.7816164E-02  0.1300439E+00
        -11   -1    0    0    0    0  0.00000000000E+00  0.00000000000E+00  0.45593999997E+02  0.45594000000E+02  0.51100000000E-03 0.  1.
         11   -1    0    0    0    0 -0.00000000000E+00 -0.00000000000E+00 -0.45593999997E+02  0.45594000000E+02  0.51100000000E-03 0. -1.
    9900012    2    1    2    0    0 -0.24899039830E+02 -0.25565593568E+02 -0.19483437833E+02  0.50528854550E+02  0.29999983889E+02 0.  0.
        -12    1    1    2    0    0  0.24899039830E+02  0.25565593568E+02  0.19483437833E+02  0.40659145450E+02  0.00000000000E+00 0.  1.
         11    1    3    3    0    0 -0.13875228517E+02 -0.88068631826E+01 -0.20077455155E+02  0.25945847669E+02  0.51100000000E-03 0. -1.
        -11    1    3    3    0    0 -0.57106534517E+01 -0.10588837586E+02 -0.65963339022E+01  0.13720301216E+02  0.51100000000E-03 0.  1.
        -12    1    3    3    0    0 -0.53131578615E+01 -0.61698928003E+01  0.71903512238E+01  0.10862705664E+02  0.00000000000E+00 0.  1.
</event>
<event>
 7    1  0.5138511E-013  0.5052886E+02  0.7816164E-02  0.1300439E+00
        -11   -1    0    0    0    0  0.00000000000E+00  0.00000000000E+00  0.45593999997E+02  0.45594000000E+02  0.51100000000E-03 0. -1.
         11   -1    0    0    0    0 -0.00000000000E+00 -0.00000000000E+00 -0.45593999997E+02  0.45594000000E+02  0.51100000000E-03 0.  1.
    9900012    2    1    2    0    0  0.24221623898E+02  0.32588247481E+02 -0.21177152589E+01  0.50528860117E+02  0.30000000811E+02 0.  0.
        -12    1    1    2    0    0 -0.24221623898E+02 -0.32588247481E+02  0.21177152589E+01  0.40659139883E+02  0.00000000000E+00 0.  1.
         11    1    3    3    0    0  0.67938378943E+01  0.76741690667E+01 -0.41226859065E+01  0.11047427010E+02  0.51100000000E-03 0. -1.
        -11    1    3    3    0    0  0.70964187187E+01  0.23126591064E+02  0.10120632883E+02  0.26222615870E+02  0.51100000000E-03 0.  1.
         12    1    3    3    0    0  0.10331367285E+02  0.17874873506E+01 -0.81156622353E+01  0.13258817237E+02  0.00000000000E+00 0. -1.
</event>
<event>
 7    1  0.5138511E-013  0.5052888E+02  0.7816164E-02  0.1300439E+00
        -11   -1    0    0    0    0  0.00000000000E+00  0.00000000000E+00  0.45593999997E+02  0.45594000000E+02  0.51100000000E-03 0. -1.
         11   -1    0    0    0    0 -0.00000000000E+00 -0.00000000000E+00 -0.45593999997E+02  0.45594000000E+02  0.51100000000E-03 0.  1.
    9900012    2    1    2    0    0  0.33671835461E+02 -0.21673587701E+02 -0.70446593693E+01  0.50528878849E+02  0.30000057749E+02 0.  0.
        -12    1    1    2    0    0 -0.33671835461E+02  0.21673587701E+02  0.70446593693E+01  0.40659121151E+02  0.00000000000E+00 0.  1.
         11    1    3    3    0    0  0.52608353795E+01 -0.87566098196E+00  0.89360031172E+01  0.10406503881E+02  0.51100000000E-03 0. -1.
        -11    1    3    3    0    0  0.17939656338E+01 -0.10564869904E+01 -0.46586268580E+01  0.51026739970E+01  0.51100000000E-03 0.  1.
        -12    1    3    3    0    0  0.26617034447E+02 -0.19741439729E+02 -0.11322035629E+02  0.35019700971E+02  0.00000000000E+00 0.  1.
</event>
<event>
 7    1  0.5138511E-013  0.5052886E+02  0.7816164E-02  0.1300439E+00
        -11   -1    0    0    0    0  0.00000000000E+00  0.00000000000E+00  0.45593999997E+02  0.45594000000E+02  0.51100000000E-03 0.  1.
         11   -1    0    0    0    0 -0.00000000000E+00 -0.00000000000E+00 -0.45593999997E+02  0.45594000000E+02  0.51100000000E-03 0. -1.
    9900012    2    1    2    0    0  0.15326604935E+02 -0.27247391091E+02 -0.25996930031E+02  0.50528861899E+02  0.30000006228E+02 0.  0.
        -12    1    1    2    0    0 -0.15326604935E+02  0.27247391091E+02  0.25996930031E+02  0.40659138101E+02  0.00000000000E+00 0.  1.
         11    1    3    3    0    0  0.67199979683E+01 -0.38958495520E+01 -0.10243933997E+02  0.12855901385E+02  0.51100000000E-03 0. -1.
        -11    1    3    3    0    0  0.48326387450E+01 -0.23278391578E+02 -0.20649567149E+02  0.31490356229E+02  0.51100000000E-03 0.  1.
        -12    1    3    3    0    0  0.37739682216E+01 -0.73149960702E-01  0.48965711156E+01  0.61826042850E+01  0.00000000000E+00 0.  1.
</event>
<event>
 7    1  0.5138511E-013  0.5052886E+02  0.7816164E-02  0.1300439E+00
        -11   -1    0    0    0    0  0.00000000000E+00  0.00000000000E+00  0.45593999997E+02  0.45594000000E+02  0.51100000000E-03 0.  1.
         11   -1    0    0    0    0 -0.00000000000E+00 -0.00000000000E+00 -0.45593999997E+02  0.45594000000E+02  0.51100000000E-03 0. -1.
    9900012    2    1    2    0    0 -0.14668918304E+02  0.36195952186E+02 -0.11306715494E+02  0.50528856697E+02  0.29999990416E+02 0.  0.
        -12    1    1    2    0    0  0.14668918304E+02 -0.36195952186E+02  0.11306715494E+02  0.40659143303E+02  0.00000000000E+00 0.  1.
         11    1    3    3    0    0 -0.42278094538E+01 -0.30621848405E+01 -0.28511918627E+01  0.59481630840E+01  0.51100000000E-03 0. -1.
        -11    1    3    3    0    0 -0.14216369290E+01  0.13353237285E+02 -0.10540508036E+02  0.17071388563E+02  0.51100000000E-03 0.  1.
         12    1    3    3    0    0 -0.90194719213E+01  0.25904899742E+02  0.20849844045E+01  0.27509305050E+02  0.00000000000E+00 0. -1.
</event>
<event>
 7    1  0.5138511E-013  0.5052886E+02  0.7816164E-02  0.1300439E+00
        -11   -1    0    0    0    0  0.00000000000E+00  0.00000000000E+00  0.45593999997E+02  0.45594000000E+02  0.51100000000E-03 0. -1.
         11   -1    0    0    0    0 -0.00000000000E+00 -0.00000000000E+00 -0.45593999997E+02  0.45594000000E+02  0.51100000000E-03 0.  1.
    9900012    2    1    2    0    0  0.77108305734E+01  0.85212450403E+01  0.39001249027E+02  0.50528856492E+02  0.29999989793E+02 0.  0.
        -12    1    1    2    0    0 -0.77108305734E+01 -0.85212450403E+01 -0.39001249027E+02  0.40659143508E+02  0.00000000000E+00 0.  1.
         11    1    3    3    0    0  0.77106108070E+01 -0.24325104717E+01  0.18894091714E+01  0.83030412193E+01  0.51100000000E-03 0.  1.
        -11    1    3    3    0    0  0.57358912051E+01  0.51362874425E+00  0.39337246853E+01  0.69741273694E+01  0.51100000000E-03 0. -1.
        -12    1    3    3    0    0 -0.57356714387E+01  0.10440126768E+02  0.33178115170E+02  0.35251687903E+02  0.00000000000E+00 0.  1.
</event>
<event>
 7    1  0.5138511E-013  0.5052885E+02  0.7816164E-02  0.1300439E+00
        -11   -1    0    0    0    0  0.00000000000E+00  0.00000000000E+00  0.45593999997E+02  0.45594000000E+02  0.51100000000E-03 0. -1.
         11   -1    0    0    0    0 -0.00000000000E+00 -0.00000000000E+00 -0.45593999997E+02  0.45594000000E+02  0.51100000000E-03 0.  1.
    9900012    2    1    2    0    0  0.26361025393E+02  0.17327822513E+02  0.25651700702E+02  0.50528845536E+02  0.29999956491E+02 0.  0.
        -12    1    1    2    0    0 -0.26361025393E+02 -0.17327822513E+02 -0.25651700702E+02  0.40659154464E+02  0.00000000000E+00 0.  1.
         11    1    3    3    0    0  0.14916802049E+02 -0.47271912358E+01  0.71143074889E+01  0.17189260940E+02  0.51100000000E-03 0.  1.
        -11    1    3    3    0    0  0.25798428634E+01 -0.11734503542E+01  0.15796121818E+01  0.32446494171E+01  0.51100000000E-03 0. -1.
        -12    1    3    3    0    0  0.88643804803E+01  0.23228464103E+02  0.16957781031E+02  0.30094935179E+02  0.00000000000E+00 0.  1.
</event>
<event>
 7    1  0.5138511E-013  0.5052890E+02  0.7816164E-02  0.1300439E+00
        -11   -1    0    0    0    0  0.00000000000E+00  0.00000000000E+00  0.45593999997E+02  0.45594000000E+02  0.51100000000E-03 0.  1.
         11   -1    0    0    0    0 -0.00000000000E+00 -0.00000000000E+00 -0.45593999997E+02  0.45594000000E+02  0.51100000000E-03 0. -1.
    9900012    2    1    2    0    0 -0.91769295364E+01 -0.23139823169E+01 -0.39542276510E+02  0.50528902845E+02  0.30000130687E+02 0.  0.
        -12    1    1    2    0    0  0.91769295364E+01  0.23139823169E+01  0.39542276510E+02  0.40659097155E+02  0.00000000000E+00 0.  1.
         11    1    3    3    0    0 -0.65267227223E+01 -0.46438805691E+01 -0.55646661969E+01  0.97534222905E+01  0.51100000000E-03 0.  1.
        -11    1    3    3    0    0  0.35819784312E+01 -0.21099363626E+01  0.15472905524E+01  0.44358211472E+01  0.51100000000E-03 0. -1.
         12    1    3    3    0    0 -0.62321852453E+01  0.44398346148E+01 -0.35524900865E+02  0.36339659407E+02  0.00000000000E+00 0. -1.
</event>
<event>
 7    1  0.5138511E-013  0.5052887E+02  0.7816164E-02  0.1300439E+00
        -11   -1    0    0    0    0  0.00000000000E+00  0.00000000000E+00  0.45593999997E+02  0.45594000000E+02  0.51100000000E-03 0. -1.
         11   -1    0    0    0    0 -0.00000000000E+00 -0.00000000000E+00 -0.45593999997E+02  0.45594000000E+02  0.51100000000E-03 0.  1.
    9900012    2    1    2    0    0 -0.31627126776E+01 -0.37666354059E+02 -0.14980262078E+02  0.50528865337E+02  0.30000016679E+02 0.  0.
        -12    1    1    2    0    0  0.31627126776E+01  0.37666354059E+02  0.14980262078E+02  0.40659134663E+02  0.00000000000E+00 0.  1.
         11    1    3    3    0    0  0.41285121029E+00  0.53346543503E+00  0.40136103206E+01  0.40699016646E+01  0.51100000000E-03 0. -1.
        -11    1    3    3    0    0 -0.74515119878E+01 -0.15453466218E+02 -0.97707948441E+00  0.17183984801E+02  0.51100000000E-03 0.  1.
        -12    1    3    3    0    0  0.38759480999E+01 -0.22746353277E+02 -0.18016792914E+02  0.29274978872E+02  0.00000000000E+00 0.  1.
</event>
<event>
 7    1  0.5138511E-013  0.5052886E+02  0.7816164E-02  0.1300439E+00
        -11   -1    0    0    0    0  0.00000000000E+00  0.00000000000E+00  0.45593999997E+02  0.45594000000E+02  0.51100000000E-03 0.  1.
         11   -1    0    0    0    0 -0.00000000000E+00 -0.00000000000E+00 -0.45593999997E+02  0.45594000000E+02  0.51100000000E-03 0. -1.
    9900012    2    1    2    0    0  0.50389513853E+00  0.39155781566E+02 -0.10942423786E+02  0.50528858609E+02  0.29999996227E+02 0.  0.
        -12    1    1    2    0    0 -0.50389513853E+00 -0.39155781566E+02  0.10942423786E+02  0.40659141391E+02  0.00000000000E+00 0.  1.
         11    1    3    3    0    0 -0.67506113572E-01  0.20900378211E+02 -0.11225478781E+02  0.23724285881E+02  0.51100000000E-03 0. -1.
        -11    1    3    3    0    0 -0.75681238587E+01  0.16742054827E+02 -0.11210887081E+01  0.18407328398E+02  0.51100000000E-03 0.  1.
        -12    1    3    3    0    0  0.81395251108E+01  0.15133485279E+01  0.14041437035E+01  0.83972443299E+01  0.00000000000E+00 0.  1.
</event>
<event>
 7    1  0.5138511E-013  0.5052885E+02  0.7816164E-02  0.1300439E+00
        -11   -1    0    0    0    0  0.00000000000E+00  0.00000000000E+00  0.45593999997E+02  0.45594000000E+02  0.51100000000E-03 0.  1.
         11   -1    0    0    0    0 -0.00000000000E+00 -0.00000000000E+00 -0.45593999997E+02  0.45594000000E+02  0.51100000000E-03 0. -1.
    9900012    2    1    2    0    0 -0.68589015083E+00 -0.39797338983E+02  0.82986412143E+01  0.50528854885E+02  0.29999984910E+02 0.  0.
        -12    1    1    2    0    0  0.68589015083E+00  0.39797338983E+02 -0.82986412143E+01  0.40659145115E+02  0.00000000000E+00 0.  1.
         11    1    3    3    0    0  0.22176355098E+00 -0.12690592274E+02 -0.63281427472E+01  0.14182584469E+02  0.51100000000E-03 0. -1.
        -11    1    3    3    0    0  0.41863752476E+01  0.13204771025E+01  0.21099191264E+01  0.48704369899E+01  0.51100000000E-03 0.  1.
        -12    1    3    3    0    0 -0.50940289494E+01 -0.28427223812E+02  0.12516864835E+02  0.31475833426E+02  0.00000000000E+00 0.  1.
</event>
<event>
 7    1  0.5138511E-013  0.5052886E+02  0.7816164E-02  0.1300439E+00
        -11   -1    0    0    0    0  0.00000000000E+00  0.00000000000E+00  0.45593999997E+02  0.45594000000E+02  0.51100000000E-03 0. -1.
         11   -1    0    0    0    0 -0.00000000000E+00 -0.00000000000E+00 -0.45593999997E+02  0.45594000000E+02  0.51100000000E-03 0.  1.
    9900012    2    1    2    0    0  0.47720772954E+01  0.28217679844E+02  0.28881753360E+02  0.50528857674E+02  0.29999993387E+02 0.  0.
        -12    1    1    2    0    0 -0.47720772954E+01 -0.28217679844E+02 -0.28881753360E+02  0.40659142326E+02  0.00000000000E+00 0.  1.
         11    1    3    3    0    0  0.21370097488E+01  0.80374927027E+01  0.16234215533E+02  0.18240555196E+02  0.51100000000E-03 0. -1.
        -11    1    3    3    0    0  0.87199184192E+01  0.12216237946E+00  0.43442791850E+01  0.97429288607E+01  0.51100000000E-03 0.  1.
        -12    1    3    3    0    0 -0.60848508727E+01  0.20058024762E+02  0.83032586420E+01  0.22545373618E+02  0.00000000000E+00 0.  1.
</event>
<event>
 7    1  0.5138511E-013  0.5052885E+02  0.7816164E-02  0.1300439E+00
        -11   -1    0    0    0    0  0.00000000000E+00  0.00000000000E+00  0.45593999997E+02  0.45594000000E+02  0.51100000000E-03 0.  1.
         11   -1    0    0    0    0 -0.00000000000E+00 -0.00000000000E+00 -0.45593999997E+02  0.45594000000E+02  0.51100000000E-03 0. -1.
    9900012    2    1    2    0    0  0.33193103602E+01 -0.39759998449E+01 -0.40327903441E+02  0.50528853526E+02  0.29999980778E+02 0.  0.
        -12    1    1    2    0    0 -0.33193103602E+01  0.39759998449E+01  0.40327903441E+02  0.40659146474E+02  0.00000000000E+00 0.  1.
         11    1    3    3    0    0  0.56035995751E+01 -0.36825905847E+01 -0.39297027975E+02  0.39864999806E+02  0.51100000000E-03 0. -1.
        -11    1    3    3    0    0  0.10886130395E+01  0.39162528170E+01 -0.28576111984E+01  0.49687077293E+01  0.51100000000E-03 0.  1.
        -12    1    3    3    0    0 -0.33729022545E+01 -0.42096620772E+01  0.18267357323E+01  0.56951459910E+01  0.00000000000E+00 0.  1.
</event>
<event>
 7    1  0.5138511E-013  0.5052887E+02  0.7816164E-02  0.1300439E+00
        -11   -1    0    0    0    0  0.00000000000E+00  0.00000000000E+00  0.45593999997E+02  0.45594000000E+02  0.51100000000E-03 0. -1.
         11   -1    0    0    0    0 -0.00000000000E+00 -0.00000000000E+00 -0.45593999997E+02  0.45594000000E+02  0.51100000000E-03 0.  1.
    9900012    2    1    2    0    0 -0.34605295973E+02 -0.27146913743E+01  0.21172352757E+02  0.50528873350E+02  0.30000041036E+02 0.  0.
        -12    1    1    2    0    0  0.34605295973E+02  0.27146913743E+01 -0.21172352757E+02  0.40659126650E+02  0.00000000000E+00 0.  1.
         11    1    3    3    0    0 -0.79909241386E+01  0.35635840577E+01  0.48932255969E+01  0.10024851965E+02  0.51100000000E-03 0. -1.
        -11    1    3    3    0    0 -0.24931472503E+02 -0.89230262201E+01  0.21704157089E+02  0.34238416337E+02  0.51100000000E-03 0.  1.
        -12    1    3    3    0    0 -0.16828993318E+01  0.26447507880E+01 -0.54250299285E+01  0.62656050479E+01  0.00000000000E+00 0.  1.
</event>
<event>
 7    1  0.5138511E-013  0.5052889E+02  0.7816164E-02  0.1300439E+00
        -11   -1    0    0    0    0  0.00000000000E+00  0.00000000000E+00  0.45593999997E+02  0.45594000000E+02  0.51100000000E-03 0. -1.
         11   -1    0    0    0    0 -0.00000000000E+00 -0.00000000000E+00 -0.45593999997E+02  0.45594000000E+02  0.51100000000E-03 0.  1.
    9900012    2    1    2    0    0 -0.32297835284E+02  0.21723786418E+02 -0.11751183029E+02  0.50528888316E+02  0.30000086525E+02 0.  0.
        -12    1    1    2    0    0  0.32297835284E+02 -0.21723786418E+02  0.11751183029E+02  0.40659111684E+02  0.00000000000E+00 0.  1.
         11    1    3    3    0    0  0.15812908400E+01 -0.54499754199E+00 -0.26771322943E+00  0.16938635352E+01  0.51100000000E-03 0. -1.
        -11    1    3    3    0    0 -0.20656350431E+02 -0.12042381241E-01 -0.41430762350E+00  0.20660508445E+02  0.51100000000E-03 0.  1.
         12    1    3    3    0    0 -0.13222775692E+02  0.22280826341E+02 -0.11069162176E+02  0.28174516335E+02  0.00000000000E+00 0. -1.
</event>
<event>
 7    1  0.5138511E-013  0.5052886E+02  0.7816164E-02  0.1300439E+00
        -11   -1    0    0    0    0  0.00000000000E+00  0.00000000000E+00  0.45593999997E+02  0.45594000000E+02  0.51100000000E-03 0.  1.
         11   -1    0    0    0    0 -0.00000000000E+00 -0.00000000000E+00 -0.45593999997E+02  0.45594000000E+02  0.51100000000E-03 0. -1.
    9900012    2    1    2    0    0 -0.64821076110E+01  0.35511533207E+02 -0.18710395957E+02  0.50528860478E+02  0.30000001909E+02 0.  0.
        -12    1    1    2    0    0  0.64821076110E+01 -0.35511533207E+02  0.18710395957E+02  0.40659139522E+02  0.00000000000E+00 0.  1.
         11    1    3    3    0    0 -0.11733246791E+01  0.15846117686E+02 -0.11797192215E+02  0.19790146057E+02  0.51100000000E-03 0. -1.
        -11    1    3    3    0    0  0.83623405906E+01  0.10764366560E+02 -0.28177716214E+01  0.13919057610E+02  0.51100000000E-03 0.  1.
        -12    1    3    3    0    0 -0.13671123523E+02  0.89010489609E+01 -0.40954321202E+01  0.16819656811E+02  0.00000000000E+00 0.  1.
</event>
<event>
 7    1  0.5138511E-013  0.5052885E+02  0.7816164E-02  0.1300439E+00
        -11   -1    0    0    0    0  0.00000000000E+00  0.00000000000E+00  0.45593999997E+02  0.45594000000E+02  0.51100000000E-03 0. -1.
         11   -1    0    0    0    0 -0.00000000000E+00 -0.00000000000E+00 -0.45593999997E+02  0.45594000000E+02  0.51100000000E-03 0.  1.
    9900012    2    1    2    0    0  0.24784292359E+02  0.28881844957E+02  0.14308888807E+02  0.50528850787E+02  0.29999972451E+02 0.  0.
        -12    1    1    2    0    0 -0.24784292359E+02 -0.28881844957E+02 -0.14308888807E+02  0.40659149213E+02  0.00000000000E+00 0.  1.
         11    1    3    3    0    0  0.12548373497E+02  0.14352465696E+02  0.12642029677E+02  0.22875223793E+02  0.51100000000E-03 0. -1.
        -11    1    3    3    0    0 -0.10553499656E+01  0.78312157001E+01  0.82102013881E+01  0.11395135365E+02  0.51100000000E-03 0.  1.
         12    1    3    3    0    0  0.13291268827E+02  0.66981635612E+01 -0.65433422578E+01  0.16258491628E+02  0.00000000000E+00 0. -1.
</event>
<event>
 7    1  0.5138511E-013  0.5052894E+02  0.7816164E-02  0.1300439E+00
        -11   -1    0    0    0    0  0.00000000000E+00  0.00000000000E+00  0.45593999997E+02  0.45594000000E+02  0.51100000000E-03 0. -1.
         11   -1    0    0    0    0 -0.00000000000E+00 -0.00000000000E+00 -0.45593999997E+02  0.45594000000E+02  0.51100000000E-03 0.  1.
    9900012    2    1    2    0    0 -0.30883930075E+02 -0.17108330223E+02  0.20165491841E+02  0.50528939988E+02  0.30000243586E+02 0.  0.
        -12    1    1    2    0    0  0.30883930075E+02  0.17108330223E+02 -0.20165491841E+02  0.40659060012E+02  0.00000000000E+00 0.  1.
         11    1    3    3    0    0 -0.19388139403E+01  0.20180871971E+01  0.72699939893E+01  0.77900249226E+01  0.51100000000E-03 0. -1.
        -11    1    3    3    0    0  0.35597116807E+00 -0.86374672361E+01 -0.90972673746E+00  0.86925346549E+01  0.51100000000E-03 0.  1.
        -12    1    3    3    0    0 -0.29301087303E+02 -0.10488950184E+02  0.13805224589E+02  0.34046380410E+02  0.00000000000E+00 0.  1.
</event>
<event>
 7    1  0.5138511E-013  0.5052887E+02  0.7816164E-02  0.1300439E+00
        -11   -1    0    0    0    0  0.00000000000E+00  0.00000000000E+00  0.45593999997E+02  0.45594000000E+02  0.51100000000E-03 0.  1.
         11   -1    0    0    0    0 -0.00000000000E+00 -0.00000000000E+00 -0.45593999997E+02  0.45594000000E+02  0.51100000000E-03 0. -1.
    9900012    2    1    2    0    0 -0.33564285691E+02  0.11016862262E+02  0.20130385038E+02  0.50528869048E+02  0.30000027957E+02 0.  0.
        -12    1    1    2    0    0  0.33564285691E+02 -0.11016862262E+02 -0.20130385038E+02  0.40659130952E+02  0.00000000000E+00 0.  1.
         11    1    3    3    0    0  0.37084216800E+01  0.47732046656E+01  0.44391167194E+01  0.74994420890E+01  0.51100000000E-03 0. -1.
        -11    1    3    3    0    0  0.51122334445E+00 -0.25263043743E+00  0.23778416017E+01  0.24452612110E+01  0.51100000000E-03 0.  1.
         12    1    3    3    0    0 -0.37783930715E+02  0.64962880343E+01  0.13313426717E+02  0.40584165748E+02  0.00000000000E+00 0. -1.
</event>
<event>
 7    1  0.5138511E-013  0.5052886E+02  0.7816164E-02  0.1300439E+00
        -11   -1    0    0    0    0  0.00000000000E+00  0.00000000000E+00  0.45593999997E+02  0.45594000000E+02  0.51100000000E-03 0.  1.
         11   -1    0    0    0    0 -0.00000000000E+00 -0.00000000000E+00 -0.45593999997E+02  0.45594000000E+02  0.51100000000E-03 0. -1.
    9900012    2    1    2    0    0  0.33470939999E+02 -0.17441277544E+02 -0.15121642568E+02  0.50528855140E+02  0.29999985684E+02 0.  0.
        -12    1    1    2    0    0 -0.33470939999E+02  0.17441277544E+02  0.15121642568E+02  0.40659144860E+02  0.00000000000E+00 0.  1.
         11    1    3    3    0    0  0.58495270536E+01 -0.15799586072E+01 -0.62966759820E+01  0.87384989921E+01  0.51100000000E-03 0. -1.
        -11    1    3    3    0    0  0.28511500505E+02 -0.20974145876E+02 -0.92480187743E+01  0.36583415748E+02  0.51100000000E-03 0.  1.
        -12    1    3    3    0    0 -0.89008755932E+00  0.51128269394E+01  0.42305218858E+00  0.52069404001E+01  0.00000000000E+00 0.  1.
</event>
<event>
 7    1  0.5138511E-013  0.5052888E+02  0.7816164E-02  0.1300439E+00
        -11   -1    0    0    0    0  0.00000000000E+00  0.00000000000E+00  0.45593999997E+02  0.45594000000E+02  0.51100000000E-03 0.  1.
         11   -1    0    0    0    0 -0.00000000000E+00 -0.00000000000E+00 -0.45593999997E+02  0.45594000000E+02  0.51100000000E-03 0. -1.
    9900012    2    1    2    0    0 -0.15021647924E+02 -0.40418317862E+01 -0.37565648419E+02  0.50528877386E+02  0.30000053304E+02 0.  0.
        -12    1    1    2    0    0  0.15021647924E+02  0.40418317862E+01  0.37565648419E+02  0.40659122614E+02  0.00000000000E+00 0.  1.
         11    1    3    3    0    0  0.29266621919E+00  0.33248767806E+00 -0.10264619439E+02  0.10274172184E+02  0.51100000000E-03 0. -1.
        -11    1    3    3    0    0  0.25276010132E+01 -0.10225431022E+02 -0.72663163362E+01  0.12796388546E+02  0.51100000000E-03 0.  1.
         12    1    3    3    0    0 -0.17841915156E+02  0.58511115573E+01 -0.20034712644E+02  0.27458316657E+02  0.00000000000E+00 0. -1.
</event>
<event>
 7    1  0.5138511E-013  0.5052886E+02  0.7816164E-02  0.1300439E+00
        -11   -1    0    0    0    0  0.00000000000E+00  0.00000000000E+00  0.45593999997E+02  0.45594000000E+02  0.51100000000E-03 0. -1.
         11   -1    0    0    0    0 -0.00000000000E+00 -0.00000000000E+00 -0.45593999997E+02  0.45594000000E+02  0.51100000000E-03 0.  1.
    9900012    2    1    2    0    0  0.50891722319E+01 -0.34669405891E+02  0.20622755487E+02  0.50528862986E+02  0.30000009533E+02 0.  0.
        -12    1    1    2    0    0 -0.50891722319E+01  0.34669405891E+02 -0.20622755487E+02  0.40659137014E+02  0.00000000000E+00 0.  1.
         11    1    3    3    0    0 -0.66736345114E+01 -0.19625050709E+02  0.20623540721E+02  0.29240561641E+02  0.51100000000E-03 0. -1.
        -11    1    3    3    0    0  0.46025158409E+01 -0.38360814826E+01  0.42267485528E+01  0.73323991160E+01  0.51100000000E-03 0.  1.
        -12    1    3    3    0    0  0.71602909024E+01 -0.11208273699E+02 -0.42275337871E+01  0.13955902230E+02  0.00000000000E+00 0.  1.
</event>
<event>
 7    1  0.5138511E-013  0.5052886E+02  0.7816164E-02  0.1300439E+00
        -11   -1    0    0    0    0  0.00000000000E+00  0.00000000000E+00  0.45593999997E+02  0.45594000000E+02  0.51100000000E-03 0.  1.
         11   -1    0    0    0    0 -0.00000000000E+00 -0.00000000000E+00 -0.45593999997E+02  0.45594000000E+02  0.51100000000E-03 0. -1.
    9900012    2    1    2    0    0  0.91545065439E+01 -0.23754204049E+02 -0.31703285786E+02  0.50528861671E+02  0.30000005535E+02 0.  0.
        -12    1    1    2    0    0 -0.91545065439E+01  0.23754204049E+02  0.31703285786E+02  0.40659138329E+02  0.00000000000E+00 0.  1.
         11    1    3    3    0    0  0.79819122134E+01 -0.20680184268E+02 -0.27473252675E+02  0.35300999373E+02  0.51100000000E-03 0. -1.
        -11    1    3    3    0    0  0.51914000757E+01  0.83479340377E+00 -0.71748528092E+01  0.88952812136E+01  0.51100000000E-03 0.  1.
         12    1    3    3    0    0 -0.40188057452E+01 -0.39088131842E+01  0.29448196988E+01  0.63325810840E+01  0.00000000000E+00 0. -1.
</event>
<event>
 7    1  0.5138511E-013  0.5052886E+02  0.7816164E-02  0.1300439E+00
        -11   -1    0    0    0    0  0.00000000000E+00  0.00000000000E+00  0.45593999997E+02  0.45594000000E+02  0.51100000000E-03 0.  1.
         11   -1    0    0    0    0 -0.00000000000E+00 -0.00000000000E+00 -0.45593999997E+02  0.45594000000E+02  0.51100000000E-03 0. -1.
    9900012    2    1    2    0    0 -0.21713067858E+02  0.19484765917E+00 -0.34375434704E+02  0.50528858439E+02  0.29999995711E+02 0.  0.
        -12    1    1    2    0    0  0.21713067858E+02 -0.19484765917E+00  0.34375434704E+02  0.40659141561E+02  0.00000000000E+00 0.  1.
         11    1    3    3    0    0 -0.19970143923E+02 -0.56903426729E+01 -0.27869118103E+02  0.34754487367E+02  0.51100000000E-03 0. -1.
        -11    1    3    3    0    0 -0.53720960381E+01  0.16775704281E+01  0.16863389637E+01  0.58751508701E+01  0.51100000000E-03 0.  1.
        -12    1    3    3    0    0  0.36291721031E+01  0.42076199040E+01 -0.81926555648E+01  0.98992202023E+01  0.00000000000E+00 0.  1.
</event>
<event>
 7    1  0.5138511E-013  0.5052887E+02  0.7816164E-02  0.1300439E+00
        -11   -1    0    0    0    0  0.00000000000E+00  0.00000000000E+00  0.45593999997E+02  0.45594000000E+02  0.51100000000E-03 0.  1.
         11   -1    0    0    0    0 -0.00000000000E+00 -0.00000000000E+00 -0.45593999997E+02  0.45594000000E+02  0.51100000000E-03 0. -1.
    9900012    2    1    2    0    0  0.40531700649E+02  0.28884376962E+01 -0.14152076363E+01  0.50528872581E+02  0.30000038698E+02 0.  0.
        -12    1    1    2    0    0 -0.40531700649E+02 -0.28884376962E+01  0.14152076363E+01  0.40659127419E+02  0.00000000000E+00 0.  1.
         11    1    3    3    0    0  0.16062316189E+02 -0.86297751303E+01 -0.87765976038E+00  0.18254898167E+02  0.51100000000E-03 0. -1.
        -11    1    3    3    0    0  0.34043325923E+01 -0.16334455279E+00  0.63625481070E+01  0.72179069347E+01  0.51100000000E-03 0.  1.
         12    1    3    3    0    0  0.21065051868E+02  0.11681557379E+02 -0.69000959830E+01  0.25056067480E+02  0.00000000000E+00 0. -1.
</event>
<event>
 7    1  0.5138511E-013  0.5052885E+02  0.7816164E-02  0.1300439E+00
        -11   -1    0    0    0    0  0.00000000000E+00  0.00000000000E+00  0.45593999997E+02  0.45594000000E+02  0.51100000000E-03 0.  1.
         11   -1    0    0    0    0 -0.00000000000E+00 -0.00000000000E+00 -0.45593999997E+02  0.45594000000E+02  0.51100000000E-03 0. -1.
    9900012    2    1    2    0    0  0.12258368028E+02 -0.79990409731E+01 -0.37933023929E+02  0.50528849153E+02  0.29999967486E+02 0.  0.
        -12    1    1    2    0    0 -0.12258368028E+02  0.79990409731E+01  0.37933023929E+02  0.40659150847E+02  0.00000000000E+00 0.  1.
         11    1    3    3    0    0  0.17622725442E+01  0.16024434429E+01 -0.55637004227E+01  0.60521229467E+01  0.51100000000E-03 0. -1.
        -11    1    3    3    0    0  0.16644926633E+02 -0.11144633882E+02 -0.12478777955E+02  0.23600346322E+02  0.51100000000E-03 0.  1.
        -12    1    3    3    0    0 -0.61488311493E+01  0.15431494658E+01 -0.19890545551E+02  0.20876379885E+02  0.00000000000E+00 0.  1.
</event>
<event>
 7    1  0.5138511E-013  0.5052886E+02  0.7816164E-02  0.1300439E+00
        -11   -1    0    0    0    0  0.00000000000E+00  0.00000000000E+00  0.45593999997E+02  0.45594000000E+02  0.51100000000E-03 0.  1.
         11   -1    0    0    0    0 -0.00000000000E+00 -0.00000000000E+00 -0.45593999997E+02  0.45594000000E+02  0.51100000000E-03 0. -1.
    9900012    2    1    2    0    0 -0.38040690969E+02  0.86450300425E+01 -0.11460151290E+02  0.50528858575E+02  0.29999996126E+02 0.  0.
        -12    1    1    2    0    0  0.38040690969E+02 -0.86450300425E+01  0.11460151290E+02  0.40659141425E+02  0.00000000000E+00 0.  1.
         11    1    3    3    0    0 -0.83517832724E+01  0.24063903724E+01  0.83930632468E+01  0.12082487715E+02  0.51100000000E-03 0. -1.
        -11    1    3    3    0    0  0.94609412784E+00  0.10341749338E+01 -0.24717961315E+01  0.28415468093E+01  0.51100000000E-03 0.  1.
         12    1    3    3    0    0 -0.30635001824E+02  0.52044647363E+01 -0.17381418405E+02  0.35604824051E+02  0.00000000000E+00 0. -1.
</event>
<event>
 7    1  0.5138511E-013  0.5052886E+02  0.7816164E-02  0.1300439E+00
        -11   -1    0    0    0    0  0.00000000000E+00  0.00000000000E+00  0.45593999997E+02  0.45594000000E+02  0.51100000000E-03 0.  1.
         11   -1    0    0    0    0 -0.00000000000E+00 -0.00000000000E+00 -0.45593999997E+02  0.45594000000E+02  0.51100000000E-03 0. -1.
    9900012    2    1    2    0    0 -0.26438243088E+02  0.26906736736E+02 -0.15172758273E+02  0.50528858679E+02  0.29999996441E+02 0.  0.
        -12    1    1    2    0    0  0.26438243088E+02 -0.26906736736E+02  0.15172758273E+02  0.40659141321E+02  0.00000000000E+00 0.  1.
         11    1    3    3    0    0  0.19517997247E+00  0.17178338121E+02 -0.70997772243E+00  0.17194111330E+02  0.51100000000E-03 0. -1.
        -11    1    3    3    0    0 -0.14998072332E+02  0.10194441588E+02 -0.66669571894E+01  0.19321416392E+02  0.51100000000E-03 0.  1.
        -12    1    3    3    0    0 -0.11635350728E+02 -0.46604297290E+00 -0.77958233614E+01  0.14013330957E+02  0.00000000000E+00 0.  1.
</event>
<event>
 7    1  0.5138511E-013  0.5052887E+02  0.7816164E-02  0.1300439E+00
        -11   -1    0    0    0    0  0.00000000000E+00  0.00000000000E+00  0.45593999997E+02  0.45594000000E+02  0.51100000000E-03 0.  1.
         11   -1    0    0    0    0 -0.00000000000E+00 -0.00000000000E+00 -0.45593999997E+02  0.45594000000E+02  0.51100000000E-03 0. -1.
    9900012    2    1    2    0    0 -0.29936794547E+02 -0.27191512675E+02 -0.41922573288E+01  0.50528867559E+02  0.30000023432E+02 0.  0.
        -12    1    1    2    0    0  0.29936794547E+02  0.27191512675E+02  0.41922573288E+01  0.40659132441E+02  0.00000000000E+00 0.  1.
         11    1    3    3    0    0 -0.11929497582E+02 -0.18448564154E+01  0.12099308342E+01  0.12131790496E+02  0.51100000000E-03 0. -1.
        -11    1    3    3    0    0  0.32340413652E+00 -0.30687706133E+01  0.64946583488E+01  0.71904471795E+01  0.51100000000E-03 0.  1.
         12    1    3    3    0    0 -0.18330701101E+02 -0.22277885647E+02 -0.11896846512E+02  0.31206629883E+02  0.00000000000E+00 0. -1.
</event>
<event>
 7    1  0.5138511E-013  0.5052883E+02  0.7816164E-02  0.1300439E+00
        -11   -1    0    0    0    0  0.00000000000E+00  0.00000000000E+00  0.45593999997E+02  0.45594000000E+02  0.51100000000E-03 0.  1.
         11   -1    0    0    0    0 -0.00000000000E+00 -0.00000000000E+00 -0.45593999997E+02  0.45594000000E+02  0.51100000000E-03 0. -1.
    9900012    2    1    2    0    0 -0.36332813149E+02  0.17232025433E+02  0.60126286578E+01  0.50528834794E+02  0.29999923840E+02 0.  0.
        -12    1    1    2    0    0  0.36332813149E+02 -0.17232025433E+02 -0.60126286578E+01  0.40659165206E+02  0.00000000000E+00 0.  1.
         11    1    3    3    0    0  0.55669426112E+00  0.42778116342E+01 -0.22322702289E+01  0.48572226132E+01  0.51100000000E-03 0. -1.
        -11    1    3    3    0    0 -0.23872676541E+02  0.10661100200E+01  0.13279346319E+02  0.27338293924E+02  0.51100000000E-03 0.  1.
         12    1    3    3    0    0 -0.13016830869E+02  0.11888103779E+02 -0.50344474320E+01  0.18333318256E+02  0.00000000000E+00 0. -1.
</event>
<event>
 7    1  0.5138511E-013  0.5052887E+02  0.7816164E-02  0.1300439E+00
        -11   -1    0    0    0    0  0.00000000000E+00  0.00000000000E+00  0.45593999997E+02  0.45594000000E+02  0.51100000000E-03 0. -1.
         11   -1    0    0    0    0 -0.00000000000E+00 -0.00000000000E+00 -0.45593999997E+02  0.45594000000E+02  0.51100000000E-03 0.  1.
    9900012    2    1    2    0    0  0.70260645529E+01  0.36504424797E+02  0.16468945448E+02  0.50528870926E+02  0.30000033667E+02 0.  0.
        -12    1    1    2    0    0 -0.70260645529E+01 -0.36504424797E+02 -0.16468945448E+02  0.40659129074E+02  0.00000000000E+00 0.  1.
         11    1    3    3    0    0  0.30761860640E+01  0.41101708199E+01  0.80729437204E+01  0.95670708915E+01  0.51100000000E-03 0. -1.
        -11    1    3    3    0    0 -0.16851372785E+01 -0.99371086254E+00 -0.43598435306E+01  0.47786383832E+01  0.51100000000E-03 0.  1.
         12    1    3    3    0    0  0.56350157674E+01  0.33387964840E+02  0.12755845259E+02  0.36183161651E+02  0.00000000000E+00 0. -1.
</event>
<event>
 7    1  0.5138511E-013  0.5052887E+02  0.7816164E-02  0.1300439E+00
        -11   -1    0    0    0    0  0.00000000000E+00  0.00000000000E+00  0.45593999997E+02  0.45594000000E+02  0.51100000000E-03 0. -1.
         11   -1    0    0    0    0 -0.00000000000E+00 -0.00000000000E+00 -0.45593999997E+02  0.45594000000E+02  0.51100000000E-03 0.  1.
    9900012    2    1    2    0    0  0.36937331128E+02  0.15185287576E+02  0.76292588270E+01  0.50528868432E+02  0.30000026085E+02 0.  0.
        -12    1    1    2    0    0 -0.36937331128E+02 -0.15185287576E+02 -0.76292588270E+01  0.40659131568E+02  0.00000000000E+00 0.  1.
         11    1    3    3    0    0  0.25440014024E+02  0.22990944561E+01  0.11029841532E+02  0.27823327503E+02  0.51100000000E-03 0. -1.
        -11    1    3    3    0    0  0.13684269827E+02  0.72717177845E+01  0.54041735087E+00  0.15505778645E+02  0.51100000000E-03 0.  1.
         12    1    3    3    0    0 -0.21869527225E+01  0.56144753354E+01 -0.39410000556E+01  0.71997622836E+01  0.00000000000E+00 0. -1.
</event>
<event>
 7    1  0.5138511E-013  0.5052887E+02  0.7816164E-02  0.1300439E+00
        -11   -1    0    0    0    0  0.00000000000E+00  0.00000000000E+00  0.45593999997E+02  0.45594000000E+02  0.51100000000E-03 0.  1.
         11   -1    0    0    0    0 -0.00000000000E+00 -0.00000000000E+00 -0.45593999997E+02  0.45594000000E+02  0.51100000000E-03 0. -1.
    9900012    2    1    2    0    0 -0.12684846924E+02 -0.44484941428E+01 -0.38372779215E+02  0.50528872780E+02  0.30000039303E+02 0.  0.
        -12    1    1    2    0    0  0.12684846924E+02  0.44484941428E+01  0.38372779215E+02  0.40659127220E+02  0.00000000000E+00 0.  1.
         11    1    3    3    0    0  0.21418303614E+01 -0.12984138224E+01 -0.15128138483E+02  0.15334076104E+02  0.51100000000E-03 0. -1.
        -11    1    3    3    0    0 -0.95428010620E+01 -0.10304208579E+02 -0.22159200575E+02  0.26234937335E+02  0.51100000000E-03 0.  1.
         12    1    3    3    0    0 -0.52838762229E+01  0.71541282586E+01 -0.10854401562E+01  0.89598593411E+01  0.00000000000E+00 0. -1.
</event>
<event>
 7    1  0.5138511E-013  0.5052886E+02  0.7816164E-02  0.1300439E+00
        -11   -1    0    0    0    0  0.00000000000E+00  0.00000000000E+00  0.45593999997E+02  0.45594000000E+02  0.51100000000E-03 0. -1.
         11   -1    0    0    0    0 -0.00000000000E+00 -0.00000000000E+00 -0.45593999997E+02  0.45594000000E+02  0.51100000000E-03 0.  1.
    9900012    2    1    2    0    0 -0.79168677066E+01 -0.38374044480E+02  0.10859170000E+02  0.50528860103E+02  0.30000000769E+02 0.  0.
        -12    1    1    2    0    0  0.79168677066E+01  0.38374044480E+02 -0.10859170000E+02  0.40659139897E+02  0.00000000000E+00 0.  1.
         11    1    3    3    0    0  0.42292002392E+01 -0.27931289096E+02 -0.11189926447E+01  0.28271809104E+02  0.51100000000E-03 0. -1.
        -11    1    3    3    0    0  0.13196274724E+01 -0.13415313254E+01  0.33834854492E+01  0.38715755202E+01  0.51100000000E-03 0.  1.
         12    1    3    3    0    0 -0.13465695418E+02 -0.91012240588E+01  0.85946771959E+01  0.18385475478E+02  0.00000000000E+00 0. -1.
</event>
<event>
 7    1  0.5138511E-013  0.5052885E+02  0.7816164E-02  0.1300439E+00
        -11   -1    0    0    0    0  0.00000000000E+00  0.00000000000E+00  0.45593999997E+02  0.45594000000E+02  0.51100000000E-03 0.  1.
         11   -1    0    0    0    0 -0.00000000000E+00 -0.00000000000E+00 -0.45593999997E+02  0.45594000000E+02  0.51100000000E-03 0. -1.
    9900012    2    1    2    0    0 -0.28787213816E+02 -0.75697756367E+01 -0.27697678284E+02  0.50528848942E+02  0.29999966844E+02 0.  0.
        -12    1    1    2    0    0  0.28787213816E+02  0.75697756367E+01  0.27697678284E+02  0.40659151058E+02  0.00000000000E+00 0.  1.
         11    1    3    3    0    0 -0.11896079722E+02  0.77516809532E+01 -0.72839517290E+01  0.15958108390E+02  0.51100000000E-03 0. -1.
        -11    1    3    3    0    0  0.12839195462E+01  0.12103990985E-02  0.16816922976E+01  0.21157835690E+01  0.51100000000E-03 0.  1.
         12    1    3    3    0    0 -0.18175053640E+02 -0.15322666989E+02 -0.22095418852E+02  0.32454956983E+02  0.00000000000E+00 0. -1.
</event>
<event>
 7    1  0.5138511E-013  0.5052886E+02  0.7816164E-02  0.1300439E+00
        -11   -1    0    0    0    0  0.00000000000E+00  0.00000000000E+00  0.45593999997E+02  0.45594000000E+02  0.51100000000E-03 0.  1.
         11   -1    0    0    0    0 -0.00000000000E+00 -0.00000000000E+00 -0.45593999997E+02  0.45594000000E+02  0.51100000000E-03 0. -1.
    9900012    2    1    2    0    0 -0.11807057049E+02 -0.11324617778E+02 -0.37222471272E+02  0.50528856729E+02  0.29999990514E+02 0.  0.
        -12    1    1    2    0    0  0.11807057049E+02  0.11324617778E+02  0.37222471272E+02  0.40659143271E+02  0.00000000000E+00 0.  1.
         11    1    3    3    0    0 -0.15643774051E+01 -0.17615396417E+01 -0.57029021982E+01  0.61703640345E+01  0.51100000000E-03 0. -1.
        -11    1    3    3    0    0 -0.11722352652E+02 -0.29052988793E+01 -0.34766803580E+02  0.36804686450E+02  0.51100000000E-03 0.  1.
        -12    1    3    3    0    0  0.14796730081E+01 -0.66577792565E+01  0.32472345064E+01  0.75538062445E+01  0.00000000000E+00 0.  1.
</event>
<event>
 7    1  0.5138511E-013  0.5052886E+02  0.7816164E-02  0.1300439E+00
        -11   -1    0    0    0    0  0.00000000000E+00  0.00000000000E+00  0.45593999997E+02  0.45594000000E+02  0.51100000000E-03 0.  1.
         11   -1    0    0    0    0 -0.00000000000E+00 -0.00000000000E+00 -0.45593999997E+02  0.45594000000E+02  0.51100000000E-03 0. -1.
    9900012    2    1    2    0    0 -0.21003423362E+02 -0.34000465059E+02 -0.74826590131E+01  0.50528860769E+02  0.30000002793E+02 0.  0.
        -12    1    1    2    0    0  0.21003423362E+02  0.34000465059E+02  0.74826590131E+01  0.40659139231E+02  0.00000000000E+00 0.  1.
         11    1    3    3    0    0 -0.90306763312E+01 -0.82767107912E+01  0.15445822952E+01  0.12346772503E+02  0.51100000000E-03 0. -1.
        -11    1    3    3    0    0 -0.13741723553E+02 -0.29201567628E+02 -0.10608285960E+02  0.33972080439E+02  0.51100000000E-03 0.  1.
        -12    1    3    3    0    0  0.17689765220E+01  0.34778133605E+01  0.15810446512E+01  0.42100078260E+01  0.00000000000E+00 0.  1.
</event>
<event>
 7    1  0.5138511E-013  0.5052885E+02  0.7816164E-02  0.1300439E+00
        -11   -1    0    0    0    0  0.00000000000E+00  0.00000000000E+00  0.45593999997E+02  0.45594000000E+02  0.51100000000E-03 0.  1.
         11   -1    0    0    0    0 -0.00000000000E+00 -0.00000000000E+00 -0.45593999997E+02  0.45594000000E+02  0.51100000000E-03 0. -1.
    9900012    2    1    2    0    0  0.25686042637E+02  0.16671771889E+02 -0.26747811039E+02  0.50528853923E+02  0.29999981985E+02 0.  0.
        -12    1    1    2    0    0 -0.25686042637E+02 -0.16671771889E+02  0.26747811039E+02  0.40659146077E+02  0.00000000000E+00 0.  1.
         11    1    3    3    0    0  0.16635417161E+02  0.12250567898E+02 -0.60803082467E+01  0.21535637129E+02  0.51100000000E-03 0. -1.
        -11    1    3    3    0    0 -0.10532231151E+01 -0.59200776988E+00  0.27484660524E+01  0.30023021221E+01  0.51100000000E-03 0.  1.
        -12    1    3    3    0    0  0.10103848592E+02  0.50132117609E+01 -0.23415968845E+02  0.25990914672E+02  0.00000000000E+00 0.  1.
</event>
<event>
 7    1  0.5138511E-013  0.5052886E+02  0.7816164E-02  0.1300439E+00
        -11   -1    0    0    0    0  0.00000000000E+00  0.00000000000E+00  0.45593999997E+02  0.45594000000E+02  0.51100000000E-03 0. -1.
         11   -1    0    0    0    0 -0.00000000000E+00 -0.00000000000E+00 -0.45593999997E+02  0.45594000000E+02  0.51100000000E-03 0.  1.
    9900012    2    1    2    0    0 -0.48195041348E+01  0.20591551617E+02  0.34726445050E+02  0.50528860758E+02  0.30000002761E+02 0.  0.
        -12    1    1    2    0    0  0.48195041348E+01 -0.20591551617E+02 -0.34726445050E+02  0.40659139242E+02  0.00000000000E+00 0.  1.
         11    1    3    3    0    0 -0.11692380683E+01  0.17970708000E+01  0.10262605850E+02  0.10484162352E+02  0.51100000000E-03 0. -1.
        -11    1    3    3    0    0 -0.27271938916E+01 -0.43359112600E+01 -0.14239769204E+01  0.53165236300E+01  0.51100000000E-03 0.  1.
        -12    1    3    3    0    0 -0.92307217489E+00  0.23130392077E+02  0.25887816120E+02  0.34728174777E+02  0.00000000000E+00 0.  1.
</event>
<event>
 7    1  0.5138511E-013  0.5052886E+02  0.7816164E-02  0.1300439E+00
        -11   -1    0    0    0    0  0.00000000000E+00  0.00000000000E+00  0.45593999997E+02  0.45594000000E+02  0.51100000000E-03 0.  1.
         11   -1    0    0    0    0 -0.00000000000E+00 -0.00000000000E+00 -0.45593999997E+02  0.45594000000E+02  0.51100000000E-03 0. -1.
    9900012    2    1    2    0    0 -0.35561320865E+02 -0.71673431365E+01 -0.18362663471E+02  0.50528858850E+02  0.29999996959E+02 0.  0.
        -12    1    1    2    0    0  0.35561320865E+02  0.71673431365E+01  0.18362663471E+02  0.40659141150E+02  0.00000000000E+00 0.  1.
         11    1    3    3    0    0 -0.24435485953E+02 -0.79894444905E+01 -0.18571358171E+02  0.31714658150E+02  0.51100000000E-03 0. -1.
        -11    1    3    3    0    0 -0.10857094545E+01 -0.44943697974E+00 -0.65434803746E+01  0.66481496894E+01  0.51100000000E-03 0.  1.
         12    1    3    3    0    0 -0.10040125458E+02  0.12715383338E+01  0.67521750741E+01  0.12166051010E+02  0.00000000000E+00 0. -1.
</event>
<event>
 7    1  0.5138511E-013  0.5052886E+02  0.7816164E-02  0.1300439E+00
        -11   -1    0    0    0    0  0.00000000000E+00  0.00000000000E+00  0.45593999997E+02  0.45594000000E+02  0.51100000000E-03 0. -1.
         11   -1    0    0    0    0 -0.00000000000E+00 -0.00000000000E+00 -0.45593999997E+02  0.45594000000E+02  0.51100000000E-03 0.  1.
    9900012    2    1    2    0    0  0.35239791092E+02 -0.96408832692E+01  0.17843094033E+02  0.50528861899E+02  0.30000006229E+02 0.  0.
        -12    1    1    2    0    0 -0.35239791092E+02  0.96408832692E+01 -0.17843094033E+02  0.40659138101E+02  0.00000000000E+00 0.  1.
         11    1    3    3    0    0  0.20200502763E+02 -0.10917130962E+01  0.62155384104E+01  0.21163295286E+02  0.51100000000E-03 0. -1.
        -11    1    3    3    0    0  0.84992979978E+01  0.21359015675E+01 -0.37489513569E+01  0.95317773001E+01  0.51100000000E-03 0.  1.
        -12    1    3    3    0    0  0.65399903312E+01 -0.10685071741E+02  0.15376506980E+02  0.19833789313E+02  0.00000000000E+00 0.  1.
</event>
<event>
 7    1  0.5274213E-013  0.5052887E+02  0.7816164E-02  0.1300439E+00
        -11   -1    0    0    0    0  0.00000000000E+00  0.00000000000E+00  0.45593999997E+02  0.45594000000E+02  0.51100000000E-03 0.  1.
         11   -1    0    0    0    0 -0.00000000000E+00 -0.00000000000E+00 -0.45593999997E+02  0.45594000000E+02  0.51100000000E-03 0. -1.
    9900012    2    1    2    0    0 -0.12521240631E+02  0.37576312994E+02 -0.91871780022E+01  0.50528868126E+02  0.30000025155E+02 0.  0.
        -12    1    1    2    0    0  0.12521240631E+02 -0.37576312994E+02  0.91871780022E+01  0.40659131874E+02  0.00000000000E+00 0.  1.
         11    1    3    3    0    0  0.14119016927E+01  0.16026697953E+02 -0.12589019401E+02  0.20428703420E+02  0.51100000000E-03 0. -1.
        -11    1    3    3    0    0  0.11808562232E+01  0.68277567936E+01  0.55697097615E+01  0.88901266211E+01  0.51100000000E-03 0.  1.
        -12    1    3    3    0    0 -0.15113998547E+02  0.14721858247E+02 -0.21678683624E+01  0.21210038084E+02  0.00000000000E+00 0.  1.
</event>
<event>
 7    1  0.5138511E-013  0.5052886E+02  0.7816164E-02  0.1300439E+00
        -11   -1    0    0    0    0  0.00000000000E+00  0.00000000000E+00  0.45593999997E+02  0.45594000000E+02  0.51100000000E-03 0.  1.
         11   -1    0    0    0    0 -0.00000000000E+00 -0.00000000000E+00 -0.45593999997E+02  0.45594000000E+02  0.51100000000E-03 0. -1.
    9900012    2    1    2    0    0  0.11819368208E+02 -0.15942650953E+02 -0.35486612838E+02  0.50528864803E+02  0.30000015054E+02 0.  0.
        -12    1    1    2    0    0 -0.11819368208E+02  0.15942650953E+02  0.35486612838E+02  0.40659135197E+02  0.00000000000E+00 0.  1.
         11    1    3    3    0    0 -0.41612438012E+01 -0.25371199739E+01 -0.11397759751E+02  0.12396041922E+02  0.51100000000E-03 0. -1.
        -11    1    3    3    0    0  0.50289372027E+01  0.34219329554E+01 -0.14818831127E+02  0.16018663826E+02  0.51100000000E-03 0.  1.
        -12    1    3    3    0    0  0.10951674806E+02 -0.16827463934E+02 -0.92700219601E+01  0.22114159054E+02  0.00000000000E+00 0.  1.
</event>
<event>
 7    1  0.5138511E-013  0.5052884E+02  0.7816164E-02  0.1300439E+00
        -11   -1    0    0    0    0  0.00000000000E+00  0.00000000000E+00  0.45593999997E+02  0.45594000000E+02  0.51100000000E-03 0. -1.
         11   -1    0    0    0    0 -0.00000000000E+00 -0.00000000000E+00 -0.45593999997E+02  0.45594000000E+02  0.51100000000E-03 0.  1.
    9900012    2    1    2    0    0  0.26698124685E+02 -0.30188940025E+02 -0.53856526348E+01  0.50528840935E+02  0.29999942507E+02 0.  0.
        -12    1    1    2    0    0 -0.26698124685E+02  0.30188940025E+02  0.53856526348E+01  0.40659159065E+02  0.00000000000E+00 0.  1.
         11    1    3    3    0    0  0.18081563054E+02 -0.10867369568E+02  0.65551981325E+00  0.21106215916E+02  0.51100000000E-03 0. -1.
        -11    1    3    3    0    0  0.12717979392E+02 -0.18573198192E+02 -0.90706284351E+01  0.24269054192E+02  0.51100000000E-03 0.  1.
        -12    1    3    3    0    0 -0.41014177610E+01 -0.74837226533E+00  0.30294559871E+01  0.51535708277E+01  0.00000000000E+00 0.  1.
</event>
<event>
 7    1  0.5138511E-013  0.5052887E+02  0.7816164E-02  0.1300439E+00
        -11   -1    0    0    0    0  0.00000000000E+00  0.00000000000E+00  0.45593999997E+02  0.45594000000E+02  0.51100000000E-03 0.  1.
         11   -1    0    0    0    0 -0.00000000000E+00 -0.00000000000E+00 -0.45593999997E+02  0.45594000000E+02  0.51100000000E-03 0. -1.
    9900012    2    1    2    0    0  0.23711683668E+01 -0.88012333566E+01 -0.39624241804E+02  0.50528872039E+02  0.30000037051E+02 0.  0.
        -12    1    1    2    0    0 -0.23711683668E+01  0.88012333566E+01  0.39624241804E+02  0.40659127961E+02  0.00000000000E+00 0.  1.
         11    1    3    3    0    0 -0.12909961257E+02 -0.65360168372E+01 -0.22879341305E+02  0.27071218565E+02  0.51100000000E-03 0. -1.
        -11    1    3    3    0    0  0.18816012964E+01 -0.22437977851E+01 -0.20732830157E+01  0.35879736152E+01  0.51100000000E-03 0.  1.
        -12    1    3    3    0    0  0.13399528327E+02 -0.21418734219E-01 -0.14671617483E+02  0.19869679859E+02  0.00000000000E+00 0.  1.
</event>
<event>
 7    1  0.5138511E-013  0.5052886E+02  0.7816164E-02  0.1300439E+00
        -11   -1    0    0    0    0  0.00000000000E+00  0.00000000000E+00  0.45593999997E+02  0.45594000000E+02  0.51100000000E-03 0.  1.
         11   -1    0    0    0    0 -0.00000000000E+00 -0.00000000000E+00 -0.45593999997E+02  0.45594000000E+02  0.51100000000E-03 0. -1.
    9900012    2    1    2    0    0 -0.27383615194E+02 -0.29831306169E+02 -0.36601243710E+01  0.50528859339E+02  0.29999998448E+02 0.  0.
        -12    1    1    2    0    0  0.27383615194E+02  0.29831306169E+02  0.36601243710E+01  0.40659140661E+02  0.00000000000E+00 0.  1.
         11    1    3    3    0    0 -0.13040124503E+02 -0.16640247797E+02 -0.14571791154E+02  0.25676444292E+02  0.51100000000E-03 0. -1.
        -11    1    3    3    0    0  0.60795814829E+00 -0.31349293629E+00  0.38252058638E+01  0.38858835665E+01  0.51100000000E-03 0.  1.
        -12    1    3    3    0    0 -0.14951448840E+02 -0.12877565436E+02  0.70864609196E+01  0.20966531481E+02  0.00000000000E+00 0.  1.
</event>
<event>
 7    1  0.5138511E-013  0.5052886E+02  0.7816164E-02  0.1300439E+00
        -11   -1    0    0    0    0  0.00000000000E+00  0.00000000000E+00  0.45593999997E+02  0.45594000000E+02  0.51100000000E-03 0. -1.
         11   -1    0    0    0    0 -0.00000000000E+00 -0.00000000000E+00 -0.45593999997E+02  0.45594000000E+02  0.51100000000E-03 0.  1.
    9900012    2    1    2    0    0 -0.73939580311E+01 -0.88574638758E+00  0.39971368548E+02  0.50528862458E+02  0.30000007928E+02 0.  0.
        -12    1    1    2    0    0  0.73939580311E+01  0.88574638758E+00 -0.39971368548E+02  0.40659137542E+02  0.00000000000E+00 0.  1.
         11    1    3    3    0    0 -0.29519172649E+01 -0.31533918263E+01  0.26695434770E+02  0.27042631776E+02  0.51100000000E-03 0. -1.
        -11    1    3    3    0    0  0.51705707387E+01  0.12190080394E+01  0.12738326463E+02  0.13801657281E+02  0.51100000000E-03 0.  1.
         12    1    3    3    0    0 -0.96126115049E+01  0.10486373993E+01  0.53760731494E+00  0.96845734012E+01  0.00000000000E+00 0. -1.
</event>
<event>
 7    1  0.5138511E-013  0.5052886E+02  0.7816164E-02  0.1300439E+00
        -11   -1    0    0    0    0  0.00000000000E+00  0.00000000000E+00  0.45593999997E+02  0.45594000000E+02  0.51100000000E-03 0.  1.
         11   -1    0    0    0    0 -0.00000000000E+00 -0.00000000000E+00 -0.45593999997E+02  0.45594000000E+02  0.51100000000E-03 0. -1.
    9900012    2    1    2    0    0  0.43924435533E+01  0.32569411238E+02 -0.23939621195E+02  0.50528861154E+02  0.30000003964E+02 0.  0.
        -12    1    1    2    0    0 -0.43924435533E+01 -0.32569411238E+02  0.23939621195E+02  0.40659138846E+02  0.00000000000E+00 0.  1.
         11    1    3    3    0    0  0.53099667496E+01  0.48173147199E+01 -0.34943766249E+01  0.79757718279E+01  0.51100000000E-03 0.  1.
        -11    1    3    3    0    0  0.94569427561E+01  0.14438165564E+02 -0.17225517681E+01  0.17345361801E+02  0.51100000000E-03 0. -1.
         12    1    3    3    0    0 -0.10374465952E+02  0.13313930954E+02 -0.18722692802E+02  0.25207727525E+02  0.00000000000E+00 0. -1.
</event>
<event>
 7    1  0.5138511E-013  0.5052886E+02  0.7816164E-02  0.1300439E+00
        -11   -1    0    0    0    0  0.00000000000E+00  0.00000000000E+00  0.45593999997E+02  0.45594000000E+02  0.51100000000E-03 0.  1.
         11   -1    0    0    0    0 -0.00000000000E+00 -0.00000000000E+00 -0.45593999997E+02  0.45594000000E+02  0.51100000000E-03 0. -1.
    9900012    2    1    2    0    0 -0.91811481767E+01  0.32601398101E+02 -0.22494915792E+02  0.50528857406E+02  0.29999992571E+02 0.  0.
        -12    1    1    2    0    0  0.91811481767E+01 -0.32601398101E+02  0.22494915792E+02  0.40659142594E+02  0.00000000000E+00 0.  1.
         11    1    3    3    0    0 -0.11227443055E+02  0.20314076723E+02 -0.59256097126E+01  0.23954749871E+02  0.51100000000E-03 0. -1.
        -11    1    3    3    0    0  0.33294493680E+01  0.14288841958E+02 -0.18428769166E+02  0.23555801214E+02  0.51100000000E-03 0.  1.
        -12    1    3    3    0    0 -0.12831544896E+01 -0.20015205796E+01  0.18594630867E+01  0.30183063207E+01  0.00000000000E+00 0.  1.
</event>
<event>
 7    1  0.5138511E-013  0.5052886E+02  0.7816164E-02  0.1300439E+00
        -11   -1    0    0    0    0  0.00000000000E+00  0.00000000000E+00  0.45593999997E+02  0.45594000000E+02  0.51100000000E-03 0.  1.
         11   -1    0    0    0    0 -0.00000000000E+00 -0.00000000000E+00 -0.45593999997E+02  0.45594000000E+02  0.51100000000E-03 0. -1.
    9900012    2    1    2    0    0 -0.29904343813E+02  0.19971383128E+02  0.18974714117E+02  0.50528859591E+02  0.29999999214E+02 0.  0.
        -12    1    1    2    0    0  0.29904343813E+02 -0.19971383128E+02 -0.18974714117E+02  0.40659140409E+02  0.00000000000E+00 0.  1.
         11    1    3    3    0    0 -0.13559038093E+02  0.13423217296E+02 -0.24559603327E+01  0.19236996075E+02  0.51100000000E-03 0. -1.
        -11    1    3    3    0    0 -0.32732534355E+01 -0.27250044829E+01 -0.32336201241E+00  0.42713464782E+01  0.51100000000E-03 0.  1.
         12    1    3    3    0    0 -0.13072052284E+02  0.92731703154E+01  0.21754036462E+02  0.27020517038E+02  0.00000000000E+00 0. -1.
</event>
<event>
 7    1  0.5138511E-013  0.5052886E+02  0.7816164E-02  0.1300439E+00
        -11   -1    0    0    0    0  0.00000000000E+00  0.00000000000E+00  0.45593999997E+02  0.45594000000E+02  0.51100000000E-03 0. -1.
         11   -1    0    0    0    0 -0.00000000000E+00 -0.00000000000E+00 -0.45593999997E+02  0.45594000000E+02  0.51100000000E-03 0.  1.
    9900012    2    1    2    0    0 -0.21492466875E+02 -0.68647703236E+01  0.33824761563E+02  0.50528859591E+02  0.29999999213E+02 0.  0.
        -12    1    1    2    0    0  0.21492466875E+02  0.68647703236E+01 -0.33824761563E+02  0.40659140409E+02  0.00000000000E+00 0.  1.
         11    1    3    3    0    0 -0.88162092749E+01 -0.12506564127E+02  0.10227849858E+02  0.18405124428E+02  0.51100000000E-03 0. -1.
        -11    1    3    3    0    0 -0.19629202034E+01  0.99776107398E+00  0.19687237814E+02  0.19809995353E+02  0.51100000000E-03 0.  1.
        -12    1    3    3    0    0 -0.10713337397E+02  0.46440327291E+01  0.39096738917E+01  0.12313739810E+02  0.00000000000E+00 0.  1.
</event>
<event>
 7    1  0.5138511E-013  0.5052887E+02  0.7816164E-02  0.1300439E+00
        -11   -1    0    0    0    0  0.00000000000E+00  0.00000000000E+00  0.45593999997E+02  0.45594000000E+02  0.51100000000E-03 0. -1.
         11   -1    0    0    0    0 -0.00000000000E+00 -0.00000000000E+00 -0.45593999997E+02  0.45594000000E+02  0.51100000000E-03 0.  1.
    9900012    2    1    2    0    0 -0.40606855981E+02 -0.18159443860E+00 -0.20530961253E+01  0.50528869009E+02  0.30000027840E+02 0.  0.
        -12    1    1    2    0    0  0.40606855981E+02  0.18159443860E+00  0.20530961253E+01  0.40659130991E+02  0.00000000000E+00 0.  1.
         11    1    3    3    0    0 -0.98009799758E+00 -0.42226219128E+00 -0.69508004457E+01  0.70322488963E+01  0.51100000000E-03 0. -1.
        -11    1    3    3    0    0 -0.21134267011E+02 -0.44773488673E+01 -0.47386436220E+01  0.22116931040E+02  0.51100000000E-03 0.  1.
         12    1    3    3    0    0 -0.18492490972E+02  0.47180166200E+01  0.96363479425E+01  0.21379689073E+02  0.00000000000E+00 0. -1.
</event>
<event>
 7    1  0.5138511E-013  0.5052886E+02  0.7816164E-02  0.1300439E+00
        -11   -1    0    0    0    0  0.00000000000E+00  0.00000000000E+00  0.45593999997E+02  0.45594000000E+02  0.51100000000E-03 0.  1.
         11   -1    0    0    0    0 -0.00000000000E+00 -0.00000000000E+00 -0.45593999997E+02  0.45594000000E+02  0.51100000000E-03 0. -1.
    9900012    2    1    2    0    0 -0.21730526124E+02 -0.19827064354E+02 -0.28068435347E+02  0.50528864381E+02  0.30000013771E+02 0.  0.
        -12    1    1    2    0    0  0.21730526124E+02  0.19827064354E+02  0.28068435347E+02  0.40659135619E+02  0.00000000000E+00 0.  1.
         11    1    3    3    0    0 -0.60134700107E+01 -0.33955786551E+00 -0.11414141109E+02  0.12905802518E+02  0.51100000000E-03 0. -1.
        -11    1    3    3    0    0  0.34172168200E+01  0.86806773693E+00  0.19781245311E+01  0.40427576371E+01  0.51100000000E-03 0.  1.
        -12    1    3    3    0    0 -0.19134272933E+02 -0.20355574225E+02 -0.18632418770E+02  0.33580304226E+02  0.00000000000E+00 0.  1.
</event>
<event>
 7    1  0.5138511E-013  0.5052886E+02  0.7816164E-02  0.1300439E+00
        -11   -1    0    0    0    0  0.00000000000E+00  0.00000000000E+00  0.45593999997E+02  0.45594000000E+02  0.51100000000E-03 0.  1.
         11   -1    0    0    0    0 -0.00000000000E+00 -0.00000000000E+00 -0.45593999997E+02  0.45594000000E+02  0.51100000000E-03 0. -1.
    9900012    2    1    2    0    0 -0.26643508020E+02 -0.45611875697E+01 -0.30372432803E+02  0.50528860486E+02  0.30000001932E+02 0.  0.
        -12    1    1    2    0    0  0.26643508020E+02  0.45611875697E+01  0.30372432803E+02  0.40659139514E+02  0.00000000000E+00 0.  1.
         11    1    3    3    0    0 -0.11404407253E+02 -0.71702326697E+01 -0.31206810927E-01  0.13471218039E+02  0.51100000000E-03 0. -1.
        -11    1    3    3    0    0 -0.12945771644E+02 -0.32403822496E+01 -0.13070979219E+02  0.18680031547E+02  0.51100000000E-03 0.  1.
        -12    1    3    3    0    0 -0.22933291230E+01  0.58494273495E+01 -0.17270246773E+02  0.18377610900E+02  0.00000000000E+00 0.  1.
</event>
<event>
 7    1  0.5138511E-013  0.5052886E+02  0.7816164E-02  0.1300439E+00
        -11   -1    0    0    0    0  0.00000000000E+00  0.00000000000E+00  0.45593999997E+02  0.45594000000E+02  0.51100000000E-03 0. -1.
         11   -1    0    0    0    0 -0.00000000000E+00 -0.00000000000E+00 -0.45593999997E+02  0.45594000000E+02  0.51100000000E-03 0.  1.
    9900012    2    1    2    0    0  0.34005601601E+02 -0.18457384635E+02  0.12494389931E+02  0.50528858745E+02  0.29999996641E+02 0.  0.
        -12    1    1    2    0    0 -0.34005601601E+02  0.18457384635E+02 -0.12494389931E+02  0.40659141255E+02  0.00000000000E+00 0.  1.
         11    1    3    3    0    0  0.28386356209E+02 -0.10040834774E+02  0.28539122752E+01  0.30244807775E+02  0.51100000000E-03 0. -1.
        -11    1    3    3    0    0  0.27235444250E+01  0.41215914876E+01  0.20883134492E+01  0.53634190540E+01  0.51100000000E-03 0.  1.
        -12    1    3    3    0    0  0.28957009673E+01 -0.12538141349E+02  0.75521642070E+01  0.14920631916E+02  0.00000000000E+00 0.  1.
</event>
<event>
 7    1  0.5138511E-013  0.5052885E+02  0.7816164E-02  0.1300439E+00
        -11   -1    0    0    0    0  0.00000000000E+00  0.00000000000E+00  0.45593999997E+02  0.45594000000E+02  0.51100000000E-03 0.  1.
         11   -1    0    0    0    0 -0.00000000000E+00 -0.00000000000E+00 -0.45593999997E+02  0.45594000000E+02  0.51100000000E-03 0. -1.
    9900012    2    1    2    0    0 -0.28476797561E+02 -0.19524499169E+02 -0.21471666604E+02  0.50528849321E+02  0.29999967997E+02 0.  0.
        -12    1    1    2    0    0  0.28476797561E+02  0.19524499169E+02  0.21471666604E+02  0.40659150679E+02  0.00000000000E+00 0.  1.
         11    1    3    3    0    0 -0.17140691159E+01  0.24729099996E+00 -0.11903564532E+02  0.12028883348E+02  0.51100000000E-03 0. -1.
        -11    1    3    3    0    0 -0.18180520963E+00 -0.28326320084E+01  0.33894154719E+01  0.44209721478E+01  0.51100000000E-03 0.  1.
         12    1    3    3    0    0 -0.26580923236E+02 -0.16939158161E+02 -0.12957517544E+02  0.34078993826E+02  0.00000000000E+00 0. -1.
</event>
<event>
 7    1  0.5138511E-013  0.5052886E+02  0.7816164E-02  0.1300439E+00
        -11   -1    0    0    0    0  0.00000000000E+00  0.00000000000E+00  0.45593999997E+02  0.45594000000E+02  0.51100000000E-03 0.  1.
         11   -1    0    0    0    0 -0.00000000000E+00 -0.00000000000E+00 -0.45593999997E+02  0.45594000000E+02  0.51100000000E-03 0. -1.
    9900012    2    1    2    0    0 -0.33087940817E+02  0.20584800960E+02 -0.11602585855E+02  0.50528857650E+02  0.29999993314E+02 0.  0.
        -12    1    1    2    0    0  0.33087940817E+02 -0.20584800960E+02  0.11602585855E+02  0.40659142350E+02  0.00000000000E+00 0.  1.
         11    1    3    3    0    0 -0.82273604209E+01 -0.36376736823E+01 -0.28965580693E+01  0.94505120615E+01  0.51100000000E-03 0. -1.
        -11    1    3    3    0    0 -0.22644339723E+01  0.98907722822E+01 -0.10057128808E+02  0.14286387845E+02  0.51100000000E-03 0.  1.
        -12    1    3    3    0    0 -0.22596146424E+02  0.14331702360E+02  0.13511010219E+01  0.26791957743E+02  0.00000000000E+00 0.  1.
</event>
<event>
 7    1  0.5138511E-013  0.5052886E+02  0.7816164E-02  0.1300439E+00
        -11   -1    0    0    0    0  0.00000000000E+00  0.00000000000E+00  0.45593999997E+02  0.45594000000E+02  0.51100000000E-03 0.  1.
         11   -1    0    0    0    0 -0.00000000000E+00 -0.00000000000E+00 -0.45593999997E+02  0.45594000000E+02  0.51100000000E-03 0. -1.
    9900012    2    1    2    0    0 -0.15528252886E+02 -0.24933915178E+02 -0.28112972783E+02  0.50528855857E+02  0.29999987862E+02 0.  0.
        -12    1    1    2    0    0  0.15528252886E+02  0.24933915178E+02  0.28112972783E+02  0.40659144143E+02  0.00000000000E+00 0.  1.
         11    1    3    3    0    0 -0.54650997399E+01 -0.40733760029E+01 -0.19299277825E+02  0.20467580025E+02  0.51100000000E-03 0. -1.
        -11    1    3    3    0    0 -0.41582026638E+01 -0.22557983241E+01 -0.94106689844E+01  0.10532804302E+02  0.51100000000E-03 0.  1.
        -12    1    3    3    0    0 -0.59049504824E+01 -0.18604740850E+02  0.59697402681E+00  0.19528471530E+02  0.00000000000E+00 0.  1.
</event>
<event>
 7    1  0.5138511E-013  0.5052885E+02  0.7816164E-02  0.1300439E+00
        -11   -1    0    0    0    0  0.00000000000E+00  0.00000000000E+00  0.45593999997E+02  0.45594000000E+02  0.51100000000E-03 0.  1.
         11   -1    0    0    0    0 -0.00000000000E+00 -0.00000000000E+00 -0.45593999997E+02  0.45594000000E+02  0.51100000000E-03 0. -1.
    9900012    2    1    2    0    0  0.28205384061E+02 -0.30459609222E+01 -0.29126354173E+02  0.50528854960E+02  0.29999985135E+02 0.  0.
        -12    1    1    2    0    0 -0.28205384061E+02  0.30459609222E+01  0.29126354173E+02  0.40659145040E+02  0.00000000000E+00 0.  1.
         11    1    3    3    0    0  0.27987395424E+02  0.25151194314E+01 -0.21399563590E+02  0.35320835926E+02  0.51100000000E-03 0. -1.
        -11    1    3    3    0    0 -0.16108435012E+01  0.29853552562E+01 -0.50197498639E+01  0.60584694229E+01  0.51100000000E-03 0.  1.
        -12    1    3    3    0    0  0.18288321382E+01 -0.85464356098E+01 -0.27070407189E+01  0.91495496106E+01  0.00000000000E+00 0.  1.
</event>
<event>
 7    1  0.5343066E-013  0.5052888E+02  0.7816164E-02  0.1300439E+00
        -11   -1    0    0    0    0  0.00000000000E+00  0.00000000000E+00  0.45593999997E+02  0.45594000000E+02  0.51100000000E-03 0.  1.
         11   -1    0    0    0    0 -0.00000000000E+00 -0.00000000000E+00 -0.45593999997E+02  0.45594000000E+02  0.51100000000E-03 0. -1.
    9900012    2    1    2    0    0 -0.33795090132E+02 -0.22101729498E+02  0.47507287529E+01  0.50528880636E+02  0.30000063180E+02 0.  0.
        -12    1    1    2    0    0  0.33795090132E+02  0.22101729498E+02 -0.47507287529E+01  0.40659119364E+02  0.00000000000E+00 0.  1.
         11    1    3    3    0    0 -0.18527080700E+02 -0.14672050871E+02  0.61303400061E+00  0.23641015354E+02  0.51100000000E-03 0. -1.
        -11    1    3    3    0    0 -0.16585365934E+02  0.22074759978E+01  0.37865920536E+01  0.17154754241E+02  0.51100000000E-03 0.  1.
        -12    1    3    3    0    0  0.13173565025E+01 -0.96371546249E+01  0.35110269872E+00  0.97331110403E+01  0.00000000000E+00 0.  1.
</event>
<event>
 7    1  0.5138511E-013  0.5052885E+02  0.7816164E-02  0.1300439E+00
        -11   -1    0    0    0    0  0.00000000000E+00  0.00000000000E+00  0.45593999997E+02  0.45594000000E+02  0.51100000000E-03 0.  1.
         11   -1    0    0    0    0 -0.00000000000E+00 -0.00000000000E+00 -0.45593999997E+02  0.45594000000E+02  0.51100000000E-03 0. -1.
    9900012    2    1    2    0    0 -0.18940054000E+02 -0.40385403367E+01 -0.35750958980E+02  0.50528849473E+02  0.29999968459E+02 0.  0.
        -12    1    1    2    0    0  0.18940054000E+02  0.40385403367E+01  0.35750958980E+02  0.40659150527E+02  0.00000000000E+00 0.  1.
         11    1    3    3    0    0 -0.10257573367E+02 -0.51399946864E+01 -0.13209069387E+02  0.17496195903E+02  0.51100000000E-03 0. -1.
        -11    1    3    3    0    0 -0.15644159110E+01 -0.46802583209E+01 -0.23313367013E+02  0.23829924399E+02  0.51100000000E-03 0.  1.
        -12    1    3    3    0    0 -0.71180647217E+01  0.57817126706E+01  0.77147741994E+00  0.92027291712E+01  0.00000000000E+00 0.  1.
</event>
<event>
 7    1  0.5138511E-013  0.5052886E+02  0.7816164E-02  0.1300439E+00
        -11   -1    0    0    0    0  0.00000000000E+00  0.00000000000E+00  0.45593999997E+02  0.45594000000E+02  0.51100000000E-03 0. -1.
         11   -1    0    0    0    0 -0.00000000000E+00 -0.00000000000E+00 -0.45593999997E+02  0.45594000000E+02  0.51100000000E-03 0.  1.
    9900012    2    1    2    0    0 -0.15914534609E+02 -0.33485692560E+02  0.16691364667E+02  0.50528859914E+02  0.30000000196E+02 0.  0.
        -12    1    1    2    0    0  0.15914534609E+02  0.33485692560E+02 -0.16691364667E+02  0.40659140086E+02  0.00000000000E+00 0.  1.
         11    1    3    3    0    0 -0.26147212313E+01 -0.92863315915E+01  0.90398549222E+01  0.13220881167E+02  0.51100000000E-03 0. -1.
        -11    1    3    3    0    0 -0.15949985453E+02 -0.47525917462E+01  0.13633977262E+01  0.16698743003E+02  0.51100000000E-03 0.  1.
         12    1    3    3    0    0  0.26501720757E+01 -0.19446769223E+02  0.62881120182E+01  0.20609235745E+02  0.00000000000E+00 0. -1.
</event>
<event>
 7    1  0.5138511E-013  0.5052886E+02  0.7816164E-02  0.1300439E+00
        -11   -1    0    0    0    0  0.00000000000E+00  0.00000000000E+00  0.45593999997E+02  0.45594000000E+02  0.51100000000E-03 0. -1.
         11   -1    0    0    0    0 -0.00000000000E+00 -0.00000000000E+00 -0.45593999997E+02  0.45594000000E+02  0.51100000000E-03 0.  1.
    9900012    2    1    2    0    0 -0.90804961624E+01  0.17083083259E+02  0.35761409870E+02  0.50528861051E+02  0.30000003651E+02 0.  0.
        -12    1    1    2    0    0  0.90804961624E+01 -0.17083083259E+02 -0.35761409870E+02  0.40659138949E+02  0.00000000000E+00 0.  1.
         11    1    3    3    0    0  0.33926116835E+01  0.59797469476E+01  0.26199023522E+02  0.27086085383E+02  0.51100000000E-03 0.  1.
        -11    1    3    3    0    0 -0.31040436035E+01 -0.44645354649E+00  0.78736462972E+01  0.84751822244E+01  0.51100000000E-03 0. -1.
        -12    1    3    3    0    0 -0.93690642424E+01  0.11549789858E+02  0.16887400505E+01  0.14967593444E+02  0.00000000000E+00 0.  1.
</event>
<event>
 7    1  0.5138511E-013  0.5052886E+02  0.7816164E-02  0.1300439E+00
        -11   -1    0    0    0    0  0.00000000000E+00  0.00000000000E+00  0.45593999997E+02  0.45594000000E+02  0.51100000000E-03 0.  1.
         11   -1    0    0    0    0 -0.00000000000E+00 -0.00000000000E+00 -0.45593999997E+02  0.45594000000E+02  0.51100000000E-03 0. -1.
    9900012    2    1    2    0    0 -0.33044952427E+02  0.15115911381E+02 -0.18240241403E+02  0.50528855097E+02  0.29999985553E+02 0.  0.
        -12    1    1    2    0    0  0.33044952427E+02 -0.15115911381E+02  0.18240241403E+02  0.40659144903E+02  0.00000000000E+00 0.  1.
         11    1    3    3    0    0 -0.14854913764E+02  0.86603008240E+01 -0.85671643536E+01  0.19211079580E+02  0.51100000000E-03 0. -1.
        -11    1    3    3    0    0 -0.85147494181E+01 -0.65195277029E+01  0.25649577939E+01  0.11026522927E+02  0.51100000000E-03 0.  1.
         12    1    3    3    0    0 -0.96752892455E+01  0.12975138259E+02 -0.12238034844E+02  0.20291252590E+02  0.00000000000E+00 0. -1.
</event>
<event>
 7    1  0.5138511E-013  0.5052885E+02  0.7816164E-02  0.1300439E+00
        -11   -1    0    0    0    0  0.00000000000E+00  0.00000000000E+00  0.45593999997E+02  0.45594000000E+02  0.51100000000E-03 0.  1.
         11   -1    0    0    0    0 -0.00000000000E+00 -0.00000000000E+00 -0.45593999997E+02  0.45594000000E+02  0.51100000000E-03 0. -1.
    9900012    2    1    2    0    0  0.82324569606E+01 -0.42692421345E+01 -0.39587452884E+02  0.50528853405E+02  0.29999980411E+02 0.  0.
        -12    1    1    2    0    0 -0.82324569606E+01  0.42692421345E+01  0.39587452884E+02  0.40659146595E+02  0.00000000000E+00 0.  1.
         11    1    3    3    0    0  0.79224858896E+01 -0.83652032791E+01 -0.28958598455E+02  0.31166373439E+02  0.51100000000E-03 0. -1.
        -11    1    3    3    0    0 -0.63150679096E+01 -0.24992597626E+01 -0.37684610881E+01  0.77670896285E+01  0.51100000000E-03 0.  1.
        -12    1    3    3    0    0  0.66250389805E+01  0.65952209071E+01 -0.68603933400E+01  0.11595390338E+02  0.00000000000E+00 0.  1.
</event>
<event>
 7    1  0.5138511E-013  0.5052887E+02  0.7816164E-02  0.1300439E+00
        -11   -1    0    0    0    0  0.00000000000E+00  0.00000000000E+00  0.45593999997E+02  0.45594000000E+02  0.51100000000E-03 0.  1.
         11   -1    0    0    0    0 -0.00000000000E+00 -0.00000000000E+00 -0.45593999997E+02  0.45594000000E+02  0.51100000000E-03 0. -1.
    9900012    2    1    2    0    0 -0.10951004417E+02 -0.21816738015E+02 -0.32515698168E+02  0.50528865937E+02  0.30000018502E+02 0.  0.
        -12    1    1    2    0    0  0.10951004417E+02  0.21816738015E+02  0.32515698168E+02  0.40659134063E+02  0.00000000000E+00 0.  1.
         11    1    3    3    0    0 -0.84239651341E+01 -0.19849729856E+02 -0.19525320755E+02  0.29089742432E+02  0.51100000000E-03 0. -1.
        -11    1    3    3    0    0 -0.85509830749E+01 -0.38678367658E+01 -0.34540863253E+01  0.10000509257E+02  0.51100000000E-03 0.  1.
        -12    1    3    3    0    0  0.60239437916E+01  0.19008286060E+01 -0.95362910883E+01  0.11438614248E+02  0.00000000000E+00 0.  1.
</event>
<event>
 7    1  0.5138511E-013  0.5052887E+02  0.7816164E-02  0.1300439E+00
        -11   -1    0    0    0    0  0.00000000000E+00  0.00000000000E+00  0.45593999997E+02  0.45594000000E+02  0.51100000000E-03 0.  1.
         11   -1    0    0    0    0 -0.00000000000E+00 -0.00000000000E+00 -0.45593999997E+02  0.45594000000E+02  0.51100000000E-03 0. -1.
    9900012    2    1    2    0    0  0.40481309352E+02 -0.11638765175E+01 -0.36157992836E+01  0.50528867940E+02  0.30000024590E+02 0.  0.
        -12    1    1    2    0    0 -0.40481309352E+02  0.11638765175E+01  0.36157992836E+01  0.40659132060E+02  0.00000000000E+00 0.  1.
         11    1    3    3    0    0  0.25591802057E+02  0.25158366285E+01 -0.98772152126E+01  0.27546853669E+02  0.51100000000E-03 0. -1.
        -11    1    3    3    0    0  0.17447735413E+02 -0.62046463397E+01  0.52224464646E+01  0.19240453596E+02  0.51100000000E-03 0.  1.
        -12    1    3    3    0    0 -0.25582281175E+01  0.25249331937E+01  0.10389694645E+01  0.37415606747E+01  0.00000000000E+00 0.  1.
</event>
<event>
 7    1  0.5138511E-013  0.5052886E+02  0.7816164E-02  0.1300439E+00
        -11   -1    0    0    0    0  0.00000000000E+00  0.00000000000E+00  0.45593999997E+02  0.45594000000E+02  0.51100000000E-03 0.  1.
         11   -1    0    0    0    0 -0.00000000000E+00 -0.00000000000E+00 -0.45593999997E+02  0.45594000000E+02  0.51100000000E-03 0. -1.
    9900012    2    1    2    0    0  0.12712531349E+02  0.15327088375E+02 -0.35449080452E+02  0.50528863312E+02  0.30000010522E+02 0.  0.
        -12    1    1    2    0    0 -0.12712531349E+02 -0.15327088375E+02  0.35449080452E+02  0.40659136688E+02  0.00000000000E+00 0.  1.
         11    1    3    3    0    0 -0.24894546085E+01  0.97161900709E+01 -0.14238105703E+02  0.17416239204E+02  0.51100000000E-03 0. -1.
        -11    1    3    3    0    0  0.87379221531E+01  0.10414640343E+02 -0.40974057947E+01  0.14198758802E+02  0.51100000000E-03 0.  1.
        -12    1    3    3    0    0  0.64640638048E+01 -0.48037420381E+01 -0.17113568954E+02  0.18913865305E+02  0.00000000000E+00 0.  1.
</event>
<event>
 7    1  0.5138511E-013  0.5052887E+02  0.7816164E-02  0.1300439E+00
        -11   -1    0    0    0    0  0.00000000000E+00  0.00000000000E+00  0.45593999997E+02  0.45594000000E+02  0.51100000000E-03 0.  1.
         11   -1    0    0    0    0 -0.00000000000E+00 -0.00000000000E+00 -0.45593999997E+02  0.45594000000E+02  0.51100000000E-03 0. -1.
    9900012    2    1    2    0    0 -0.73951191227E-01  0.30484269410E+02 -0.26904812468E+02  0.50528867149E+02  0.30000022186E+02 0.  0.
        -12    1    1    2    0    0  0.73951191227E-01 -0.30484269410E+02  0.26904812468E+02  0.40659132851E+02  0.00000000000E+00 0.  1.
         11    1    3    3    0    0  0.68946768871E+01  0.24028586478E+02 -0.84795018109E+01  0.26397187136E+02  0.51100000000E-03 0. -1.
        -11    1    3    3    0    0  0.28151630184E+01 -0.66798415526E+00 -0.13257696492E+01  0.31826107326E+01  0.51100000000E-03 0.  1.
        -12    1    3    3    0    0 -0.97837910967E+01  0.71236670876E+01 -0.17099541008E+02  0.20949069280E+02  0.00000000000E+00 0.  1.
</event>
<event>
 7    1  0.5138511E-013  0.5052887E+02  0.7816164E-02  0.1300439E+00
        -11   -1    0    0    0    0  0.00000000000E+00  0.00000000000E+00  0.45593999997E+02  0.45594000000E+02  0.51100000000E-03 0.  1.
         11   -1    0    0    0    0 -0.00000000000E+00 -0.00000000000E+00 -0.45593999997E+02  0.45594000000E+02  0.51100000000E-03 0. -1.
    9900012    2    1    2    0    0 -0.17328993650E+02  0.26878127223E+02 -0.25108505141E+02  0.50528870959E+02  0.30000033767E+02 0.  0.
        -12    1    1    2    0    0  0.17328993650E+02 -0.26878127223E+02  0.25108505141E+02  0.40659129041E+02  0.00000000000E+00 0.  1.
         11    1    3    3    0    0 -0.12321213871E+02  0.97221084618E+01 -0.17368150421E+02  0.23409065626E+02  0.51100000000E-03 0. -1.
        -11    1    3    3    0    0 -0.11965808875E+02  0.77178058743E+01 -0.36278374477E+01  0.14693750861E+02  0.51100000000E-03 0.  1.
        -12    1    3    3    0    0  0.69580290966E+01  0.94382128873E+01 -0.41125172728E+01  0.12426054472E+02  0.00000000000E+00 0.  1.
</event>
<event>
 7    1  0.5138511E-013  0.5052885E+02  0.7816164E-02  0.1300439E+00
        -11   -1    0    0    0    0  0.00000000000E+00  0.00000000000E+00  0.45593999997E+02  0.45594000000E+02  0.51100000000E-03 0. -1.
         11   -1    0    0    0    0 -0.00000000000E+00 -0.00000000000E+00 -0.45593999997E+02  0.45594000000E+02  0.51100000000E-03 0.  1.
    9900012    2    1    2    0    0 -0.35306571551E+01 -0.27287983920E+02  0.29934373547E+02  0.50528851878E+02  0.29999975769E+02 0.  0.
        -12    1    1    2    0    0  0.35306571551E+01  0.27287983920E+02 -0.29934373547E+02  0.40659148122E+02  0.00000000000E+00 0.  1.
         11    1    3    3    0    0 -0.68710342078E+01 -0.18891031586E+02  0.21752555827E+02  0.29618505546E+02  0.51100000000E-03 0. -1.
        -11    1    3    3    0    0  0.35471670856E+01  0.22938026414E+01  0.92455140020E+01  0.10164814524E+02  0.51100000000E-03 0.  1.
        -12    1    3    3    0    0 -0.20679003289E+00 -0.10690754975E+02 -0.10636962827E+01  0.10745531808E+02  0.00000000000E+00 0.  1.
</event>
<event>
 7    1  0.5138511E-013  0.5052885E+02  0.7816164E-02  0.1300439E+00
        -11   -1    0    0    0    0  0.00000000000E+00  0.00000000000E+00  0.45593999997E+02  0.45594000000E+02  0.51100000000E-03 0. -1.
         11   -1    0    0    0    0 -0.00000000000E+00 -0.00000000000E+00 -0.45593999997E+02  0.45594000000E+02  0.51100000000E-03 0.  1.
    9900012    2    1    2    0    0 -0.35458810249E+02  0.19894316339E+02 -0.23585971022E+00  0.50528847566E+02  0.29999962661E+02 0.  0.
        -12    1    1    2    0    0  0.35458810249E+02 -0.19894316339E+02  0.23585971022E+00  0.40659152434E+02  0.00000000000E+00 0.  1.
         11    1    3    3    0    0 -0.65361670331E+01 -0.22308007247E+01 -0.20138073578E+01  0.71939816300E+01  0.51100000000E-03 0. -1.
        -11    1    3    3    0    0 -0.42252617205E+01  0.73277630510E+01  0.10281966816E+02  0.13314195049E+02  0.51100000000E-03 0.  1.
        -12    1    3    3    0    0 -0.24697381495E+02  0.14797354013E+02 -0.85040191682E+01  0.30020670887E+02  0.00000000000E+00 0.  1.
</event>
<event>
 7    1  0.5138511E-013  0.5052886E+02  0.7816164E-02  0.1300439E+00
        -11   -1    0    0    0    0  0.00000000000E+00  0.00000000000E+00  0.45593999997E+02  0.45594000000E+02  0.51100000000E-03 0.  1.
         11   -1    0    0    0    0 -0.00000000000E+00 -0.00000000000E+00 -0.45593999997E+02  0.45594000000E+02  0.51100000000E-03 0. -1.
    9900012    2    1    2    0    0 -0.88272088725E+01  0.15949328762E+02 -0.36343701858E+02  0.50528863644E+02  0.30000011534E+02 0.  0.
        -12    1    1    2    0    0  0.88272088725E+01 -0.15949328762E+02  0.36343701858E+02  0.40659136356E+02  0.00000000000E+00 0.  1.
         11    1    3    3    0    0 -0.98184701126E+01  0.18846351961E+02 -0.31905399245E+02  0.38334603674E+02  0.51100000000E-03 0. -1.
        -11    1    3    3    0    0  0.39749681953E+01  0.27129553148E+01 -0.81912148133E+00  0.48817475310E+01  0.51100000000E-03 0.  1.
        -12    1    3    3    0    0 -0.29837069553E+01 -0.56099785135E+01 -0.36191811315E+01  0.73125124396E+01  0.00000000000E+00 0.  1.
</event>
<event>
 7    1  0.5138511E-013  0.5052886E+02  0.7816164E-02  0.1300439E+00
        -11   -1    0    0    0    0  0.00000000000E+00  0.00000000000E+00  0.45593999997E+02  0.45594000000E+02  0.51100000000E-03 0.  1.
         11   -1    0    0    0    0 -0.00000000000E+00 -0.00000000000E+00 -0.45593999997E+02  0.45594000000E+02  0.51100000000E-03 0. -1.
    9900012    2    1    2    0    0  0.44721427134E+01 -0.29528670662E+02 -0.27590270565E+02  0.50528862264E+02  0.30000007339E+02 0.  0.
        -12    1    1    2    0    0 -0.44721427134E+01  0.29528670662E+02  0.27590270565E+02  0.40659137736E+02  0.00000000000E+00 0.  1.
         11    1    3    3    0    0  0.40901034643E+01 -0.75559748787E+01 -0.16254705734E+02  0.18385786942E+02  0.51100000000E-03 0. -1.
        -11    1    3    3    0    0  0.12074588378E+01 -0.24473925745E+02 -0.14143966141E+02  0.28292804327E+02  0.51100000000E-03 0.  1.
         12    1    3    3    0    0 -0.82541958875E+00  0.25012299617E+01  0.28084013098E+01  0.38502709951E+01  0.00000000000E+00 0. -1.
</event>
<event>
 7    1  0.5138511E-013  0.5052886E+02  0.7816164E-02  0.1300439E+00
        -11   -1    0    0    0    0  0.00000000000E+00  0.00000000000E+00  0.45593999997E+02  0.45594000000E+02  0.51100000000E-03 0.  1.
         11   -1    0    0    0    0 -0.00000000000E+00 -0.00000000000E+00 -0.45593999997E+02  0.45594000000E+02  0.51100000000E-03 0. -1.
    9900012    2    1    2    0    0 -0.44246682946E+01 -0.40250008851E+02  0.36775533135E+01  0.50528864490E+02  0.30000014105E+02 0.  0.
        -12    1    1    2    0    0  0.44246682946E+01  0.40250008851E+02 -0.36775533135E+01  0.40659135510E+02  0.00000000000E+00 0.  1.
         11    1    3    3    0    0  0.78110651126E+01 -0.96247966278E+01  0.70323402905E+01  0.14251430053E+02  0.51100000000E-03 0. -1.
        -11    1    3    3    0    0 -0.40574926241E+01 -0.19425496384E+01  0.34693023726E+01  0.56809158333E+01  0.51100000000E-03 0.  1.
         12    1    3    3    0    0 -0.81782407831E+01 -0.28682662585E+02 -0.68240893495E+01  0.30596518604E+02  0.00000000000E+00 0. -1.
</event>
<event>
 7    1  0.5138511E-013  0.5052883E+02  0.7816164E-02  0.1300439E+00
        -11   -1    0    0    0    0  0.00000000000E+00  0.00000000000E+00  0.45593999997E+02  0.45594000000E+02  0.51100000000E-03 0.  1.
         11   -1    0    0    0    0 -0.00000000000E+00 -0.00000000000E+00 -0.45593999997E+02  0.45594000000E+02  0.51100000000E-03 0. -1.
    9900012    2    1    2    0    0  0.13257502923E+02  0.15397980556E+02 -0.35218016034E+02  0.50528833231E+02  0.29999919088E+02 0.  0.
        -12    1    1    2    0    0 -0.13257502923E+02 -0.15397980556E+02  0.35218016034E+02  0.40659166769E+02  0.00000000000E+00 0.  1.
         11    1    3    3    0    0  0.24164834019E+01 -0.26300061653E+01 -0.24900786753E+02  0.25155625725E+02  0.51100000000E-03 0.  1.
        -11    1    3    3    0    0  0.53156116178E+01  0.11372264732E+02 -0.11006910784E+02  0.16695395092E+02  0.51100000000E-03 0. -1.
        -12    1    3    3    0    0  0.55254079038E+01  0.66557219895E+01  0.68968150270E+00  0.86778124133E+01  0.00000000000E+00 0.  1.
</event>
<event>
 7    1  0.6573572E-013  0.5052886E+02  0.7816164E-02  0.1300439E+00
        -11   -1    0    0    0    0  0.00000000000E+00  0.00000000000E+00  0.45593999997E+02  0.45594000000E+02  0.51100000000E-03 0. -1.
         11   -1    0    0    0    0 -0.00000000000E+00 -0.00000000000E+00 -0.45593999997E+02  0.45594000000E+02  0.51100000000E-03 0.  1.
    9900012    2    1    2    0    0 -0.17495973626E+02 -0.25194949738E+02  0.26688412608E+02  0.50528856466E+02  0.29999989713E+02 0.  0.
        -12    1    1    2    0    0  0.17495973626E+02  0.25194949738E+02 -0.26688412608E+02  0.40659143534E+02  0.00000000000E+00 0.  1.
         11    1    3    3    0    0 -0.10246441292E+02 -0.21588339340E+02  0.27243926438E+02  0.36239170556E+02  0.51100000000E-03 0. -1.
        -11    1    3    3    0    0  0.17625403047E+01  0.24025209101E+00  0.33086515311E+01  0.37565202792E+01  0.51100000000E-03 0.  1.
        -12    1    3    3    0    0 -0.90120726391E+01 -0.38468624889E+01 -0.38641653607E+01  0.10533165630E+02  0.00000000000E+00 0.  1.
</event>
<event>
 7    1  0.5138511E-013  0.5052885E+02  0.7816164E-02  0.1300439E+00
        -11   -1    0    0    0    0  0.00000000000E+00  0.00000000000E+00  0.45593999997E+02  0.45594000000E+02  0.51100000000E-03 0. -1.
         11   -1    0    0    0    0 -0.00000000000E+00 -0.00000000000E+00 -0.45593999997E+02  0.45594000000E+02  0.51100000000E-03 0.  1.
    9900012    2    1    2    0    0 -0.29355910152E+02  0.27812177776E+02  0.42284466148E+01  0.50528850300E+02  0.29999970972E+02 0.  0.
        -12    1    1    2    0    0  0.29355910152E+02 -0.27812177776E+02 -0.42284466148E+01  0.40659149700E+02  0.00000000000E+00 0.  1.
         11    1    3    3    0    0 -0.53846536792E+01  0.15517906009E+02  0.35149491280E+01  0.16797463195E+02  0.51100000000E-03 0. -1.
        -11    1    3    3    0    0 -0.18624488853E+02  0.17390922147E+02 -0.26419385228E+01  0.25618266873E+02  0.51100000000E-03 0.  1.
         12    1    3    3    0    0 -0.53467676199E+01 -0.50966503801E+01  0.33554360096E+01  0.81131202316E+01  0.00000000000E+00 0. -1.
</event>
<event>
 7    1  0.5138511E-013  0.5052886E+02  0.7816164E-02  0.1300439E+00
        -11   -1    0    0    0    0  0.00000000000E+00  0.00000000000E+00  0.45593999997E+02  0.45594000000E+02  0.51100000000E-03 0.  1.
         11   -1    0    0    0    0 -0.00000000000E+00 -0.00000000000E+00 -0.45593999997E+02  0.45594000000E+02  0.51100000000E-03 0. -1.
    9900012    2    1    2    0    0 -0.37467406958E+02 -0.11574157682E+02 -0.10742327063E+02  0.50528864483E+02  0.30000014083E+02 0.  0.
        -12    1    1    2    0    0  0.37467406958E+02  0.11574157682E+02  0.10742327063E+02  0.40659135517E+02  0.00000000000E+00 0.  1.
         11    1    3    3    0    0 -0.11495189021E+02 -0.66704572979E+01 -0.97012421486E+01  0.16454436201E+02  0.51100000000E-03 0. -1.
        -11    1    3    3    0    0  0.23638021749E+01 -0.48969576294E+01 -0.18012922806E+01  0.57282116657E+01  0.51100000000E-03 0.  1.
        -12    1    3    3    0    0 -0.28336020112E+02 -0.67427549648E-02  0.76020736582E+00  0.28346216617E+02  0.00000000000E+00 0.  1.
</event>
<event>
 7    1  0.5138511E-013  0.5052884E+02  0.7816164E-02  0.1300439E+00
        -11   -1    0    0    0    0  0.00000000000E+00  0.00000000000E+00  0.45593999997E+02  0.45594000000E+02  0.51100000000E-03 0. -1.
         11   -1    0    0    0    0 -0.00000000000E+00 -0.00000000000E+00 -0.45593999997E+02  0.45594000000E+02  0.51100000000E-03 0.  1.
    9900012    2    1    2    0    0 -0.23669964347E+02  0.51182640086E+01  0.32660432188E+02  0.50528835359E+02  0.29999925556E+02 0.  0.
        -12    1    1    2    0    0  0.23669964347E+02 -0.51182640086E+01 -0.32660432188E+02  0.40659164641E+02  0.00000000000E+00 0.  1.
         11    1    3    3    0    0  0.11318989420E+00  0.68686959271E+01  0.24751228891E+01  0.73019195605E+01  0.51100000000E-03 0. -1.
        -11    1    3    3    0    0 -0.12047268460E+02 -0.98327465655E+01  0.98916229793E+01  0.18429969826E+02  0.51100000000E-03 0.  1.
         12    1    3    3    0    0 -0.11735885781E+02  0.80823146469E+01  0.20293686319E+02  0.24796945972E+02  0.00000000000E+00 0. -1.
</event>
<event>
 7    1  0.7562978E-013  0.5052885E+02  0.7816164E-02  0.1300439E+00
        -11   -1    0    0    0    0  0.00000000000E+00  0.00000000000E+00  0.45593999997E+02  0.45594000000E+02  0.51100000000E-03 0. -1.
         11   -1    0    0    0    0 -0.00000000000E+00 -0.00000000000E+00 -0.45593999997E+02  0.45594000000E+02  0.51100000000E-03 0.  1.
    9900012    2    1    2    0    0 -0.87996879419E+01  0.28848503993E+02  0.27267113552E+02  0.50528853773E+02  0.29999981528E+02 0.  0.
        -12    1    1    2    0    0  0.87996879419E+01 -0.28848503993E+02 -0.27267113552E+02  0.40659146227E+02  0.00000000000E+00 0.  1.
         11    1    3    3    0    0 -0.11163726307E+02  0.80025423960E+01  0.19214195667E+02  0.23618949707E+02  0.51100000000E-03 0. -1.
        -11    1    3    3    0    0  0.79320686974E+00  0.15301273712E+02  0.12384101599E+02  0.19700866149E+02  0.51100000000E-03 0.  1.
        -12    1    3    3    0    0  0.15708314951E+01  0.55446878846E+01 -0.43311837142E+01  0.72090379171E+01  0.00000000000E+00 0.  1.
</event>
<event>
 7    1  0.5138511E-013  0.5052885E+02  0.7816164E-02  0.1300439E+00
        -11   -1    0    0    0    0  0.00000000000E+00  0.00000000000E+00  0.45593999997E+02  0.45594000000E+02  0.51100000000E-03 0.  1.
         11   -1    0    0    0    0 -0.00000000000E+00 -0.00000000000E+00 -0.45593999997E+02  0.45594000000E+02  0.51100000000E-03 0. -1.
    9900012    2    1    2    0    0 -0.18348194169E+02  0.11558607280E+02 -0.34393441372E+02  0.50528850464E+02  0.29999971472E+02 0.  0.
        -12    1    1    2    0    0  0.18348194169E+02 -0.11558607280E+02  0.34393441372E+02  0.40659149536E+02  0.00000000000E+00 0.  1.
         11    1    3    3    0    0 -0.43074634006E+01  0.52434471103E+01  0.21462430881E+01  0.71171861154E+01  0.51100000000E-03 0. -1.
        -11    1    3    3    0    0 -0.86195883962E+01  0.12442766076E+02 -0.25771801483E+02  0.29888216469E+02  0.51100000000E-03 0.  1.
         12    1    3    3    0    0 -0.54211423720E+01 -0.61276059059E+01 -0.10767882977E+02  0.13523447880E+02  0.00000000000E+00 0. -1.
</event>
<event>
 7    1  0.5138511E-013  0.5052884E+02  0.7816164E-02  0.1300439E+00
        -11   -1    0    0    0    0  0.00000000000E+00  0.00000000000E+00  0.45593999997E+02  0.45594000000E+02  0.51100000000E-03 0.  1.
         11   -1    0    0    0    0 -0.00000000000E+00 -0.00000000000E+00 -0.45593999997E+02  0.45594000000E+02  0.51100000000E-03 0. -1.
    9900012    2    1    2    0    0  0.15652912459E+02  0.47599396003E+01 -0.37222258710E+02  0.50528840676E+02  0.29999941720E+02 0.  0.
        -12    1    1    2    0    0 -0.15652912459E+02 -0.47599396003E+01  0.37222258710E+02  0.40659159324E+02  0.00000000000E+00 0.  1.
         11    1    3    3    0    0 -0.19700648067E+01 -0.25597103673E+01 -0.10570725753E+02  0.11053212914E+02  0.51100000000E-03 0. -1.
        -11    1    3    3    0    0 -0.27645356074E+01  0.79591167798E+01 -0.10469500153E+02  0.13438773410E+02  0.51100000000E-03 0.  1.
         12    1    3    3    0    0  0.20387512873E+02 -0.63946681224E+00 -0.16182032803E+02  0.26036854353E+02  0.00000000000E+00 0. -1.
</event>
<event>
 7    1  0.5138511E-013  0.5052886E+02  0.7816164E-02  0.1300439E+00
        -11   -1    0    0    0    0  0.00000000000E+00  0.00000000000E+00  0.45593999997E+02  0.45594000000E+02  0.51100000000E-03 0.  1.
         11   -1    0    0    0    0 -0.00000000000E+00 -0.00000000000E+00 -0.45593999997E+02  0.45594000000E+02  0.51100000000E-03 0. -1.
    9900012    2    1    2    0    0  0.21204956009E+02  0.70830040771E+01 -0.33960954537E+02  0.50528861555E+02  0.30000005181E+02 0.  0.
        -12    1    1    2    0    0 -0.21204956009E+02 -0.70830040771E+01  0.33960954537E+02  0.40659138445E+02  0.00000000000E+00 0.  1.
         11    1    3    3    0    0 -0.76613309633E+00  0.46928267655E+01 -0.38854814525E+01  0.61405658820E+01  0.51100000000E-03 0. -1.
        -11    1    3    3    0    0  0.62184280482E+01  0.24853203348E+01 -0.27650390437E+02  0.28449776030E+02  0.51100000000E-03 0.  1.
        -12    1    3    3    0    0  0.15752661057E+02 -0.95143023220E-01 -0.24250826470E+01  0.15938519643E+02  0.00000000000E+00 0.  1.
</event>
<event>
 7    1  0.5138511E-013  0.5052884E+02  0.7816164E-02  0.1300439E+00
        -11   -1    0    0    0    0  0.00000000000E+00  0.00000000000E+00  0.45593999997E+02  0.45594000000E+02  0.51100000000E-03 0.  1.
         11   -1    0    0    0    0 -0.00000000000E+00 -0.00000000000E+00 -0.45593999997E+02  0.45594000000E+02  0.51100000000E-03 0. -1.
    9900012    2    1    2    0    0  0.20826162570E+02  0.23215812232E+02 -0.26085712533E+02  0.50528838876E+02  0.29999936246E+02 0.  0.
        -12    1    1    2    0    0 -0.20826162570E+02 -0.23215812232E+02  0.26085712533E+02  0.40659161124E+02  0.00000000000E+00 0.  1.
         11    1    3    3    0    0  0.16724451303E+01 -0.18682574222E+01  0.25924807036E+01  0.36067180329E+01  0.51100000000E-03 0. -1.
        -11    1    3    3    0    0  0.18071097402E+01  0.92370466192E+01 -0.19583565736E+02  0.21727970984E+02  0.51100000000E-03 0.  1.
         12    1    3    3    0    0  0.17346607700E+02  0.15847023035E+02 -0.90946275006E+01  0.25194149859E+02  0.00000000000E+00 0. -1.
</event>
<event>
 7    1  0.5138511E-013  0.5052886E+02  0.7816164E-02  0.1300439E+00
        -11   -1    0    0    0    0  0.00000000000E+00  0.00000000000E+00  0.45593999997E+02  0.45594000000E+02  0.51100000000E-03 0.  1.
         11   -1    0    0    0    0 -0.00000000000E+00 -0.00000000000E+00 -0.45593999997E+02  0.45594000000E+02  0.51100000000E-03 0. -1.
    9900012    2    1    2    0    0 -0.39319909596E+02 -0.59825556129E+01  0.84450610372E+01  0.50528864271E+02  0.30000013439E+02 0.  0.
        -12    1    1    2    0    0  0.39319909596E+02  0.59825556129E+01 -0.84450610372E+01  0.40659135729E+02  0.00000000000E+00 0.  1.
         11    1    3    3    0    0 -0.40605587789E+01 -0.59279766588E+00  0.99429996557E+01  0.10756523095E+02  0.51100000000E-03 0. -1.
        -11    1    3    3    0    0 -0.16368155186E+02 -0.11367784480E+02 -0.90459097314E+00  0.19948967725E+02  0.51100000000E-03 0.  1.
         12    1    3    3    0    0 -0.18891195631E+02  0.59780265333E+01 -0.59334764541E+00  0.19823373452E+02  0.00000000000E+00 0. -1.
</event>
<event>
 7    1  0.5138511E-013  0.5052884E+02  0.7816164E-02  0.1300439E+00
        -11   -1    0    0    0    0  0.00000000000E+00  0.00000000000E+00  0.45593999997E+02  0.45594000000E+02  0.51100000000E-03 0. -1.
         11   -1    0    0    0    0 -0.00000000000E+00 -0.00000000000E+00 -0.45593999997E+02  0.45594000000E+02  0.51100000000E-03 0.  1.
    9900012    2    1    2    0    0 -0.24143782839E+01  0.34051343103E+02  0.22087202277E+02  0.50528835055E+02  0.29999924634E+02 0.  0.
        -12    1    1    2    0    0  0.24143782839E+01 -0.34051343103E+02 -0.22087202277E+02  0.40659164945E+02  0.00000000000E+00 0.  1.
         11    1    3    3    0    0 -0.56967793784E+00  0.19733929855E+01  0.11061300223E+02  0.11250385581E+02  0.51100000000E-03 0. -1.
        -11    1    3    3    0    0 -0.22197612791E+01  0.22913327254E+02 -0.22628699913E+01  0.23131547438E+02  0.51100000000E-03 0.  1.
         12    1    3    3    0    0  0.37506093312E+00  0.91646228625E+01  0.13288772045E+02  0.16146902037E+02  0.00000000000E+00 0. -1.
</event>
<event>
 7    1  0.5138511E-013  0.5052886E+02  0.7816164E-02  0.1300439E+00
        -11   -1    0    0    0    0  0.00000000000E+00  0.00000000000E+00  0.45593999997E+02  0.45594000000E+02  0.51100000000E-03 0.  1.
         11   -1    0    0    0    0 -0.00000000000E+00 -0.00000000000E+00 -0.45593999997E+02  0.45594000000E+02  0.51100000000E-03 0. -1.
    9900012    2    1    2    0    0  0.35694157464E+02 -0.12374408736E+02 -0.15032187551E+02  0.50528861652E+02  0.30000005478E+02 0.  0.
        -12    1    1    2    0    0 -0.35694157464E+02  0.12374408736E+02  0.15032187551E+02  0.40659138348E+02  0.00000000000E+00 0.  1.
         11    1    3    3    0    0  0.11633429835E+02 -0.91676157112E+01 -0.37691297026E+01  0.15283592723E+02  0.51100000000E-03 0. -1.
        -11    1    3    3    0    0  0.14646900728E+02 -0.98572115412E+01  0.18910123459E+01  0.17755907418E+02  0.51100000000E-03 0.  1.
        -12    1    3    3    0    0  0.94138269007E+01  0.66504185166E+01 -0.13154070195E+02  0.17489361511E+02  0.00000000000E+00 0.  1.
</event>
<event>
 7    1  0.5138511E-013  0.5052885E+02  0.7816164E-02  0.1300439E+00
        -11   -1    0    0    0    0  0.00000000000E+00  0.00000000000E+00  0.45593999997E+02  0.45594000000E+02  0.51100000000E-03 0.  1.
         11   -1    0    0    0    0 -0.00000000000E+00 -0.00000000000E+00 -0.45593999997E+02  0.45594000000E+02  0.51100000000E-03 0. -1.
    9900012    2    1    2    0    0 -0.15663934865E+02  0.35017441400E+02 -0.13475387008E+02  0.50528854501E+02  0.29999983742E+02 0.  0.
        -12    1    1    2    0    0  0.15663934865E+02 -0.35017441400E+02  0.13475387008E+02  0.40659145499E+02  0.00000000000E+00 0.  1.
         11    1    3    3    0    0 -0.18436194298E+02  0.22740695510E+02 -0.12461300001E+02  0.31816921448E+02  0.51100000000E-03 0. -1.
        -11    1    3    3    0    0 -0.18367216574E+01  0.13727710357E+02 -0.88354748358E+00  0.13878192768E+02  0.51100000000E-03 0.  1.
        -12    1    3    3    0    0  0.46089810907E+01 -0.14509644664E+01 -0.13053952357E+00  0.48337402852E+01  0.00000000000E+00 0.  1.
</event>
<event>
 7    1  0.5138511E-013  0.5052879E+02  0.7816164E-02  0.1300439E+00
        -11   -1    0    0    0    0  0.00000000000E+00  0.00000000000E+00  0.45593999997E+02  0.45594000000E+02  0.51100000000E-03 0.  1.
         11   -1    0    0    0    0 -0.00000000000E+00 -0.00000000000E+00 -0.45593999997E+02  0.45594000000E+02  0.51100000000E-03 0. -1.
    9900012    2    1    2    0    0 -0.27415705093E+02  0.29080422781E+02 -0.74752445893E+01  0.50528792475E+02  0.29999795208E+02 0.  0.
        -12    1    1    2    0    0  0.27415705093E+02 -0.29080422781E+02  0.74752445893E+01  0.40659207525E+02  0.00000000000E+00 0.  1.
         11    1    3    3    0    0 -0.18836452663E+02  0.12894260434E+02  0.41348273891E+01  0.23198506393E+02  0.51100000000E-03 0. -1.
        -11    1    3    3    0    0  0.41963037879E+01  0.28849407314E+00 -0.92820811628E+00  0.43074081394E+01  0.51100000000E-03 0.  1.
         12    1    3    3    0    0 -0.12775556218E+02  0.15897668274E+02 -0.10681863862E+02  0.23022877943E+02  0.00000000000E+00 0. -1.
</event>
<event>
 7    1  0.5138511E-013  0.5052889E+02  0.7816164E-02  0.1300439E+00
        -11   -1    0    0    0    0  0.00000000000E+00  0.00000000000E+00  0.45593999997E+02  0.45594000000E+02  0.51100000000E-03 0.  1.
         11   -1    0    0    0    0 -0.00000000000E+00 -0.00000000000E+00 -0.45593999997E+02  0.45594000000E+02  0.51100000000E-03 0. -1.
    9900012    2    1    2    0    0 -0.31409293833E+02 -0.13266223962E+02 -0.22150099284E+02  0.50528888652E+02  0.30000087548E+02 0.  0.
        -12    1    1    2    0    0  0.31409293833E+02  0.13266223962E+02  0.22150099284E+02  0.40659111348E+02  0.00000000000E+00 0.  1.
         11    1    3    3    0    0 -0.16801639197E+02  0.87704538812E+00 -0.64239734465E+01  0.18009212182E+02  0.51100000000E-03 0. -1.
        -11    1    3    3    0    0  0.32842298511E+01  0.24169853589E+01 -0.25100545758E+01  0.47883565212E+01  0.51100000000E-03 0.  1.
        -12    1    3    3    0    0 -0.17891884487E+02 -0.16560254709E+02 -0.13216071262E+02  0.27731319949E+02  0.00000000000E+00 0.  1.
</event>
<event>
 7    1  0.5138511E-013  0.5052886E+02  0.7816164E-02  0.1300439E+00
        -11   -1    0    0    0    0  0.00000000000E+00  0.00000000000E+00  0.45593999997E+02  0.45594000000E+02  0.51100000000E-03 0.  1.
         11   -1    0    0    0    0 -0.00000000000E+00 -0.00000000000E+00 -0.45593999997E+02  0.45594000000E+02  0.51100000000E-03 0. -1.
    9900012    2    1    2    0    0 -0.16631386007E+02  0.23620303431E+02 -0.28611958881E+02  0.50528856801E+02  0.29999990732E+02 0.  0.
        -12    1    1    2    0    0  0.16631386007E+02 -0.23620303431E+02  0.28611958881E+02  0.40659143199E+02  0.00000000000E+00 0.  1.
         11    1    3    3    0    0 -0.17361175633E+02  0.19584500303E+02 -0.32356808726E+02  0.41616416745E+02  0.51100000000E-03 0. -1.
        -11    1    3    3    0    0 -0.25948116306E+01  0.36515869877E+01  0.10140774143E+01  0.45929824941E+01  0.51100000000E-03 0.  1.
        -12    1    3    3    0    0  0.33246012571E+01  0.38421614007E+00  0.27307724309E+01  0.43194575621E+01  0.00000000000E+00 0.  1.
</event>
<event>
 7    1  0.5138511E-013  0.5052886E+02  0.7816164E-02  0.1300439E+00
        -11   -1    0    0    0    0  0.00000000000E+00  0.00000000000E+00  0.45593999997E+02  0.45594000000E+02  0.51100000000E-03 0.  1.
         11   -1    0    0    0    0 -0.00000000000E+00 -0.00000000000E+00 -0.45593999997E+02  0.45594000000E+02  0.51100000000E-03 0. -1.
    9900012    2    1    2    0    0 -0.40209118573E+02 -0.21384294838E+01  0.56408966237E+01  0.50528858201E+02  0.29999994989E+02 0.  0.
        -12    1    1    2    0    0  0.40209118573E+02  0.21384294838E+01 -0.56408966237E+01  0.40659141799E+02  0.00000000000E+00 0.  1.
         11    1    3    3    0    0 -0.25712530407E+01 -0.86144647009E+01  0.75963191145E+01  0.11769639274E+02  0.51100000000E-03 0. -1.
        -11    1    3    3    0    0 -0.89675044063E+01 -0.94888373152E+00  0.56987251405E+00  0.90355559074E+01  0.51100000000E-03 0.  1.
        -12    1    3    3    0    0 -0.28670361126E+02  0.74249189486E+01 -0.25252950048E+01  0.29723663020E+02  0.00000000000E+00 0.  1.
</event>
<event>
 7    1  0.5138511E-013  0.5052885E+02  0.7816164E-02  0.1300439E+00
        -11   -1    0    0    0    0  0.00000000000E+00  0.00000000000E+00  0.45593999997E+02  0.45594000000E+02  0.51100000000E-03 0.  1.
         11   -1    0    0    0    0 -0.00000000000E+00 -0.00000000000E+00 -0.45593999997E+02  0.45594000000E+02  0.51100000000E-03 0. -1.
    9900012    2    1    2    0    0 -0.30203302896E+02  0.17789915227E+02 -0.20602075924E+02  0.50528854387E+02  0.29999983395E+02 0.  0.
        -12    1    1    2    0    0  0.30203302896E+02 -0.17789915227E+02  0.20602075924E+02  0.40659145613E+02  0.00000000000E+00 0.  1.
         11    1    3    3    0    0 -0.14533329703E+01 -0.14565452673E+01  0.75859229331E+00  0.21929804757E+01  0.51100000000E-03 0. -1.
        -11    1    3    3    0    0 -0.60801745812E+01  0.14471316813E+02 -0.19587376103E+02  0.25100853294E+02  0.51100000000E-03 0.  1.
         12    1    3    3    0    0 -0.22669795345E+02  0.47751436815E+01 -0.17732921137E+01  0.23235020617E+02  0.00000000000E+00 0. -1.
</event>
<event>
 7    1  0.5138511E-013  0.5052898E+02  0.7816164E-02  0.1300438E+00
        -11   -1    0    0    0    0  0.00000000000E+00  0.00000000000E+00  0.45593999997E+02  0.45594000000E+02  0.51100000000E-03 0. -1.
         11   -1    0    0    0    0 -0.00000000000E+00 -0.00000000000E+00 -0.45593999997E+02  0.45594000000E+02  0.51100000000E-03 0.  1.
    9900012    2    1    2    0    0  0.10179948239E+02  0.33748429646E+02  0.20262487875E+02  0.50528975607E+02  0.30000351852E+02 0.  0.
        -12    1    1    2    0    0 -0.10179948239E+02 -0.33748429646E+02 -0.20262487875E+02  0.40659024393E+02  0.00000000000E+00 0.  1.
         11    1    3    3    0    0 -0.42245715027E+01  0.12951368586E+02  0.44390205800E+01  0.14327939720E+02  0.51100000000E-03 0.  1.
        -11    1    3    3    0    0  0.90456451159E+01  0.17065202707E+02  0.25235459848E+00  0.19316017242E+02  0.51100000000E-03 0. -1.
         12    1    3    3    0    0  0.53588746259E+01  0.37318583527E+01  0.15571112697E+02  0.16885018645E+02  0.00000000000E+00 0. -1.
</event>
<event>
 7    1  0.5138511E-013  0.5052886E+02  0.7816164E-02  0.1300439E+00
        -11   -1    0    0    0    0  0.00000000000E+00  0.00000000000E+00  0.45593999997E+02  0.45594000000E+02  0.51100000000E-03 0.  1.
         11   -1    0    0    0    0 -0.00000000000E+00 -0.00000000000E+00 -0.45593999997E+02  0.45594000000E+02  0.51100000000E-03 0. -1.
    9900012    2    1    2    0    0  0.26548131828E+02 -0.29795560328E+02 -0.77837614233E+01  0.50528860059E+02  0.30000000635E+02 0.  0.
        -12    1    1    2    0    0 -0.26548131828E+02  0.29795560328E+02  0.77837614233E+01  0.40659139941E+02  0.00000000000E+00 0.  1.
         11    1    3    3    0    0  0.95004828213E+01 -0.11356070343E+02 -0.10923580090E+02  0.18399568194E+02  0.51100000000E-03 0. -1.
        -11    1    3    3    0    0  0.88728181102E+01  0.15942801037E+01  0.51777929737E+01  0.10396065150E+02  0.51100000000E-03 0.  1.
         12    1    3    3    0    0  0.81748308967E+01 -0.20033770089E+02 -0.20379743065E+01  0.21733226715E+02  0.00000000000E+00 0. -1.
</event>
<event>
 7    1  0.5138511E-013  0.5052886E+02  0.7816164E-02  0.1300439E+00
        -11   -1    0    0    0    0  0.00000000000E+00  0.00000000000E+00  0.45593999997E+02  0.45594000000E+02  0.51100000000E-03 0. -1.
         11   -1    0    0    0    0 -0.00000000000E+00 -0.00000000000E+00 -0.45593999997E+02  0.45594000000E+02  0.51100000000E-03 0.  1.
    9900012    2    1    2    0    0  0.34393090323E+02  0.19229844183E+01  0.21600528611E+02  0.50528863667E+02  0.30000011604E+02 0.  0.
        -12    1    1    2    0    0 -0.34393090323E+02 -0.19229844183E+01 -0.21600528611E+02  0.40659136333E+02  0.00000000000E+00 0.  1.
         11    1    3    3    0    0  0.23988270618E+01 -0.45705111367E+01  0.79641939532E+01  0.94906442831E+01  0.51100000000E-03 0. -1.
        -11    1    3    3    0    0  0.63716898107E+01  0.73991982702E+01  0.11825358209E+02  0.15335764184E+02  0.51100000000E-03 0.  1.
        -12    1    3    3    0    0  0.25622573450E+02 -0.90570271520E+00  0.18109764494E+01  0.25702455200E+02  0.00000000000E+00 0.  1.
</event>
<event>
 7    1  0.5138511E-013  0.5052885E+02  0.7816164E-02  0.1300439E+00
        -11   -1    0    0    0    0  0.00000000000E+00  0.00000000000E+00  0.45593999997E+02  0.45594000000E+02  0.51100000000E-03 0. -1.
         11   -1    0    0    0    0 -0.00000000000E+00 -0.00000000000E+00 -0.45593999997E+02  0.45594000000E+02  0.51100000000E-03 0.  1.
    9900012    2    1    2    0    0 -0.94676617858E+01 -0.11633140323E+02  0.37791529430E+02  0.50528852565E+02  0.29999977858E+02 0.  0.
        -12    1    1    2    0    0  0.94676617858E+01  0.11633140323E+02 -0.37791529430E+02  0.40659147435E+02  0.00000000000E+00 0.  1.
         11    1    3    3    0    0 -0.80066497271E+01  0.11828858447E-01  0.37287808541E+01  0.88323488774E+01  0.51100000000E-03 0. -1.
        -11    1    3    3    0    0  0.53192627415E+01  0.20882558400E+01  0.18138458149E+01  0.59954487295E+01  0.51100000000E-03 0.  1.
         12    1    3    3    0    0 -0.67802748003E+01 -0.13733225022E+02  0.32248902761E+02  0.35701054958E+02  0.00000000000E+00 0. -1.
</event>
<event>
 7    1  0.5138511E-013  0.5052887E+02  0.7816164E-02  0.1300439E+00
        -11   -1    0    0    0    0  0.00000000000E+00  0.00000000000E+00  0.45593999997E+02  0.45594000000E+02  0.51100000000E-03 0.  1.
         11   -1    0    0    0    0 -0.00000000000E+00 -0.00000000000E+00 -0.45593999997E+02  0.45594000000E+02  0.51100000000E-03 0. -1.
    9900012    2    1    2    0    0 -0.33984955864E+02  0.22308236583E+02  0.72805617054E+00  0.50528871747E+02  0.30000036162E+02 0.  0.
        -12    1    1    2    0    0  0.33984955864E+02 -0.22308236583E+02 -0.72805617054E+00  0.40659128253E+02  0.00000000000E+00 0.  1.
         11    1    3    3    0    0  0.30492756617E+01  0.57405784910E+01  0.37083204157E+01  0.74835796274E+01  0.51100000000E-03 0. -1.
        -11    1    3    3    0    0 -0.88279487913E+01  0.32931324075E+01 -0.68263036794E+01  0.11635111650E+02  0.51100000000E-03 0.  1.
        -12    1    3    3    0    0 -0.28206282734E+02  0.13274525684E+02  0.38460394342E+01  0.31410180470E+02  0.00000000000E+00 0.  1.
</event>
<event>
 7    1  0.5138511E-013  0.5052887E+02  0.7816164E-02  0.1300439E+00
        -11   -1    0    0    0    0  0.00000000000E+00  0.00000000000E+00  0.45593999997E+02  0.45594000000E+02  0.51100000000E-03 0.  1.
         11   -1    0    0    0    0 -0.00000000000E+00 -0.00000000000E+00 -0.45593999997E+02  0.45594000000E+02  0.51100000000E-03 0. -1.
    9900012    2    1    2    0    0  0.77499084962E+01 -0.23923238892E+02 -0.31949683519E+02  0.50528871656E+02  0.30000035885E+02 0.  0.
        -12    1    1    2    0    0 -0.77499084962E+01  0.23923238892E+02  0.31949683519E+02  0.40659128344E+02  0.00000000000E+00 0.  1.
         11    1    3    3    0    0  0.28367944811E+01 -0.71858640957E+01 -0.11617708380E+02  0.13951888546E+02  0.51100000000E-03 0. -1.
        -11    1    3    3    0    0  0.29078487032E+01 -0.21015097560E+02 -0.68540496257E+01  0.22295019759E+02  0.51100000000E-03 0.  1.
        -12    1    3    3    0    0  0.20052653119E+01  0.42777227641E+01 -0.13477925513E+02  0.14281963351E+02  0.00000000000E+00 0.  1.
</event>
<event>
 7    1  0.5138511E-013  0.5052886E+02  0.7816164E-02  0.1300439E+00
        -11   -1    0    0    0    0  0.00000000000E+00  0.00000000000E+00  0.45593999997E+02  0.45594000000E+02  0.51100000000E-03 0.  1.
         11   -1    0    0    0    0 -0.00000000000E+00 -0.00000000000E+00 -0.45593999997E+02  0.45594000000E+02  0.51100000000E-03 0. -1.
    9900012    2    1    2    0    0  0.32867057639E+02  0.23771447561E+02  0.28000523466E+01  0.50528862157E+02  0.30000007012E+02 0.  0.
        -12    1    1    2    0    0 -0.32867057639E+02 -0.23771447561E+02 -0.28000523466E+01  0.40659137843E+02  0.00000000000E+00 0.  1.
         11    1    3    3    0    0  0.24844875334E+02  0.60005556574E+01 -0.58467751797E+00  0.25565921588E+02  0.51100000000E-03 0.  1.
        -11    1    3    3    0    0  0.91245117925E+01  0.98268960161E+01 -0.40693514640E+01  0.14013715509E+02  0.51100000000E-03 0. -1.
        -12    1    3    3    0    0 -0.11023294882E+01  0.79439958879E+01  0.74540813286E+01  0.10949225060E+02  0.00000000000E+00 0.  1.
</event>
<event>
 7    1  0.5138511E-013  0.5052886E+02  0.7816164E-02  0.1300439E+00
        -11   -1    0    0    0    0  0.00000000000E+00  0.00000000000E+00  0.45593999997E+02  0.45594000000E+02  0.51100000000E-03 0.  1.
         11   -1    0    0    0    0 -0.00000000000E+00 -0.00000000000E+00 -0.45593999997E+02  0.45594000000E+02  0.51100000000E-03 0. -1.
    9900012    2    1    2    0    0 -0.32932695858E+02 -0.21858894963E+02  0.95284794046E+01  0.50528860004E+02  0.30000000469E+02 0.  0.
        -12    1    1    2    0    0  0.32932695858E+02  0.21858894963E+02 -0.95284794046E+01  0.40659139996E+02  0.00000000000E+00 0.  1.
         11    1    3    3    0    0 -0.16617353333E+02 -0.19120975252E+02  0.19281650811E+01  0.25406021869E+02  0.51100000000E-03 0. -1.
        -11    1    3    3    0    0 -0.81326002068E+01 -0.82012200165E+01  0.96760014688E+01  0.15067322276E+02  0.51100000000E-03 0.  1.
         12    1    3    3    0    0 -0.81827423183E+01  0.54633003057E+01 -0.20756871452E+01  0.10055515860E+02  0.00000000000E+00 0. -1.
</event>
<event>
 7    1  0.5138511E-013  0.5052887E+02  0.7816164E-02  0.1300439E+00
        -11   -1    0    0    0    0  0.00000000000E+00  0.00000000000E+00  0.45593999997E+02  0.45594000000E+02  0.51100000000E-03 0.  1.
         11   -1    0    0    0    0 -0.00000000000E+00 -0.00000000000E+00 -0.45593999997E+02  0.45594000000E+02  0.51100000000E-03 0. -1.
    9900012    2    1    2    0    0  0.90051380338E+01 -0.43414559246E+01 -0.39410966275E+02  0.50528868021E+02  0.30000024837E+02 0.  0.
        -12    1    1    2    0    0 -0.90051380338E+01  0.43414559246E+01  0.39410966275E+02  0.40659131979E+02  0.00000000000E+00 0.  1.
         11    1    3    3    0    0  0.83362939932E+01  0.13640479658E+01 -0.20590712006E+02  0.22256051886E+02  0.51100000000E-03 0. -1.
        -11    1    3    3    0    0  0.12763217621E+01  0.68826742829E+01 -0.20482866900E+01  0.72935369438E+01  0.51100000000E-03 0.  1.
        -12    1    3    3    0    0 -0.60747772147E+00 -0.12588178173E+02 -0.16771967579E+02  0.20979279191E+02  0.00000000000E+00 0.  1.
</event>
<event>
 7    1  0.5138511E-013  0.5052886E+02  0.7816164E-02  0.1300439E+00
        -11   -1    0    0    0    0  0.00000000000E+00  0.00000000000E+00  0.45593999997E+02  0.45594000000E+02  0.51100000000E-03 0.  1.
         11   -1    0    0    0    0 -0.00000000000E+00 -0.00000000000E+00 -0.45593999997E+02  0.45594000000E+02  0.51100000000E-03 0. -1.
    9900012    2    1    2    0    0  0.99693384545E+01 -0.33493474366E+02  0.20783763506E+02  0.50528863759E+02  0.30000011883E+02 0.  0.
        -12    1    1    2    0    0 -0.99693384545E+01  0.33493474366E+02 -0.20783763506E+02  0.40659136241E+02  0.00000000000E+00 0.  1.
         11    1    3    3    0    0  0.34748423533E+01 -0.39549179705E+00 -0.30549994028E+01  0.46437016220E+01  0.51100000000E-03 0. -1.
        -11    1    3    3    0    0 -0.24541887393E+01 -0.26117366712E+01 -0.27000206809E+01  0.44871285635E+01  0.51100000000E-03 0.  1.
        -12    1    3    3    0    0  0.89486848405E+01 -0.30486245898E+02  0.26538783590E+02  0.41398033574E+02  0.00000000000E+00 0.  1.
</event>
<event>
 7    1  0.5138511E-013  0.5052887E+02  0.7816164E-02  0.1300439E+00
        -11   -1    0    0    0    0  0.00000000000E+00  0.00000000000E+00  0.45593999997E+02  0.45594000000E+02  0.51100000000E-03 0.  1.
         11   -1    0    0    0    0 -0.00000000000E+00 -0.00000000000E+00 -0.45593999997E+02  0.45594000000E+02  0.51100000000E-03 0. -1.
    9900012    2    1    2    0    0  0.18348895274E+02 -0.35851385107E+02 -0.55822412456E+01  0.50528865858E+02  0.30000018262E+02 0.  0.
        -12    1    1    2    0    0 -0.18348895274E+02  0.35851385107E+02  0.55822412456E+01  0.40659134142E+02  0.00000000000E+00 0.  1.
         11    1    3    3    0    0  0.11080663165E+02 -0.12469113009E+02  0.34921269370E+01  0.17042735292E+02  0.51100000000E-03 0. -1.
        -11    1    3    3    0    0 -0.26761719186E+01 -0.16257423946E+01  0.48754144362E+01  0.57943593828E+01  0.51100000000E-03 0.  1.
         12    1    3    3    0    0  0.99444040270E+01 -0.21756529703E+02 -0.13949782619E+02  0.27691771183E+02  0.00000000000E+00 0. -1.
</event>
<event>
 7    1  0.5138511E-013  0.5052886E+02  0.7816164E-02  0.1300439E+00
        -11   -1    0    0    0    0  0.00000000000E+00  0.00000000000E+00  0.45593999997E+02  0.45594000000E+02  0.51100000000E-03 0.  1.
         11   -1    0    0    0    0 -0.00000000000E+00 -0.00000000000E+00 -0.45593999997E+02  0.45594000000E+02  0.51100000000E-03 0. -1.
    9900012    2    1    2    0    0  0.69269318941E+00  0.29322985947E+02 -0.28157562409E+02  0.50528860197E+02  0.30000001055E+02 0.  0.
        -12    1    1    2    0    0 -0.69269318941E+00 -0.29322985947E+02  0.28157562409E+02  0.40659139803E+02  0.00000000000E+00 0.  1.
         11    1    3    3    0    0  0.53803038728E+01 -0.28942080642E+01 -0.64346652836E+00  0.61431392233E+01  0.51100000000E-03 0. -1.
        -11    1    3    3    0    0 -0.42174674786E+01  0.55118710858E+01 -0.14984628889E+01  0.71002215522E+01  0.51100000000E-03 0.  1.
         12    1    3    3    0    0 -0.47014320483E+00  0.26705322925E+02 -0.26015632992E+02  0.37285499422E+02  0.00000000000E+00 0. -1.
</event>
<event>
 7    1  0.5138511E-013  0.5052885E+02  0.7816164E-02  0.1300439E+00
        -11   -1    0    0    0    0  0.00000000000E+00  0.00000000000E+00  0.45593999997E+02  0.45594000000E+02  0.51100000000E-03 0.  1.
         11   -1    0    0    0    0 -0.00000000000E+00 -0.00000000000E+00 -0.45593999997E+02  0.45594000000E+02  0.51100000000E-03 0. -1.
    9900012    2    1    2    0    0  0.14590346285E+02  0.33264953086E+02  0.18268309730E+02  0.50528850367E+02  0.29999971175E+02 0.  0.
        -12    1    1    2    0    0 -0.14590346285E+02 -0.33264953086E+02 -0.18268309730E+02  0.40659149633E+02  0.00000000000E+00 0.  1.
         11    1    3    3    0    0  0.14069546888E+02  0.12619322903E+02  0.10585040234E+02  0.21662006767E+02  0.51100000000E-03 0. -1.
        -11    1    3    3    0    0  0.32457337871E+01  0.22536007766E+02  0.99521321836E+01  0.24848568754E+02  0.51100000000E-03 0.  1.
        -12    1    3    3    0    0 -0.27249343900E+01 -0.18903775834E+01 -0.22688626882E+01  0.40182748457E+01  0.00000000000E+00 0.  1.
</event>
<event>
 7    1  0.5138511E-013  0.5052887E+02  0.7816164E-02  0.1300439E+00
        -11   -1    0    0    0    0  0.00000000000E+00  0.00000000000E+00  0.45593999997E+02  0.45594000000E+02  0.51100000000E-03 0.  1.
         11   -1    0    0    0    0 -0.00000000000E+00 -0.00000000000E+00 -0.45593999997E+02  0.45594000000E+02  0.51100000000E-03 0. -1.
    9900012    2    1    2    0    0  0.70763555193E+01 -0.14487399338E+02 -0.37325669845E+02  0.50528866015E+02  0.30000018740E+02 0.  0.
        -12    1    1    2    0    0 -0.70763555193E+01  0.14487399338E+02  0.37325669845E+02  0.40659133985E+02  0.00000000000E+00 0.  1.
         11    1    3    3    0    0  0.24466379868E+01 -0.59447261485E+01 -0.11225995138E+02  0.12936335398E+02  0.51100000000E-03 0. -1.
        -11    1    3    3    0    0  0.86777915825E+01  0.35825337358E+01 -0.22395330298E+02  0.24283521864E+02  0.51100000000E-03 0.  1.
        -12    1    3    3    0    0 -0.40480740500E+01 -0.12125206925E+02 -0.37043444084E+01  0.13309008753E+02  0.00000000000E+00 0.  1.
</event>
<event>
 7    1  0.5138511E-013  0.5052886E+02  0.7816164E-02  0.1300439E+00
        -11   -1    0    0    0    0  0.00000000000E+00  0.00000000000E+00  0.45593999997E+02  0.45594000000E+02  0.51100000000E-03 0.  1.
         11   -1    0    0    0    0 -0.00000000000E+00 -0.00000000000E+00 -0.45593999997E+02  0.45594000000E+02  0.51100000000E-03 0. -1.
    9900012    2    1    2    0    0  0.28778406747E+02 -0.27014259323E+02 -0.97569852063E+01  0.50528860043E+02  0.30000000588E+02 0.  0.
        -12    1    1    2    0    0 -0.28778406747E+02  0.27014259323E+02  0.97569852063E+01  0.40659139957E+02  0.00000000000E+00 0.  1.
         11    1    3    3    0    0 -0.21275100646E+01 -0.11131165998E+02 -0.46501508445E+01  0.12249614634E+02  0.51100000000E-03 0. -1.
        -11    1    3    3    0    0  0.51851479981E+01  0.29353034468E+00 -0.59306712825E+01  0.78831961759E+01  0.51100000000E-03 0.  1.
        -12    1    3    3    0    0  0.25720768814E+02 -0.16176623670E+02  0.82383692067E+00  0.30396049233E+02  0.00000000000E+00 0.  1.
</event>
<event>
 7    1  0.5138511E-013  0.5052886E+02  0.7816164E-02  0.1300439E+00
        -11   -1    0    0    0    0  0.00000000000E+00  0.00000000000E+00  0.45593999997E+02  0.45594000000E+02  0.51100000000E-03 0.  1.
         11   -1    0    0    0    0 -0.00000000000E+00 -0.00000000000E+00 -0.45593999997E+02  0.45594000000E+02  0.51100000000E-03 0. -1.
    9900012    2    1    2    0    0 -0.22005607224E+02  0.22903725462E+02 -0.25383821700E+02  0.50528858427E+02  0.29999995676E+02 0.  0.
        -12    1    1    2    0    0  0.22005607224E+02 -0.22903725462E+02  0.25383821700E+02  0.40659141573E+02  0.00000000000E+00 0.  1.
         11    1    3    3    0    0 -0.19806733889E+01  0.13474019453E+02 -0.24664659391E+02  0.28174770460E+02  0.51100000000E-03 0. -1.
        -11    1    3    3    0    0 -0.34534910476E+01  0.27428820916E+01 -0.81091424476E+00  0.44841481641E+01  0.51100000000E-03 0.  1.
         12    1    3    3    0    0 -0.16571442788E+02  0.66868239169E+01  0.91751936149E-01  0.17869939804E+02  0.00000000000E+00 0. -1.
</event>
<event>
 7    1  0.5138511E-013  0.5052886E+02  0.7816164E-02  0.1300439E+00
        -11   -1    0    0    0    0  0.00000000000E+00  0.00000000000E+00  0.45593999997E+02  0.45594000000E+02  0.51100000000E-03 0.  1.
         11   -1    0    0    0    0 -0.00000000000E+00 -0.00000000000E+00 -0.45593999997E+02  0.45594000000E+02  0.51100000000E-03 0. -1.
    9900012    2    1    2    0    0  0.20504602083E+02 -0.35066656577E+02 -0.17482188734E+01  0.50528863520E+02  0.30000011155E+02 0.  0.
        -12    1    1    2    0    0 -0.20504602083E+02  0.35066656577E+02  0.17482188734E+01  0.40659136480E+02  0.00000000000E+00 0.  1.
         11    1    3    3    0    0  0.58158360658E+01 -0.12405667989E+02  0.45950726343E+01  0.14451271231E+02  0.51100000000E-03 0. -1.
        -11    1    3    3    0    0  0.27723865440E+01  0.27581261977E+01  0.45186139947E+01  0.59758898891E+01  0.51100000000E-03 0.  1.
         12    1    3    3    0    0  0.11916379473E+02 -0.25419114786E+02 -0.10861905502E+02  0.30101702400E+02  0.00000000000E+00 0. -1.
</event>
<event>
 7    1  0.5138511E-013  0.5052887E+02  0.7816164E-02  0.1300439E+00
        -11   -1    0    0    0    0  0.00000000000E+00  0.00000000000E+00  0.45593999997E+02  0.45594000000E+02  0.51100000000E-03 0.  1.
         11   -1    0    0    0    0 -0.00000000000E+00 -0.00000000000E+00 -0.45593999997E+02  0.45594000000E+02  0.51100000000E-03 0. -1.
    9900012    2    1    2    0    0 -0.76746539395E+01 -0.16853946444E+01 -0.39892659758E+02  0.50528866084E+02  0.30000018949E+02 0.  0.
        -12    1    1    2    0    0  0.76746539395E+01  0.16853946444E+01  0.39892659758E+02  0.40659133916E+02  0.00000000000E+00 0.  1.
         11    1    3    3    0    0 -0.43867717238E+01 -0.85816677313E+01 -0.20826163252E+02  0.22948155989E+02  0.51100000000E-03 0. -1.
        -11    1    3    3    0    0  0.62413717064E+01 -0.15296448281E+01 -0.30096335358E+01  0.70959445008E+01  0.51100000000E-03 0.  1.
        -12    1    3    3    0    0 -0.95292539222E+01  0.84259179151E+01 -0.16056862970E+02  0.20484765595E+02  0.00000000000E+00 0.  1.
</event>
<event>
 7    1  0.5138511E-013  0.5052889E+02  0.7816164E-02  0.1300439E+00
        -11   -1    0    0    0    0  0.00000000000E+00  0.00000000000E+00  0.45593999997E+02  0.45594000000E+02  0.51100000000E-03 0.  1.
         11   -1    0    0    0    0 -0.00000000000E+00 -0.00000000000E+00 -0.45593999997E+02  0.45594000000E+02  0.51100000000E-03 0. -1.
    9900012    2    1    2    0    0  0.32687871984E+02  0.16201661332E+01 -0.24125532803E+02  0.50528889752E+02  0.30000090891E+02 0.  0.
        -12    1    1    2    0    0 -0.32687871984E+02 -0.16201661332E+01  0.24125532803E+02  0.40659110248E+02  0.00000000000E+00 0.  1.
         11    1    3    3    0    0 -0.18354624730E+01 -0.35356962224E+01  0.12247854445E+01  0.41677535811E+01  0.51100000000E-03 0. -1.
        -11    1    3    3    0    0 -0.16087160166E+01  0.40745933044E+00 -0.34906397024E+01  0.38650428356E+01  0.51100000000E-03 0.  1.
         12    1    3    3    0    0  0.36132050473E+02  0.47484030251E+01 -0.21859678545E+02  0.42496093336E+02  0.00000000000E+00 0. -1.
</event>
<event>
 7    1  0.5138511E-013  0.5052886E+02  0.7816164E-02  0.1300439E+00
        -11   -1    0    0    0    0  0.00000000000E+00  0.00000000000E+00  0.45593999997E+02  0.45594000000E+02  0.51100000000E-03 0. -1.
         11   -1    0    0    0    0 -0.00000000000E+00 -0.00000000000E+00 -0.45593999997E+02  0.45594000000E+02  0.51100000000E-03 0.  1.
    9900012    2    1    2    0    0 -0.36472873413E+02  0.17809110762E+02 -0.23938473234E+01  0.50528862944E+02  0.30000009405E+02 0.  0.
        -12    1    1    2    0    0  0.36472873413E+02 -0.17809110762E+02  0.23938473234E+01  0.40659137056E+02  0.00000000000E+00 0.  1.
         11    1    3    3    0    0 -0.24642490020E+02  0.58439224917E+01 -0.91546536350E+01  0.26929749868E+02  0.51100000000E-03 0. -1.
        -11    1    3    3    0    0 -0.15468503190E+01 -0.30090582404E+01 -0.14292265156E+01  0.36728553058E+01  0.51100000000E-03 0.  1.
         12    1    3    3    0    0 -0.10283533073E+02  0.14974246511E+02  0.81900328271E+01  0.19926257771E+02  0.00000000000E+00 0. -1.
</event>
<event>
 7    1  0.5138511E-013  0.5052886E+02  0.7816164E-02  0.1300439E+00
        -11   -1    0    0    0    0  0.00000000000E+00  0.00000000000E+00  0.45593999997E+02  0.45594000000E+02  0.51100000000E-03 0.  1.
         11   -1    0    0    0    0 -0.00000000000E+00 -0.00000000000E+00 -0.45593999997E+02  0.45594000000E+02  0.51100000000E-03 0. -1.
    9900012    2    1    2    0    0 -0.44141020054E+01 -0.16360584541E+02 -0.36959612253E+02  0.50528856368E+02  0.29999989415E+02 0.  0.
        -12    1    1    2    0    0  0.44141020054E+01  0.16360584541E+02  0.36959612253E+02  0.40659143632E+02  0.00000000000E+00 0.  1.
         11    1    3    3    0    0  0.83458632476E+01 -0.10927273108E+02 -0.15319038744E+02  0.20584743847E+02  0.51100000000E-03 0. -1.
        -11    1    3    3    0    0 -0.67627179277E+01 -0.10131215969E+02 -0.88494113211E+01  0.15056160592E+02  0.51100000000E-03 0.  1.
         12    1    3    3    0    0 -0.59972473253E+01  0.46979045368E+01 -0.12791162188E+02  0.14887951929E+02  0.00000000000E+00 0. -1.
</event>
<event>
 7    1  0.5138511E-013  0.5052886E+02  0.7816164E-02  0.1300439E+00
        -11   -1    0    0    0    0  0.00000000000E+00  0.00000000000E+00  0.45593999997E+02  0.45594000000E+02  0.51100000000E-03 0.  1.
         11   -1    0    0    0    0 -0.00000000000E+00 -0.00000000000E+00 -0.45593999997E+02  0.45594000000E+02  0.51100000000E-03 0. -1.
    9900012    2    1    2    0    0  0.27050348936E+02  0.67141863102E+00 -0.30347874915E+02  0.50528859670E+02  0.29999999452E+02 0.  0.
        -12    1    1    2    0    0 -0.27050348936E+02 -0.67141863102E+00  0.30347874915E+02  0.40659140330E+02  0.00000000000E+00 0.  1.
         11    1    3    3    0    0  0.28429769659E+02 -0.43447238946E+00 -0.20470156536E+02  0.35035237662E+02  0.51100000000E-03 0. -1.
        -11    1    3    3    0    0  0.84408546861E+00  0.45833481006E+01  0.13619046638E+00  0.46624144168E+01  0.51100000000E-03 0.  1.
        -12    1    3    3    0    0 -0.22235061916E+01 -0.34774570801E+01 -0.10013908845E+02  0.10831207591E+02  0.00000000000E+00 0.  1.
</event>
<event>
 7    1  0.5138511E-013  0.5052886E+02  0.7816164E-02  0.1300439E+00
        -11   -1    0    0    0    0  0.00000000000E+00  0.00000000000E+00  0.45593999997E+02  0.45594000000E+02  0.51100000000E-03 0. -1.
         11   -1    0    0    0    0 -0.00000000000E+00 -0.00000000000E+00 -0.45593999997E+02  0.45594000000E+02  0.51100000000E-03 0.  1.
    9900012    2    1    2    0    0 -0.26379614990E+01  0.38408150219E+02  0.13077491747E+02  0.50528860382E+02  0.30000001616E+02 0.  0.
        -12    1    1    2    0    0  0.26379614990E+01 -0.38408150219E+02 -0.13077491747E+02  0.40659139618E+02  0.00000000000E+00 0.  1.
         11    1    3    3    0    0 -0.10761633133E+02  0.16273319663E+02 -0.16313393178E+01  0.19577919930E+02  0.51100000000E-03 0. -1.
        -11    1    3    3    0    0 -0.27422747942E+01  0.12176097046E+02  0.62829927816E+01  0.13973310591E+02  0.51100000000E-03 0.  1.
        -12    1    3    3    0    0  0.10865946429E+02  0.99587335098E+01  0.84258382833E+01  0.16977629861E+02  0.00000000000E+00 0.  1.
</event>
<event>
 7    1  0.5138511E-013  0.5052885E+02  0.7816164E-02  0.1300439E+00
        -11   -1    0    0    0    0  0.00000000000E+00  0.00000000000E+00  0.45593999997E+02  0.45594000000E+02  0.51100000000E-03 0.  1.
         11   -1    0    0    0    0 -0.00000000000E+00 -0.00000000000E+00 -0.45593999997E+02  0.45594000000E+02  0.51100000000E-03 0. -1.
    9900012    2    1    2    0    0 -0.18244943279E+02 -0.35995720650E+02 -0.49595011702E+01  0.50528849588E+02  0.29999968808E+02 0.  0.
        -12    1    1    2    0    0  0.18244943279E+02  0.35995720650E+02  0.49595011702E+01  0.40659150412E+02  0.00000000000E+00 0.  1.
         11    1    3    3    0    0  0.48980089785E+00 -0.53982453808E+01 -0.41118168506E+01  0.68035282160E+01  0.51100000000E-03 0. -1.
        -11    1    3    3    0    0 -0.11778849666E+02 -0.23273422711E+02 -0.11971044486E+02  0.28700163945E+02  0.51100000000E-03 0.  1.
         12    1    3    3    0    0 -0.69558945115E+01 -0.73240525585E+01  0.11123360166E+02  0.15025157427E+02  0.00000000000E+00 0. -1.
</event>
<event>
 7    1  0.5138511E-013  0.5052885E+02  0.7816164E-02  0.1300439E+00
        -11   -1    0    0    0    0  0.00000000000E+00  0.00000000000E+00  0.45593999997E+02  0.45594000000E+02  0.51100000000E-03 0.  1.
         11   -1    0    0    0    0 -0.00000000000E+00 -0.00000000000E+00 -0.45593999997E+02  0.45594000000E+02  0.51100000000E-03 0. -1.
    9900012    2    1    2    0    0  0.22879539053E+02 -0.18178627810E+02 -0.28270674596E+02  0.50528845331E+02  0.29999955867E+02 0.  0.
        -12    1    1    2    0    0 -0.22879539053E+02  0.18178627810E+02  0.28270674596E+02  0.40659154669E+02  0.00000000000E+00 0.  1.
         11    1    3    3    0    0  0.67608538009E+01 -0.12774117976E+02 -0.24405911031E+02  0.28364339014E+02  0.51100000000E-03 0. -1.
        -11    1    3    3    0    0  0.11437995580E+02 -0.16878339520E+01 -0.87058650872E+01  0.14473030558E+02  0.51100000000E-03 0.  1.
        -12    1    3    3    0    0  0.46806896714E+01 -0.37166758822E+01  0.48411015219E+01  0.76914757595E+01  0.00000000000E+00 0.  1.
</event>
<event>
 7    1  0.5138511E-013  0.5052887E+02  0.7816164E-02  0.1300439E+00
        -11   -1    0    0    0    0  0.00000000000E+00  0.00000000000E+00  0.45593999997E+02  0.45594000000E+02  0.51100000000E-03 0.  1.
         11   -1    0    0    0    0 -0.00000000000E+00 -0.00000000000E+00 -0.45593999997E+02  0.45594000000E+02  0.51100000000E-03 0. -1.
    9900012    2    1    2    0    0  0.16432422997E+02 -0.80893446883E+01 -0.36300181222E+02  0.50528865973E+02  0.30000018613E+02 0.  0.
        -12    1    1    2    0    0 -0.16432422997E+02  0.80893446883E+01  0.36300181222E+02  0.40659134027E+02  0.00000000000E+00 0.  1.
         11    1    3    3    0    0  0.31279604803E+01 -0.31807738741E+01 -0.84175309679E+01  0.95266094211E+01  0.51100000000E-03 0. -1.
        -11    1    3    3    0    0  0.18119897812E+02  0.42506155400E+01 -0.12343605316E+02  0.22333002969E+02  0.51100000000E-03 0.  1.
        -12    1    3    3    0    0 -0.48154352954E+01 -0.91591863542E+01 -0.15539044938E+02  0.18669253583E+02  0.00000000000E+00 0.  1.
</event>
<event>
 7    1  0.5138511E-013  0.5052887E+02  0.7816164E-02  0.1300439E+00
        -11   -1    0    0    0    0  0.00000000000E+00  0.00000000000E+00  0.45593999997E+02  0.45594000000E+02  0.51100000000E-03 0.  1.
         11   -1    0    0    0    0 -0.00000000000E+00 -0.00000000000E+00 -0.45593999997E+02  0.45594000000E+02  0.51100000000E-03 0. -1.
    9900012    2    1    2    0    0  0.39465524743E+02  0.87427865576E+01 -0.43818995166E+01  0.50528868142E+02  0.30000025205E+02 0.  0.
        -12    1    1    2    0    0 -0.39465524743E+02 -0.87427865576E+01  0.43818995166E+01  0.40659131858E+02  0.00000000000E+00 0.  1.
         11    1    3    3    0    0  0.23263985416E+01  0.49537727036E+01 -0.95677234965E+01  0.11022401160E+02  0.51100000000E-03 0.  1.
        -11    1    3    3    0    0  0.99633811591E+01  0.23423250442E+01  0.67284249854E+01  0.12248557212E+02  0.51100000000E-03 0. -1.
         12    1    3    3    0    0  0.27175745043E+02  0.14466888098E+01 -0.15426010056E+01  0.27257909769E+02  0.00000000000E+00 0. -1.
</event>
<event>
 7    1  0.5138511E-013  0.5052886E+02  0.7816164E-02  0.1300439E+00
        -11   -1    0    0    0    0  0.00000000000E+00  0.00000000000E+00  0.45593999997E+02  0.45594000000E+02  0.51100000000E-03 0.  1.
         11   -1    0    0    0    0 -0.00000000000E+00 -0.00000000000E+00 -0.45593999997E+02  0.45594000000E+02  0.51100000000E-03 0. -1.
    9900012    2    1    2    0    0  0.16341296954E+01  0.23989047111E+02 -0.32787513833E+02  0.50528858045E+02  0.29999994513E+02 0.  0.
        -12    1    1    2    0    0 -0.16341296954E+01 -0.23989047111E+02  0.32787513833E+02  0.40659141955E+02  0.00000000000E+00 0.  1.
         11    1    3    3    0    0 -0.29851981431E+01  0.45231883770E+01 -0.24577902515E+02  0.25168312088E+02  0.51100000000E-03 0. -1.
        -11    1    3    3    0    0  0.17649385945E+01 -0.18095598735E+01 -0.94305083249E+00  0.26979363061E+01  0.51100000000E-03 0.  1.
        -12    1    3    3    0    0  0.28543892440E+01  0.21275418608E+02 -0.72665604852E+01  0.22662609651E+02  0.00000000000E+00 0.  1.
</event>
<event>
 7    1  0.5138511E-013  0.5052887E+02  0.7816164E-02  0.1300439E+00
        -11   -1    0    0    0    0  0.00000000000E+00  0.00000000000E+00  0.45593999997E+02  0.45594000000E+02  0.51100000000E-03 0. -1.
         11   -1    0    0    0    0 -0.00000000000E+00 -0.00000000000E+00 -0.45593999997E+02  0.45594000000E+02  0.51100000000E-03 0.  1.
    9900012    2    1    2    0    0  0.72638395000E+01 -0.55046453548E+01  0.39624493197E+02  0.50528868850E+02  0.30000027356E+02 0.  0.
        -12    1    1    2    0    0 -0.72638395000E+01  0.55046453548E+01 -0.39624493197E+02  0.40659131150E+02  0.00000000000E+00 0.  1.
         11    1    3    3    0    0  0.65706966270E+01  0.81711493503E+01  0.21186612869E+02  0.23639253393E+02  0.51100000000E-03 0. -1.
        -11    1    3    3    0    0  0.34165434610E+01 -0.49849193832E+01  0.16508509753E+02  0.17579905717E+02  0.51100000000E-03 0.  1.
        -12    1    3    3    0    0 -0.27234005880E+01 -0.86908753219E+01  0.19293705744E+01  0.93097097397E+01  0.00000000000E+00 0.  1.
</event>
<event>
 7    1  0.5138511E-013  0.5052886E+02  0.7816164E-02  0.1300439E+00
        -11   -1    0    0    0    0  0.00000000000E+00  0.00000000000E+00  0.45593999997E+02  0.45594000000E+02  0.51100000000E-03 0.  1.
         11   -1    0    0    0    0 -0.00000000000E+00 -0.00000000000E+00 -0.45593999997E+02  0.45594000000E+02  0.51100000000E-03 0. -1.
    9900012    2    1    2    0    0  0.74722159057E+01  0.38654141544E+02 -0.10158211995E+02  0.50528856625E+02  0.29999990198E+02 0.  0.
        -12    1    1    2    0    0 -0.74722159057E+01 -0.38654141544E+02  0.10158211995E+02  0.40659143375E+02  0.00000000000E+00 0.  1.
         11    1    3    3    0    0  0.78041900949E+01  0.11258083611E+02 -0.65315727879E+01  0.15176009784E+02  0.51100000000E-03 0. -1.
        -11    1    3    3    0    0  0.13586133969E+01 -0.20657919389E+01 -0.52446088340E+01  0.57982108258E+01  0.51100000000E-03 0.  1.
         12    1    3    3    0    0 -0.16905875862E+01  0.29461849872E+02  0.16179696266E+01  0.29554636015E+02  0.00000000000E+00 0. -1.
</event>
<event>
 7    1  0.5138511E-013  0.5052886E+02  0.7816164E-02  0.1300439E+00
        -11   -1    0    0    0    0  0.00000000000E+00  0.00000000000E+00  0.45593999997E+02  0.45594000000E+02  0.51100000000E-03 0.  1.
         11   -1    0    0    0    0 -0.00000000000E+00 -0.00000000000E+00 -0.45593999997E+02  0.45594000000E+02  0.51100000000E-03 0. -1.
    9900012    2    1    2    0    0  0.17776812089E+02 -0.22526405416E+02 -0.28804718012E+02  0.50528858731E+02  0.29999996599E+02 0.  0.
        -12    1    1    2    0    0 -0.17776812089E+02  0.22526405416E+02  0.28804718012E+02  0.40659141269E+02  0.00000000000E+00 0.  1.
         11    1    3    3    0    0 -0.24514954725E+01 -0.85562443236E+01 -0.96546382564E+01  0.13131305613E+02  0.51100000000E-03 0. -1.
        -11    1    3    3    0    0  0.16077440824E+02 -0.17488986038E+02 -0.81326631589E+01  0.25109538953E+02  0.51100000000E-03 0.  1.
         12    1    3    3    0    0  0.41508667368E+01  0.35188249458E+01 -0.11017416597E+02  0.12288014165E+02  0.00000000000E+00 0. -1.
</event>
<event>
 7    1  0.5138511E-013  0.5052885E+02  0.7816164E-02  0.1300439E+00
        -11   -1    0    0    0    0  0.00000000000E+00  0.00000000000E+00  0.45593999997E+02  0.45594000000E+02  0.51100000000E-03 0.  1.
         11   -1    0    0    0    0 -0.00000000000E+00 -0.00000000000E+00 -0.45593999997E+02  0.45594000000E+02  0.51100000000E-03 0. -1.
    9900012    2    1    2    0    0 -0.23028105864E+02  0.10023545631E+02 -0.31975007686E+02  0.50528852897E+02  0.29999978865E+02 0.  0.
        -12    1    1    2    0    0  0.23028105864E+02 -0.10023545631E+02  0.31975007686E+02  0.40659147103E+02  0.00000000000E+00 0.  1.
         11    1    3    3    0    0 -0.19944372686E+02  0.41418200770E+01 -0.20268270057E+02  0.28735612865E+02  0.51100000000E-03 0. -1.
        -11    1    3    3    0    0 -0.41204964065E+01 -0.51903686088E+01 -0.72237355138E+01  0.98031001201E+01  0.51100000000E-03 0.  1.
        -12    1    3    3    0    0  0.10367632283E+01  0.11072094162E+02 -0.44830021144E+01  0.11990139911E+02  0.00000000000E+00 0.  1.
</event>
<event>
 7    1  0.5138511E-013  0.5052889E+02  0.7816164E-02  0.1300439E+00
        -11   -1    0    0    0    0  0.00000000000E+00  0.00000000000E+00  0.45593999997E+02  0.45594000000E+02  0.51100000000E-03 0. -1.
         11   -1    0    0    0    0 -0.00000000000E+00 -0.00000000000E+00 -0.45593999997E+02  0.45594000000E+02  0.51100000000E-03 0.  1.
    9900012    2    1    2    0    0  0.35653315739E+02  0.40474808403E+01  0.19121247786E+02  0.50528891042E+02  0.30000094811E+02 0.  0.
        -12    1    1    2    0    0 -0.35653315739E+02 -0.40474808403E+01 -0.19121247786E+02  0.40659108958E+02  0.00000000000E+00 0.  1.
         11    1    3    3    0    0  0.15494605568E+02  0.50968497176E+01  0.20945983920E+02  0.26547973960E+02  0.51100000000E-03 0. -1.
        -11    1    3    3    0    0  0.20887080291E+02  0.77097064790E+00  0.54101659572E+00  0.20908305002E+02  0.51100000000E-03 0.  1.
        -12    1    3    3    0    0 -0.72837012006E+00 -0.18203395252E+01 -0.23657527293E+01  0.30726120801E+01  0.00000000000E+00 0.  1.
</event>
<event>
 7    1  0.5138511E-013  0.5052886E+02  0.7816164E-02  0.1300439E+00
        -11   -1    0    0    0    0  0.00000000000E+00  0.00000000000E+00  0.45593999997E+02  0.45594000000E+02  0.51100000000E-03 0.  1.
         11   -1    0    0    0    0 -0.00000000000E+00 -0.00000000000E+00 -0.45593999997E+02  0.45594000000E+02  0.51100000000E-03 0. -1.
    9900012    2    1    2    0    0  0.24750974855E+02 -0.29051012821E+02 -0.14021181422E+02  0.50528860429E+02  0.30000001759E+02 0.  0.
        -12    1    1    2    0    0 -0.24750974855E+02  0.29051012821E+02  0.14021181422E+02  0.40659139571E+02  0.00000000000E+00 0.  1.
         11    1    3    3    0    0  0.17003943729E+01 -0.13867783482E+02  0.59794735892E+00  0.13984430665E+02  0.51100000000E-03 0. -1.
        -11    1    3    3    0    0  0.17214073958E+02 -0.59892326306E+00 -0.43119575587E+01  0.17756013898E+02  0.51100000000E-03 0.  1.
         12    1    3    3    0    0  0.58365065243E+01 -0.14584306076E+02 -0.10307171222E+02  0.18788415866E+02  0.00000000000E+00 0. -1.
</event>
<event>
 7    1  0.5138511E-013  0.5052886E+02  0.7816164E-02  0.1300439E+00
        -11   -1    0    0    0    0  0.00000000000E+00  0.00000000000E+00  0.45593999997E+02  0.45594000000E+02  0.51100000000E-03 0. -1.
         11   -1    0    0    0    0 -0.00000000000E+00 -0.00000000000E+00 -0.45593999997E+02  0.45594000000E+02  0.51100000000E-03 0.  1.
    9900012    2    1    2    0    0  0.26298708785E+02  0.30139987605E+02 -0.72886531547E+01  0.50528863248E+02  0.30000010329E+02 0.  0.
        -12    1    1    2    0    0 -0.26298708785E+02 -0.30139987605E+02  0.72886531547E+01  0.40659136752E+02  0.00000000000E+00 0.  1.
         11    1    3    3    0    0  0.14732164936E+02  0.12215244193E+02  0.64346742780E+01  0.20190440998E+02  0.51100000000E-03 0. -1.
        -11    1    3    3    0    0  0.10860347297E+02  0.22380598084E+01 -0.36121756104E+01  0.11662069629E+02  0.51100000000E-03 0.  1.
        -12    1    3    3    0    0  0.70619655185E+00  0.15686683604E+02 -0.10111151822E+02  0.18676352621E+02  0.00000000000E+00 0.  1.
</event>
<event>
 7    1  0.5138511E-013  0.5052883E+02  0.7816164E-02  0.1300439E+00
        -11   -1    0    0    0    0  0.00000000000E+00  0.00000000000E+00  0.45593999997E+02  0.45594000000E+02  0.51100000000E-03 0. -1.
         11   -1    0    0    0    0 -0.00000000000E+00 -0.00000000000E+00 -0.45593999997E+02  0.45594000000E+02  0.51100000000E-03 0.  1.
    9900012    2    1    2    0    0  0.26400427508E+02  0.29970671854E+02  0.76121346998E+01  0.50528827127E+02  0.29999900535E+02 0.  0.
        -12    1    1    2    0    0 -0.26400427508E+02 -0.29970671854E+02 -0.76121346998E+01  0.40659172873E+02  0.00000000000E+00 0.  1.
         11    1    3    3    0    0  0.78003086047E+01  0.16580720516E+00 -0.43412170507E+00  0.78141389976E+01  0.51100000000E-03 0. -1.
        -11    1    3    3    0    0  0.33636551178E+01  0.24395511028E+02 -0.63952668226E-01  0.24626392839E+02  0.51100000000E-03 0.  1.
         12    1    3    3    0    0  0.15236463786E+02  0.54093536212E+01  0.81102090731E+01  0.18088295290E+02  0.00000000000E+00 0. -1.
</event>
<event>
 7    1  0.5138511E-013  0.5052886E+02  0.7816164E-02  0.1300439E+00
        -11   -1    0    0    0    0  0.00000000000E+00  0.00000000000E+00  0.45593999997E+02  0.45594000000E+02  0.51100000000E-03 0.  1.
         11   -1    0    0    0    0 -0.00000000000E+00 -0.00000000000E+00 -0.45593999997E+02  0.45594000000E+02  0.51100000000E-03 0. -1.
    9900012    2    1    2    0    0  0.23314435713E+02 -0.29066237920E+00 -0.33309435326E+02  0.50528857376E+02  0.29999992479E+02 0.  0.
        -12    1    1    2    0    0 -0.23314435713E+02  0.29066237920E+00  0.33309435326E+02  0.40659142624E+02  0.00000000000E+00 0.  1.
         11    1    3    3    0    0 -0.29017693798E+01  0.31220774263E+01 -0.11164332671E+02  0.11950312014E+02  0.51100000000E-03 0. -1.
        -11    1    3    3    0    0  0.13370944162E+02  0.67316885400E+01 -0.13014073631E+02  0.19835924257E+02  0.51100000000E-03 0.  1.
         12    1    3    3    0    0  0.12845260931E+02 -0.10144428346E+02 -0.91310290237E+01  0.18742621105E+02  0.00000000000E+00 0. -1.
</event>
<event>
 7    1  0.5138511E-013  0.5052886E+02  0.7816164E-02  0.1300439E+00
        -11   -1    0    0    0    0  0.00000000000E+00  0.00000000000E+00  0.45593999997E+02  0.45594000000E+02  0.51100000000E-03 0.  1.
         11   -1    0    0    0    0 -0.00000000000E+00 -0.00000000000E+00 -0.45593999997E+02  0.45594000000E+02  0.51100000000E-03 0. -1.
    9900012    2    1    2    0    0 -0.24935157975E+01 -0.36194996905E+02 -0.18354033911E+02  0.50528856099E+02  0.29999988598E+02 0.  0.
        -12    1    1    2    0    0  0.24935157975E+01  0.36194996905E+02  0.18354033911E+02  0.40659143901E+02  0.00000000000E+00 0.  1.
         11    1    3    3    0    0 -0.55275894847E+01 -0.16277411798E+02 -0.12544544356E+02  0.21280835832E+02  0.51100000000E-03 0. -1.
        -11    1    3    3    0    0  0.57445212750E+00 -0.14251008552E+01 -0.10008662421E+02  0.10125918793E+02  0.51100000000E-03 0.  1.
        -12    1    3    3    0    0  0.24596215597E+01 -0.18492484252E+02  0.41991728653E+01  0.19122101474E+02  0.00000000000E+00 0.  1.
</event>
<event>
 7    1  0.7794947E-013  0.5052886E+02  0.7816164E-02  0.1300439E+00
        -11   -1    0    0    0    0  0.00000000000E+00  0.00000000000E+00  0.45593999997E+02  0.45594000000E+02  0.51100000000E-03 0.  1.
         11   -1    0    0    0    0 -0.00000000000E+00 -0.00000000000E+00 -0.45593999997E+02  0.45594000000E+02  0.51100000000E-03 0. -1.
    9900012    2    1    2    0    0 -0.38477324321E+02 -0.48295169049E+01  0.12220346519E+02  0.50528860935E+02  0.30000003299E+02 0.  0.
        -12    1    1    2    0    0  0.38477324321E+02  0.48295169049E+01 -0.12220346519E+02  0.40659139065E+02  0.00000000000E+00 0.  1.
         11    1    3    3    0    0 -0.21945440095E+02  0.94089335960E+00  0.13098761124E+02  0.25574697741E+02  0.51100000000E-03 0. -1.
        -11    1    3    3    0    0 -0.59369401724E+01  0.61303988406E+01  0.19934924513E+01  0.87637355603E+01  0.51100000000E-03 0.  1.
        -12    1    3    3    0    0 -0.10594944053E+02 -0.11900809105E+02 -0.28719070560E+01  0.16190427634E+02  0.00000000000E+00 0.  1.
</event>
<event>
 7    1  0.5138511E-013  0.5052886E+02  0.7816164E-02  0.1300439E+00
        -11   -1    0    0    0    0  0.00000000000E+00  0.00000000000E+00  0.45593999997E+02  0.45594000000E+02  0.51100000000E-03 0.  1.
         11   -1    0    0    0    0 -0.00000000000E+00 -0.00000000000E+00 -0.45593999997E+02  0.45594000000E+02  0.51100000000E-03 0. -1.
    9900012    2    1    2    0    0  0.12268897153E+02  0.37692571645E+02  0.90504037474E+01  0.50528860775E+02  0.30000002811E+02 0.  0.
        -12    1    1    2    0    0 -0.12268897153E+02 -0.37692571645E+02 -0.90504037474E+01  0.40659139225E+02  0.00000000000E+00 0.  1.
         11    1    3    3    0    0 -0.65226812891E+00  0.56502041330E+01  0.93529483066E+01  0.10946593203E+02  0.51100000000E-03 0.  1.
        -11    1    3    3    0    0  0.66486825235E+01  0.58733213030E+01  0.74422989073E+01  0.11579667340E+02  0.51100000000E-03 0. -1.
         12    1    3    3    0    0  0.62724827587E+01  0.26169046209E+02 -0.77448434665E+01  0.28002600232E+02  0.00000000000E+00 0. -1.
</event>
<event>
 7    1  0.5138511E-013  0.5052884E+02  0.7816164E-02  0.1300439E+00
        -11   -1    0    0    0    0  0.00000000000E+00  0.00000000000E+00  0.45593999997E+02  0.45594000000E+02  0.51100000000E-03 0.  1.
         11   -1    0    0    0    0 -0.00000000000E+00 -0.00000000000E+00 -0.45593999997E+02  0.45594000000E+02  0.51100000000E-03 0. -1.
    9900012    2    1    2    0    0 -0.10110656973E+02  0.35690151417E+02 -0.16647961663E+02  0.50528844571E+02  0.29999953559E+02 0.  0.
        -12    1    1    2    0    0  0.10110656973E+02 -0.35690151417E+02  0.16647961663E+02  0.40659155429E+02  0.00000000000E+00 0.  1.
         11    1    3    3    0    0 -0.91535112929E+01  0.10108807803E+02 -0.10439338733E+02  0.17174241108E+02  0.51100000000E-03 0. -1.
        -11    1    3    3    0    0 -0.13083397838E+01 -0.30700835043E+01 -0.30613612620E+01  0.45286972466E+01  0.51100000000E-03 0.  1.
         12    1    3    3    0    0  0.35119410371E+00  0.28651427118E+02 -0.31472616684E+01  0.28825906217E+02  0.00000000000E+00 0. -1.
</event>
<event>
 7    1  0.5138511E-013  0.5052886E+02  0.7816164E-02  0.1300439E+00
        -11   -1    0    0    0    0  0.00000000000E+00  0.00000000000E+00  0.45593999997E+02  0.45594000000E+02  0.51100000000E-03 0. -1.
         11   -1    0    0    0    0 -0.00000000000E+00 -0.00000000000E+00 -0.45593999997E+02  0.45594000000E+02  0.51100000000E-03 0.  1.
    9900012    2    1    2    0    0  0.24445556334E+02 -0.16426560909E+02  0.28031203097E+02  0.50528862345E+02  0.30000007585E+02 0.  0.
        -12    1    1    2    0    0 -0.24445556334E+02  0.16426560909E+02 -0.28031203097E+02  0.40659137655E+02  0.00000000000E+00 0.  1.
         11    1    3    3    0    0  0.65591127899E+01 -0.72509344207E+01  0.11496836545E+02  0.15092225196E+02  0.51100000000E-03 0. -1.
        -11    1    3    3    0    0  0.18079790890E+02  0.23998163295E+01  0.15277423462E+02  0.23791545241E+02  0.51100000000E-03 0.  1.
         12    1    3    3    0    0 -0.19334734671E+00 -0.11575442818E+02  0.12569430895E+01  0.11645091908E+02  0.00000000000E+00 0. -1.
</event>
<event>
 7    1  0.5138511E-013  0.5052886E+02  0.7816164E-02  0.1300439E+00
        -11   -1    0    0    0    0  0.00000000000E+00  0.00000000000E+00  0.45593999997E+02  0.45594000000E+02  0.51100000000E-03 0. -1.
         11   -1    0    0    0    0 -0.00000000000E+00 -0.00000000000E+00 -0.45593999997E+02  0.45594000000E+02  0.51100000000E-03 0.  1.
    9900012    2    1    2    0    0 -0.15820569733E+02  0.21280960846E+02  0.30822010434E+02  0.50528855292E+02  0.29999986146E+02 0.  0.
        -12    1    1    2    0    0  0.15820569733E+02 -0.21280960846E+02 -0.30822010434E+02  0.40659144708E+02  0.00000000000E+00 0.  1.
         11    1    3    3    0    0 -0.84393049917E+00  0.26026171560E+01  0.11694320498E+02  0.12010119355E+02  0.51100000000E-03 0. -1.
        -11    1    3    3    0    0  0.22715146578E+01  0.12140555120E+02  0.58670112150E+00  0.12365155718E+02  0.51100000000E-03 0.  1.
        -12    1    3    3    0    0 -0.17248153892E+02  0.65377885700E+01  0.18540988814E+02  0.26153580219E+02  0.00000000000E+00 0.  1.
</event>
<event>
 7    1  0.5138511E-013  0.5052887E+02  0.7816164E-02  0.1300439E+00
        -11   -1    0    0    0    0  0.00000000000E+00  0.00000000000E+00  0.45593999997E+02  0.45594000000E+02  0.51100000000E-03 0. -1.
         11   -1    0    0    0    0 -0.00000000000E+00 -0.00000000000E+00 -0.45593999997E+02  0.45594000000E+02  0.51100000000E-03 0.  1.
    9900012    2    1    2    0    0 -0.16073526885E+02  0.23598894032E+02  0.28946479134E+02  0.50528871624E+02  0.30000035787E+02 0.  0.
        -12    1    1    2    0    0  0.16073526885E+02 -0.23598894032E+02 -0.28946479134E+02  0.40659128376E+02  0.00000000000E+00 0.  1.
         11    1    3    3    0    0 -0.16047366915E+02  0.19883174207E+02  0.28471684559E+02  0.38255658710E+02  0.51100000000E-03 0.  1.
        -11    1    3    3    0    0  0.27005360465E+01  0.18648514601E+01  0.54166534635E+01  0.63333009490E+01  0.51100000000E-03 0. -1.
        -12    1    3    3    0    0 -0.27266960170E+01  0.18508683651E+01 -0.49418588886E+01  0.59399119647E+01  0.00000000000E+00 0.  1.
</event>
<event>
 7    1  0.5138511E-013  0.5052884E+02  0.7816164E-02  0.1300439E+00
        -11   -1    0    0    0    0  0.00000000000E+00  0.00000000000E+00  0.45593999997E+02  0.45594000000E+02  0.51100000000E-03 0. -1.
         11   -1    0    0    0    0 -0.00000000000E+00 -0.00000000000E+00 -0.45593999997E+02  0.45594000000E+02  0.51100000000E-03 0.  1.
    9900012    2    1    2    0    0 -0.24974219005E+02 -0.25954157562E+02  0.18863661413E+02  0.50528835823E+02  0.29999926968E+02 0.  0.
        -12    1    1    2    0    0  0.24974219005E+02  0.25954157562E+02 -0.18863661413E+02  0.40659164177E+02  0.00000000000E+00 0.  1.
         11    1    3    3    0    0 -0.79400502316E+01 -0.15068275218E+02 -0.23892047780E+01  0.17199000421E+02  0.51100000000E-03 0.  1.
        -11    1    3    3    0    0 -0.24579524595E+01 -0.74811635607E+01  0.70244351047E+00  0.79058690643E+01  0.51100000000E-03 0. -1.
        -12    1    3    3    0    0 -0.14576216313E+02 -0.34047187832E+01  0.20550422681E+02  0.25423966338E+02  0.00000000000E+00 0.  1.
</event>
<event>
 7    1  0.5138511E-013  0.5052886E+02  0.7816164E-02  0.1300439E+00
        -11   -1    0    0    0    0  0.00000000000E+00  0.00000000000E+00  0.45593999997E+02  0.45594000000E+02  0.51100000000E-03 0.  1.
         11   -1    0    0    0    0 -0.00000000000E+00 -0.00000000000E+00 -0.45593999997E+02  0.45594000000E+02  0.51100000000E-03 0. -1.
    9900012    2    1    2    0    0  0.21083352252E+02  0.23738935117E+02 -0.25399231699E+02  0.50528858918E+02  0.29999997167E+02 0.  0.
        -12    1    1    2    0    0 -0.21083352252E+02 -0.23738935117E+02  0.25399231699E+02  0.40659141082E+02  0.00000000000E+00 0.  1.
         11    1    3    3    0    0  0.10771121358E+02  0.16147887726E+02 -0.18927983558E+02  0.27111619191E+02  0.51100000000E-03 0. -1.
        -11    1    3    3    0    0  0.87783236411E+01  0.11399345135E+02  0.14850787448E+01  0.14464076002E+02  0.51100000000E-03 0.  1.
        -12    1    3    3    0    0  0.15339072526E+01 -0.38082977448E+01 -0.79563268850E+01  0.89531637242E+01  0.00000000000E+00 0.  1.
</event>
<event>
 7    1  0.5138511E-013  0.5052885E+02  0.7816164E-02  0.1300439E+00
        -11   -1    0    0    0    0  0.00000000000E+00  0.00000000000E+00  0.45593999997E+02  0.45594000000E+02  0.51100000000E-03 0.  1.
         11   -1    0    0    0    0 -0.00000000000E+00 -0.00000000000E+00 -0.45593999997E+02  0.45594000000E+02  0.51100000000E-03 0. -1.
    9900012    2    1    2    0    0  0.33271370062E+02 -0.58469535764E+01 -0.22627311261E+02  0.50528854082E+02  0.29999982466E+02 0.  0.
        -12    1    1    2    0    0 -0.33271370062E+02  0.58469535764E+01  0.22627311261E+02  0.40659145918E+02  0.00000000000E+00 0.  1.
         11    1    3    3    0    0 -0.20473275587E+01 -0.35623892336E+01 -0.58351661194E+01  0.71366190235E+01  0.51100000000E-03 0. -1.
        -11    1    3    3    0    0  0.21648961725E+02  0.66879058587E+01 -0.14450141278E+02  0.26874006247E+02  0.51100000000E-03 0.  1.
         12    1    3    3    0    0  0.13669735895E+02 -0.89724702014E+01 -0.23420038642E+01  0.16518228811E+02  0.00000000000E+00 0. -1.
</event>
<event>
 7    1  0.5138511E-013  0.5052886E+02  0.7816164E-02  0.1300439E+00
        -11   -1    0    0    0    0  0.00000000000E+00  0.00000000000E+00  0.45593999997E+02  0.45594000000E+02  0.51100000000E-03 0. -1.
         11   -1    0    0    0    0 -0.00000000000E+00 -0.00000000000E+00 -0.45593999997E+02  0.45594000000E+02  0.51100000000E-03 0.  1.
    9900012    2    1    2    0    0  0.23004389380E+02  0.31648894677E+02  0.11059433600E+02  0.50528861586E+02  0.30000005277E+02 0.  0.
        -12    1    1    2    0    0 -0.23004389380E+02 -0.31648894677E+02 -0.11059433600E+02  0.40659138414E+02  0.00000000000E+00 0.  1.
         11    1    3    3    0    0  0.12183832506E+02  0.11607297377E+02 -0.33467399884E+01  0.17157383126E+02  0.51100000000E-03 0. -1.
        -11    1    3    3    0    0 -0.24954430778E+01  0.15238268962E+02  0.44656252047E+01  0.16074012749E+02  0.51100000000E-03 0.  1.
         12    1    3    3    0    0  0.13315999952E+02  0.48033283366E+01  0.99405483838E+01  0.17297465711E+02  0.00000000000E+00 0. -1.
</event>
<event>
 7    1  0.5138511E-013  0.5052886E+02  0.7816164E-02  0.1300439E+00
        -11   -1    0    0    0    0  0.00000000000E+00  0.00000000000E+00  0.45593999997E+02  0.45594000000E+02  0.51100000000E-03 0.  1.
         11   -1    0    0    0    0 -0.00000000000E+00 -0.00000000000E+00 -0.45593999997E+02  0.45594000000E+02  0.51100000000E-03 0. -1.
    9900012    2    1    2    0    0  0.91778545318E+01 -0.94747842916E+01 -0.38459860115E+02  0.50528863373E+02  0.30000010709E+02 0.  0.
        -12    1    1    2    0    0 -0.91778545318E+01  0.94747842916E+01  0.38459860115E+02  0.40659136627E+02  0.00000000000E+00 0.  1.
         11    1    3    3    0    0 -0.29014036130E+01 -0.84646097231E+01  0.49080546606E+00  0.89615094129E+01  0.51100000000E-03 0. -1.
        -11    1    3    3    0    0  0.22781286705E+01  0.15672091703E+01 -0.18898538960E+02  0.19099758897E+02  0.51100000000E-03 0.  1.
        -12    1    3    3    0    0  0.98011294743E+01 -0.25773837388E+01 -0.20052126621E+02  0.22467595064E+02  0.00000000000E+00 0.  1.
</event>
<event>
 7    1  0.5138511E-013  0.5052886E+02  0.7816164E-02  0.1300439E+00
        -11   -1    0    0    0    0  0.00000000000E+00  0.00000000000E+00  0.45593999997E+02  0.45594000000E+02  0.51100000000E-03 0.  1.
         11   -1    0    0    0    0 -0.00000000000E+00 -0.00000000000E+00 -0.45593999997E+02  0.45594000000E+02  0.51100000000E-03 0. -1.
    9900012    2    1    2    0    0 -0.12028770580E+02 -0.21000706856E+02 -0.32671775360E+02  0.50528856929E+02  0.29999991120E+02 0.  0.
        -12    1    1    2    0    0  0.12028770580E+02  0.21000706856E+02  0.32671775360E+02  0.40659143071E+02  0.00000000000E+00 0.  1.
         11    1    3    3    0    0 -0.92106284648E+01 -0.83622553608E+01 -0.16652843292E+02  0.20786538466E+02  0.51100000000E-03 0. -1.
        -11    1    3    3    0    0 -0.92656371819E+01 -0.14869669529E+02 -0.81368187640E+01  0.19317528935E+02  0.51100000000E-03 0.  1.
         12    1    3    3    0    0  0.64474950671E+01  0.22312180339E+01 -0.78821133042E+01  0.10424789528E+02  0.00000000000E+00 0. -1.
</event>
<event>
 7    1  0.5138511E-013  0.5052885E+02  0.7816164E-02  0.1300439E+00
        -11   -1    0    0    0    0  0.00000000000E+00  0.00000000000E+00  0.45593999997E+02  0.45594000000E+02  0.51100000000E-03 0.  1.
         11   -1    0    0    0    0 -0.00000000000E+00 -0.00000000000E+00 -0.45593999997E+02  0.45594000000E+02  0.51100000000E-03 0. -1.
    9900012    2    1    2    0    0  0.58496023104E+00  0.15983094213E+02 -0.37381340589E+02  0.50528854616E+02  0.29999984092E+02 0.  0.
        -12    1    1    2    0    0 -0.58496023104E+00 -0.15983094213E+02  0.37381340589E+02  0.40659145384E+02  0.00000000000E+00 0.  1.
         11    1    3    3    0    0 -0.74962727896E+01  0.26372544514E+01 -0.23486095246E+01  0.82864457844E+01  0.51100000000E-03 0. -1.
        -11    1    3    3    0    0 -0.31180564060E+01  0.11284000281E+02 -0.13385183118E+02  0.17782408877E+02  0.51100000000E-03 0.  1.
        -12    1    3    3    0    0  0.11199289427E+02  0.20618394803E+01 -0.21647547946E+02  0.24459999955E+02  0.00000000000E+00 0.  1.
</event>
<event>
 7    1  0.5138511E-013  0.5052886E+02  0.7816164E-02  0.1300439E+00
        -11   -1    0    0    0    0  0.00000000000E+00  0.00000000000E+00  0.45593999997E+02  0.45594000000E+02  0.51100000000E-03 0.  1.
         11   -1    0    0    0    0 -0.00000000000E+00 -0.00000000000E+00 -0.45593999997E+02  0.45594000000E+02  0.51100000000E-03 0. -1.
    9900012    2    1    2    0    0 -0.25280018307E+02  0.74355364414E+01 -0.30964478567E+02  0.50528862519E+02  0.30000008112E+02 0.  0.
        -12    1    1    2    0    0  0.25280018307E+02 -0.74355364414E+01  0.30964478567E+02  0.40659137481E+02  0.00000000000E+00 0.  1.
         11    1    3    3    0    0 -0.74383435733E+01  0.32747937354E+01 -0.96728807703E+01  0.12633995875E+02  0.51100000000E-03 0. -1.
        -11    1    3    3    0    0 -0.49806484657E+01  0.12333485555E+02 -0.22230847904E+01  0.13485689872E+02  0.51100000000E-03 0.  1.
         12    1    3    3    0    0 -0.12861026268E+02 -0.81727428493E+01 -0.19068513007E+02  0.24409176771E+02  0.00000000000E+00 0. -1.
</event>
<event>
 7    1  0.5138511E-013  0.5052886E+02  0.7816164E-02  0.1300439E+00
        -11   -1    0    0    0    0  0.00000000000E+00  0.00000000000E+00  0.45593999997E+02  0.45594000000E+02  0.51100000000E-03 0.  1.
         11   -1    0    0    0    0 -0.00000000000E+00 -0.00000000000E+00 -0.45593999997E+02  0.45594000000E+02  0.51100000000E-03 0. -1.
    9900012    2    1    2    0    0 -0.20535415928E+02  0.20576819127E+02 -0.28426338298E+02  0.50528862014E+02  0.30000006578E+02 0.  0.
        -12    1    1    2    0    0  0.20535415928E+02 -0.20576819127E+02  0.28426338298E+02  0.40659137986E+02  0.00000000000E+00 0.  1.
         11    1    3    3    0    0  0.16143109277E+01 -0.96755515506E+00 -0.66716690389E+01  0.69320509789E+01  0.51100000000E-03 0. -1.
        -11    1    3    3    0    0  0.14768707623E+00  0.10204401240E+02  0.35419097880E+00  0.10211614351E+02  0.51100000000E-03 0.  1.
         12    1    3    3    0    0 -0.22297413932E+02  0.11339973042E+02 -0.22108860238E+02  0.33385196685E+02  0.00000000000E+00 0. -1.
</event>
<event>
 7    1  0.5138511E-013  0.5052884E+02  0.7816164E-02  0.1300439E+00
        -11   -1    0    0    0    0  0.00000000000E+00  0.00000000000E+00  0.45593999997E+02  0.45594000000E+02  0.51100000000E-03 0.  1.
         11   -1    0    0    0    0 -0.00000000000E+00 -0.00000000000E+00 -0.45593999997E+02  0.45594000000E+02  0.51100000000E-03 0. -1.
    9900012    2    1    2    0    0  0.10290482172E+02 -0.32469719024E+02 -0.22203388166E+02  0.50528842079E+02  0.29999945984E+02 0.  0.
        -12    1    1    2    0    0 -0.10290482172E+02  0.32469719024E+02  0.22203388166E+02  0.40659157921E+02  0.00000000000E+00 0.  1.
         11    1    3    3    0    0  0.72521884963E+01 -0.37817568791E+01 -0.92766062460E+01  0.12367350031E+02  0.51100000000E-03 0. -1.
        -11    1    3    3    0    0 -0.36005477356E+01  0.21643470979E+01 -0.26716546346E+01  0.49785621523E+01  0.51100000000E-03 0.  1.
         12    1    3    3    0    0  0.66388414110E+01 -0.30852309242E+02 -0.10255127285E+02  0.33182929896E+02  0.00000000000E+00 0. -1.
</event>
<event>
 7    1  0.5138511E-013  0.5052887E+02  0.7816164E-02  0.1300439E+00
        -11   -1    0    0    0    0  0.00000000000E+00  0.00000000000E+00  0.45593999997E+02  0.45594000000E+02  0.51100000000E-03 0.  1.
         11   -1    0    0    0    0 -0.00000000000E+00 -0.00000000000E+00 -0.45593999997E+02  0.45594000000E+02  0.51100000000E-03 0. -1.
    9900012    2    1    2    0    0 -0.99607796646E+01 -0.40221120370E+01 -0.39214418811E+02  0.50528866223E+02  0.30000019372E+02 0.  0.
        -12    1    1    2    0    0  0.99607796646E+01  0.40221120370E+01  0.39214418811E+02  0.40659133777E+02  0.00000000000E+00 0.  1.
         11    1    3    3    0    0 -0.85168113820E+01 -0.11727064139E+02 -0.97619204999E+01  0.17474415628E+02  0.51100000000E-03 0. -1.
        -11    1    3    3    0    0 -0.11944206581E+00 -0.16230067824E+01  0.46173350194E+00  0.16916310208E+01  0.51100000000E-03 0.  1.
         12    1    3    3    0    0 -0.13245262167E+01  0.93279588845E+01 -0.29914231814E+02  0.31362819574E+02  0.00000000000E+00 0. -1.
</event>
<event>
 7    1  0.5138511E-013  0.5052886E+02  0.7816164E-02  0.1300439E+00
        -11   -1    0    0    0    0  0.00000000000E+00  0.00000000000E+00  0.45593999997E+02  0.45594000000E+02  0.51100000000E-03 0.  1.
         11   -1    0    0    0    0 -0.00000000000E+00 -0.00000000000E+00 -0.45593999997E+02  0.45594000000E+02  0.51100000000E-03 0. -1.
    9900012    2    1    2    0    0 -0.31014809830E+02 -0.26291017821E+02 -0.17312855683E+00  0.50528855637E+02  0.29999987194E+02 0.  0.
        -12    1    1    2    0    0  0.31014809830E+02  0.26291017821E+02  0.17312855683E+00  0.40659144363E+02  0.00000000000E+00 0.  1.
         11    1    3    3    0    0  0.89757918611E+00 -0.38570239709E+01 -0.47067265947E+00  0.39879587912E+01  0.51100000000E-03 0. -1.
        -11    1    3    3    0    0 -0.21568810566E+02 -0.22807269549E+02  0.93887952365E+01  0.32764838009E+02  0.51100000000E-03 0.  1.
        -12    1    3    3    0    0 -0.10343578450E+02  0.37327569831E+00 -0.90912511338E+01  0.13776058837E+02  0.00000000000E+00 0.  1.
</event>
<event>
 7    1  0.5209133E-013  0.5052885E+02  0.7816164E-02  0.1300439E+00
        -11   -1    0    0    0    0  0.00000000000E+00  0.00000000000E+00  0.45593999997E+02  0.45594000000E+02  0.51100000000E-03 0.  1.
         11   -1    0    0    0    0 -0.00000000000E+00 -0.00000000000E+00 -0.45593999997E+02  0.45594000000E+02  0.51100000000E-03 0. -1.
    9900012    2    1    2    0    0 -0.12582460641E+02  0.33928503864E+02  0.18539276760E+02  0.50528850070E+02  0.29999970272E+02 0.  0.
        -12    1    1    2    0    0  0.12582460641E+02 -0.33928503864E+02 -0.18539276760E+02  0.40659149930E+02  0.00000000000E+00 0.  1.
         11    1    3    3    0    0 -0.10960856741E+02  0.15249427223E+02  0.11288466048E+02  0.21911523842E+02  0.51100000000E-03 0. -1.
        -11    1    3    3    0    0 -0.58808648384E+00  0.71136608247E+01  0.13617532490E+02  0.15374888859E+02  0.51100000000E-03 0.  1.
        -12    1    3    3    0    0 -0.10335174166E+01  0.11565415816E+02 -0.63667217779E+01  0.13242437368E+02  0.00000000000E+00 0.  1.
</event>
<event>
 7    1  0.5138511E-013  0.5052886E+02  0.7816164E-02  0.1300439E+00
        -11   -1    0    0    0    0  0.00000000000E+00  0.00000000000E+00  0.45593999997E+02  0.45594000000E+02  0.51100000000E-03 0.  1.
         11   -1    0    0    0    0 -0.00000000000E+00 -0.00000000000E+00 -0.45593999997E+02  0.45594000000E+02  0.51100000000E-03 0. -1.
    9900012    2    1    2    0    0  0.25379290953E+02 -0.31721425364E+02 -0.16758762842E+01  0.50528858374E+02  0.29999995515E+02 0.  0.
        -12    1    1    2    0    0 -0.25379290953E+02  0.31721425364E+02  0.16758762842E+01  0.40659141626E+02  0.00000000000E+00 0.  1.
         11    1    3    3    0    0  0.18344377490E+02 -0.15804564463E+02 -0.33469269997E+01  0.24443861478E+02  0.51100000000E-03 0. -1.
        -11    1    3    3    0    0  0.21210767607E+01 -0.19537528305E+02 -0.34987842441E+00  0.19655441844E+02  0.51100000000E-03 0.  1.
         12    1    3    3    0    0  0.49138367015E+01  0.36206674039E+01  0.20209291399E+01  0.64295550520E+01  0.00000000000E+00 0. -1.
</event>
<event>
 7    1  0.5138511E-013  0.5052886E+02  0.7816164E-02  0.1300439E+00
        -11   -1    0    0    0    0  0.00000000000E+00  0.00000000000E+00  0.45593999997E+02  0.45594000000E+02  0.51100000000E-03 0.  1.
         11   -1    0    0    0    0 -0.00000000000E+00 -0.00000000000E+00 -0.45593999997E+02  0.45594000000E+02  0.51100000000E-03 0. -1.
    9900012    2    1    2    0    0  0.15156159138E+02  0.11194020474E+01 -0.37712108926E+02  0.50528863507E+02  0.30000011115E+02 0.  0.
        -12    1    1    2    0    0 -0.15156159138E+02 -0.11194020474E+01  0.37712108926E+02  0.40659136493E+02  0.00000000000E+00 0.  1.
         11    1    3    3    0    0  0.63135053810E+00 -0.80439216716E+01 -0.12329771260E+02  0.14735214248E+02  0.51100000000E-03 0. -1.
        -11    1    3    3    0    0  0.10657409703E+02 -0.31370777766E+01 -0.63242640802E+01  0.12783503236E+02  0.51100000000E-03 0.  1.
         12    1    3    3    0    0  0.38673988962E+01  0.12300401496E+02 -0.19058073586E+02  0.23010146023E+02  0.00000000000E+00 0. -1.
</event>
<event>
 7    1  0.5138511E-013  0.5052887E+02  0.7816164E-02  0.1300439E+00
        -11   -1    0    0    0    0  0.00000000000E+00  0.00000000000E+00  0.45593999997E+02  0.45594000000E+02  0.51100000000E-03 0.  1.
         11   -1    0    0    0    0 -0.00000000000E+00 -0.00000000000E+00 -0.45593999997E+02  0.45594000000E+02  0.51100000000E-03 0. -1.
    9900012    2    1    2    0    0  0.15677062504E+02 -0.35423875619E+02 -0.12350853688E+02  0.50528870158E+02  0.30000031333E+02 0.  0.
        -12    1    1    2    0    0 -0.15677062504E+02  0.35423875619E+02  0.12350853688E+02  0.40659129842E+02  0.00000000000E+00 0.  1.
         11    1    3    3    0    0  0.16483099817E+02 -0.22676062256E+02 -0.14496506282E+02  0.31560181775E+02  0.51100000000E-03 0. -1.
        -11    1    3    3    0    0  0.63604274912E+01 -0.39413811565E+01  0.11610636198E+01  0.75721590238E+01  0.51100000000E-03 0.  1.
         12    1    3    3    0    0 -0.71664648034E+01 -0.88064322069E+01  0.98458897452E+00  0.11396529359E+02  0.00000000000E+00 0. -1.
</event>
<event>
 7    1  0.5138511E-013  0.5052886E+02  0.7816164E-02  0.1300439E+00
        -11   -1    0    0    0    0  0.00000000000E+00  0.00000000000E+00  0.45593999997E+02  0.45594000000E+02  0.51100000000E-03 0. -1.
         11   -1    0    0    0    0 -0.00000000000E+00 -0.00000000000E+00 -0.45593999997E+02  0.45594000000E+02  0.51100000000E-03 0.  1.
    9900012    2    1    2    0    0 -0.23479368062E+02 -0.33029812330E+02  0.33040144889E+01  0.50528859098E+02  0.29999997716E+02 0.  0.
        -12    1    1    2    0    0  0.23479368062E+02  0.33029812330E+02 -0.33040144889E+01  0.40659140902E+02  0.00000000000E+00 0.  1.
         11    1    3    3    0    0 -0.12597176364E+02 -0.16794335927E+02  0.62249289695E+01  0.21897221571E+02  0.51100000000E-03 0. -1.
        -11    1    3    3    0    0  0.11114482581E+01 -0.61150419114E+01  0.75401292798E+01  0.97715200776E+01  0.51100000000E-03 0.  1.
         12    1    3    3    0    0 -0.11993639956E+02 -0.10120434491E+02 -0.10461043760E+02  0.18860117450E+02  0.00000000000E+00 0. -1.
</event>
<event>
 7    1  0.5138511E-013  0.5052886E+02  0.7816164E-02  0.1300439E+00
        -11   -1    0    0    0    0  0.00000000000E+00  0.00000000000E+00  0.45593999997E+02  0.45594000000E+02  0.51100000000E-03 0. -1.
         11   -1    0    0    0    0 -0.00000000000E+00 -0.00000000000E+00 -0.45593999997E+02  0.45594000000E+02  0.51100000000E-03 0.  1.
    9900012    2    1    2    0    0  0.93607234187E+01  0.28402711336E+02 -0.27546837469E+02  0.50528863159E+02  0.30000010057E+02 0.  0.
        -12    1    1    2    0    0 -0.93607234187E+01 -0.28402711336E+02  0.27546837469E+02  0.40659136841E+02  0.00000000000E+00 0.  1.
         11    1    3    3    0    0 -0.60717547689E-01  0.16064050981E+02 -0.41331453612E+01  0.16587353960E+02  0.51100000000E-03 0. -1.
        -11    1    3    3    0    0 -0.36129446580E+01  0.97659070732E+01 -0.14842356110E+02  0.18130687941E+02  0.51100000000E-03 0.  1.
         12    1    3    3    0    0  0.13034385624E+02  0.25727532812E+01 -0.85713359978E+01  0.15810821258E+02  0.00000000000E+00 0. -1.
</event>
<event>
 7    1  0.5138511E-013  0.5052900E+02  0.7816164E-02  0.1300438E+00
        -11   -1    0    0    0    0  0.00000000000E+00  0.00000000000E+00  0.45593999997E+02  0.45594000000E+02  0.51100000000E-03 0.  1.
         11   -1    0    0    0    0 -0.00000000000E+00 -0.00000000000E+00 -0.45593999997E+02  0.45594000000E+02  0.51100000000E-03 0. -1.
    9900012    2    1    2    0    0  0.13968961828E+02 -0.19064340772E+01 -0.38136434607E+02  0.50529003087E+02  0.30000435381E+02 0.  0.
        -12    1    1    2    0    0 -0.13968961828E+02  0.19064340772E+01  0.38136434607E+02  0.40658996913E+02  0.00000000000E+00 0.  1.
         11    1    3    3    0    0  0.76549644967E+01  0.14323012542E+01 -0.90878367166E+00  0.78406540767E+01  0.51100000000E-03 0. -1.
        -11    1    3    3    0    0 -0.31252253528E+01  0.49918835023E+01 -0.22761405704E+02  0.23511008577E+02  0.51100000000E-03 0.  1.
         12    1    3    3    0    0  0.94392226840E+01 -0.83306188337E+01 -0.14466245231E+02  0.19177340434E+02  0.00000000000E+00 0. -1.
</event>
<event>
 7    1  0.5138511E-013  0.5052886E+02  0.7816164E-02  0.1300439E+00
        -11   -1    0    0    0    0  0.00000000000E+00  0.00000000000E+00  0.45593999997E+02  0.45594000000E+02  0.51100000000E-03 0. -1.
         11   -1    0    0    0    0 -0.00000000000E+00 -0.00000000000E+00 -0.45593999997E+02  0.45594000000E+02  0.51100000000E-03 0.  1.
    9900012    2    1    2    0    0  0.31585942664E+02 -0.18843789286E+02  0.17332204230E+02  0.50528862378E+02  0.30000007685E+02 0.  0.
        -12    1    1    2    0    0 -0.31585942664E+02  0.18843789286E+02 -0.17332204230E+02  0.40659137622E+02  0.00000000000E+00 0.  1.
         11    1    3    3    0    0 -0.43963154205E+01 -0.50891666259E+01 -0.16551598847E+01  0.69258039770E+01  0.51100000000E-03 0.  1.
        -11    1    3    3    0    0  0.24126192290E+02 -0.12838601434E+02  0.14020069361E+02  0.30715878408E+02  0.51100000000E-03 0. -1.
        -12    1    3    3    0    0  0.11856065795E+02 -0.91602122550E+00  0.49672947535E+01  0.12887179993E+02  0.00000000000E+00 0.  1.
</event>
<event>
 7    1  0.5138511E-013  0.5052887E+02  0.7816164E-02  0.1300439E+00
        -11   -1    0    0    0    0  0.00000000000E+00  0.00000000000E+00  0.45593999997E+02  0.45594000000E+02  0.51100000000E-03 0. -1.
         11   -1    0    0    0    0 -0.00000000000E+00 -0.00000000000E+00 -0.45593999997E+02  0.45594000000E+02  0.51100000000E-03 0.  1.
    9900012    2    1    2    0    0 -0.19921110062E+02 -0.26533969394E+02  0.23500272782E+02  0.50528868446E+02  0.30000026128E+02 0.  0.
        -12    1    1    2    0    0  0.19921110062E+02  0.26533969394E+02 -0.23500272782E+02  0.40659131554E+02  0.00000000000E+00 0.  1.
         11    1    3    3    0    0 -0.93580567335E+01 -0.23381742647E+02  0.68779656664E+01  0.26107193013E+02  0.51100000000E-03 0. -1.
        -11    1    3    3    0    0 -0.11486525907E+02 -0.58061055161E+01  0.75442461631E+01  0.14918672498E+02  0.51100000000E-03 0.  1.
        -12    1    3    3    0    0  0.92347257846E+00  0.26538787691E+01  0.90780609523E+01  0.95030029347E+01  0.00000000000E+00 0.  1.
</event>
<event>
 7    1  0.5138511E-013  0.5052887E+02  0.7816164E-02  0.1300439E+00
        -11   -1    0    0    0    0  0.00000000000E+00  0.00000000000E+00  0.45593999997E+02  0.45594000000E+02  0.51100000000E-03 0.  1.
         11   -1    0    0    0    0 -0.00000000000E+00 -0.00000000000E+00 -0.45593999997E+02  0.45594000000E+02  0.51100000000E-03 0. -1.
    9900012    2    1    2    0    0  0.33045177887E+02 -0.21486715886E+02  0.99750897160E+01  0.50528866266E+02  0.30000019502E+02 0.  0.
        -12    1    1    2    0    0 -0.33045177887E+02  0.21486715886E+02 -0.99750897160E+01  0.40659133734E+02  0.00000000000E+00 0.  1.
         11    1    3    3    0    0  0.17655920386E+02 -0.25899675598E+01  0.10067831326E+02  0.20489038155E+02  0.51100000000E-03 0. -1.
        -11    1    3    3    0    0  0.15035841861E+02 -0.20438927250E+02  0.39676593677E+01  0.25682067843E+02  0.51100000000E-03 0.  1.
         12    1    3    3    0    0  0.35341563973E+00  0.15421789240E+01 -0.40604009778E+01  0.43577602675E+01  0.00000000000E+00 0. -1.
</event>
<event>
 7    1  0.5138511E-013  0.5052886E+02  0.7816164E-02  0.1300439E+00
        -11   -1    0    0    0    0  0.00000000000E+00  0.00000000000E+00  0.45593999997E+02  0.45594000000E+02  0.51100000000E-03 0.  1.
         11   -1    0    0    0    0 -0.00000000000E+00 -0.00000000000E+00 -0.45593999997E+02  0.45594000000E+02  0.51100000000E-03 0. -1.
    9900012    2    1    2    0    0 -0.25498274718E+02  0.19752913643E+02 -0.24755329974E+02  0.50528856218E+02  0.29999988960E+02 0.  0.
        -12    1    1    2    0    0  0.25498274718E+02 -0.19752913643E+02  0.24755329974E+02  0.40659143782E+02  0.00000000000E+00 0.  1.
         11    1    3    3    0    0 -0.56580228677E+01  0.32974308763E+00 -0.30397700341E+00  0.56757691598E+01  0.51100000000E-03 0.  1.
        -11    1    3    3    0    0  0.28121556882E+01  0.12291161654E+02 -0.32577480490E+01  0.13022818322E+02  0.51100000000E-03 0. -1.
         12    1    3    3    0    0 -0.22652407539E+02  0.71320089010E+01 -0.21193604921E+02  0.31830268736E+02  0.00000000000E+00 0. -1.
</event>
<event>
 7    1  0.5138511E-013  0.5052885E+02  0.7816164E-02  0.1300439E+00
        -11   -1    0    0    0    0  0.00000000000E+00  0.00000000000E+00  0.45593999997E+02  0.45594000000E+02  0.51100000000E-03 0. -1.
         11   -1    0    0    0    0 -0.00000000000E+00 -0.00000000000E+00 -0.45593999997E+02  0.45594000000E+02  0.51100000000E-03 0.  1.
    9900012    2    1    2    0    0  0.36180304304E+02 -0.18402017506E+02  0.23490165816E+01  0.50528849164E+02  0.29999967519E+02 0.  0.
        -12    1    1    2    0    0 -0.36180304304E+02  0.18402017506E+02 -0.23490165816E+01  0.40659150836E+02  0.00000000000E+00 0.  1.
         11    1    3    3    0    0  0.97557399705E+01 -0.10237459857E+02  0.12310301378E+02  0.18748961757E+02  0.51100000000E-03 0. -1.
        -11    1    3    3    0    0  0.93177810691E+01 -0.83904240264E+01 -0.13053509973E+01  0.12606514224E+02  0.51100000000E-03 0.  1.
         12    1    3    3    0    0  0.17106783264E+02  0.22586637783E+00 -0.86559337993E+01  0.19173373183E+02  0.00000000000E+00 0. -1.
</event>
<event>
 7    1  0.5138511E-013  0.5052886E+02  0.7816164E-02  0.1300439E+00
        -11   -1    0    0    0    0  0.00000000000E+00  0.00000000000E+00  0.45593999997E+02  0.45594000000E+02  0.51100000000E-03 0.  1.
         11   -1    0    0    0    0 -0.00000000000E+00 -0.00000000000E+00 -0.45593999997E+02  0.45594000000E+02  0.51100000000E-03 0. -1.
    9900012    2    1    2    0    0  0.12285563008E+02  0.21507316951E+02 -0.32243854836E+02  0.50528856925E+02  0.29999991110E+02 0.  0.
        -12    1    1    2    0    0 -0.12285563008E+02 -0.21507316951E+02  0.32243854836E+02  0.40659143075E+02  0.00000000000E+00 0.  1.
         11    1    3    3    0    0  0.11997312717E+02  0.63444183482E+01 -0.21869759882E+02  0.25738561618E+02  0.51100000000E-03 0. -1.
        -11    1    3    3    0    0  0.82248666777E+00  0.12009603095E+02 -0.14958445720E+02  0.19200576799E+02  0.51100000000E-03 0.  1.
        -12    1    3    3    0    0 -0.53423637650E+00  0.31532955084E+01  0.45843507647E+01  0.55897185084E+01  0.00000000000E+00 0.  1.
</event>
<event>
 7    1  0.5138511E-013  0.5052886E+02  0.7816164E-02  0.1300439E+00
        -11   -1    0    0    0    0  0.00000000000E+00  0.00000000000E+00  0.45593999997E+02  0.45594000000E+02  0.51100000000E-03 0. -1.
         11   -1    0    0    0    0 -0.00000000000E+00 -0.00000000000E+00 -0.45593999997E+02  0.45594000000E+02  0.51100000000E-03 0.  1.
    9900012    2    1    2    0    0 -0.29043974865E+02 -0.19145846798E+02  0.21048748150E+02  0.50528859278E+02  0.29999998262E+02 0.  0.
        -12    1    1    2    0    0  0.29043974865E+02  0.19145846798E+02 -0.21048748150E+02  0.40659140722E+02  0.00000000000E+00 0.  1.
         11    1    3    3    0    0 -0.14014929981E+02 -0.13622253837E+01  0.80365259612E+01  0.16212947608E+02  0.51100000000E-03 0. -1.
        -11    1    3    3    0    0 -0.87370143820E+01  0.36021389066E+01  0.34708916034E+01  0.10067666750E+02  0.51100000000E-03 0.  1.
        -12    1    3    3    0    0 -0.62920305021E+01 -0.21385760321E+02  0.95413305850E+01  0.24248244919E+02  0.00000000000E+00 0.  1.
</event>
<event>
 7    1  0.6817278E-013  0.5052884E+02  0.7816164E-02  0.1300439E+00
        -11   -1    0    0    0    0  0.00000000000E+00  0.00000000000E+00  0.45593999997E+02  0.45594000000E+02  0.51100000000E-03 0. -1.
         11   -1    0    0    0    0 -0.00000000000E+00 -0.00000000000E+00 -0.45593999997E+02  0.45594000000E+02  0.51100000000E-03 0.  1.
    9900012    2    1    2    0    0 -0.11426733291E+02 -0.20906700438E+02  0.32947029972E+02  0.50528841857E+02  0.29999945308E+02 0.  0.
        -12    1    1    2    0    0  0.11426733291E+02  0.20906700438E+02 -0.32947029972E+02  0.40659158143E+02  0.00000000000E+00 0.  1.
         11    1    3    3    0    0 -0.56587806268E+01  0.11824806073E+01  0.18691320370E+02  0.19564905213E+02  0.51100000000E-03 0. -1.
        -11    1    3    3    0    0 -0.91258461697E+01 -0.18255927203E+02  0.15605443919E+02  0.25692213344E+02  0.51100000000E-03 0.  1.
        -12    1    3    3    0    0  0.33578935059E+01 -0.38332538421E+01 -0.13497343169E+01  0.52717232990E+01  0.00000000000E+00 0.  1.
</event>
<event>
 7    1  0.5138511E-013  0.5052886E+02  0.7816164E-02  0.1300439E+00
        -11   -1    0    0    0    0  0.00000000000E+00  0.00000000000E+00  0.45593999997E+02  0.45594000000E+02  0.51100000000E-03 0.  1.
         11   -1    0    0    0    0 -0.00000000000E+00 -0.00000000000E+00 -0.45593999997E+02  0.45594000000E+02  0.51100000000E-03 0. -1.
    9900012    2    1    2    0    0 -0.40274740139E+00 -0.32908997222E+02 -0.23874702978E+02  0.50528859012E+02  0.29999997452E+02 0.  0.
        -12    1    1    2    0    0  0.40274740139E+00  0.32908997222E+02  0.23874702978E+02  0.40659140988E+02  0.00000000000E+00 0.  1.
         11    1    3    3    0    0 -0.21718140847E+01 -0.43407735459E+01  0.65744248979E+01  0.81720348993E+01  0.51100000000E-03 0.  1.
        -11    1    3    3    0    0  0.28426209293E+01 -0.11955987013E+02 -0.91367849572E+01  0.15313620043E+02  0.51100000000E-03 0. -1.
        -12    1    3    3    0    0 -0.10735542460E+01 -0.16612236664E+02 -0.21312342918E+02  0.27043204070E+02  0.00000000000E+00 0.  1.
</event>
<event>
 7    1  0.5138511E-013  0.5052895E+02  0.7816164E-02  0.1300438E+00
        -11   -1    0    0    0    0  0.00000000000E+00  0.00000000000E+00  0.45593999997E+02  0.45594000000E+02  0.51100000000E-03 0.  1.
         11   -1    0    0    0    0 -0.00000000000E+00 -0.00000000000E+00 -0.45593999997E+02  0.45594000000E+02  0.51100000000E-03 0. -1.
    9900012    2    1    2    0    0  0.97649937247E+01  0.10158379690E+01 -0.39455945572E+02  0.50528946024E+02  0.30000261934E+02 0.  0.
        -12    1    1    2    0    0 -0.97649937247E+01 -0.10158379690E+01  0.39455945572E+02  0.40659053976E+02  0.00000000000E+00 0.  1.
         11    1    3    3    0    0  0.81720527126E+01  0.76450903353E+01 -0.98128819234E+01  0.14883632073E+02  0.51100000000E-03 0. -1.
        -11    1    3    3    0    0 -0.18879534194E+01  0.30746081377E+01 -0.23220399449E+02  0.23499032621E+02  0.51100000000E-03 0.  1.
        -12    1    3    3    0    0  0.34808944314E+01 -0.97038605040E+01 -0.64226641998E+01  0.12146281330E+02  0.00000000000E+00 0.  1.
</event>
<event>
 7    1  0.5138511E-013  0.5052886E+02  0.7816164E-02  0.1300439E+00
        -11   -1    0    0    0    0  0.00000000000E+00  0.00000000000E+00  0.45593999997E+02  0.45594000000E+02  0.51100000000E-03 0. -1.
         11   -1    0    0    0    0 -0.00000000000E+00 -0.00000000000E+00 -0.45593999997E+02  0.45594000000E+02  0.51100000000E-03 0.  1.
    9900012    2    1    2    0    0 -0.13891812909E+02 -0.18500489628E+02  0.33435241182E+02  0.50528856683E+02  0.29999990373E+02 0.  0.
        -12    1    1    2    0    0  0.13891812909E+02  0.18500489628E+02 -0.33435241182E+02  0.40659143317E+02  0.00000000000E+00 0.  1.
         11    1    3    3    0    0 -0.61794616222E+01 -0.15344096664E+02  0.53567655984E+01  0.17387408844E+02  0.51100000000E-03 0. -1.
        -11    1    3    3    0    0 -0.10320513134E+02 -0.19458849197E+01  0.89516327781E+01  0.13799680762E+02  0.51100000000E-03 0.  1.
        -12    1    3    3    0    0  0.26081618472E+01 -0.12105080442E+01  0.19126842806E+02  0.19341767077E+02  0.00000000000E+00 0.  1.
</event>
<event>
 7    1  0.5138511E-013  0.5052885E+02  0.7816164E-02  0.1300439E+00
        -11   -1    0    0    0    0  0.00000000000E+00  0.00000000000E+00  0.45593999997E+02  0.45594000000E+02  0.51100000000E-03 0. -1.
         11   -1    0    0    0    0 -0.00000000000E+00 -0.00000000000E+00 -0.45593999997E+02  0.45594000000E+02  0.51100000000E-03 0.  1.
    9900012    2    1    2    0    0  0.30479043339E+02 -0.25638659725E+02  0.81763781235E+01  0.50528854478E+02  0.29999983672E+02 0.  0.
        -12    1    1    2    0    0 -0.30479043339E+02  0.25638659725E+02 -0.81763781235E+01  0.40659145522E+02  0.00000000000E+00 0.  1.
         11    1    3    3    0    0  0.13753961787E+02 -0.46277240853E+01  0.44006183103E+01  0.15164192587E+02  0.51100000000E-03 0. -1.
        -11    1    3    3    0    0  0.14669945347E+02 -0.65101615765E+01 -0.66649156911E+01  0.17378452223E+02  0.51100000000E-03 0.  1.
         12    1    3    3    0    0  0.20551362052E+01 -0.14500774063E+02  0.10440675504E+02  0.17986209668E+02  0.00000000000E+00 0. -1.
</event>
<event>
 7    1  0.5138511E-013  0.5052882E+02  0.7816164E-02  0.1300439E+00
        -11   -1    0    0    0    0  0.00000000000E+00  0.00000000000E+00  0.45593999997E+02  0.45594000000E+02  0.51100000000E-03 0.  1.
         11   -1    0    0    0    0 -0.00000000000E+00 -0.00000000000E+00 -0.45593999997E+02  0.45594000000E+02  0.51100000000E-03 0. -1.
    9900012    2    1    2    0    0 -0.11236762031E+02 -0.38906445393E+02  0.36321714348E+01  0.50528819199E+02  0.29999876438E+02 0.  0.
        -12    1    1    2    0    0  0.11236762031E+02  0.38906445393E+02 -0.36321714348E+01  0.40659180801E+02  0.00000000000E+00 0.  1.
         11    1    3    3    0    0 -0.43918236843E+01 -0.24099705505E+02 -0.23685085099E+00  0.24497755393E+02  0.51100000000E-03 0. -1.
        -11    1    3    3    0    0  0.70979848830E+01 -0.45430764984E+01  0.11435823166E+01  0.85046289893E+01  0.51100000000E-03 0.  1.
         12    1    3    3    0    0 -0.13942923230E+02 -0.10263663390E+02  0.27254399692E+01  0.17526434817E+02  0.00000000000E+00 0. -1.
</event>
<event>
 7    1  0.5138511E-013  0.5052887E+02  0.7816164E-02  0.1300439E+00
        -11   -1    0    0    0    0  0.00000000000E+00  0.00000000000E+00  0.45593999997E+02  0.45594000000E+02  0.51100000000E-03 0.  1.
         11   -1    0    0    0    0 -0.00000000000E+00 -0.00000000000E+00 -0.45593999997E+02  0.45594000000E+02  0.51100000000E-03 0. -1.
    9900012    2    1    2    0    0  0.35660689879E+02 -0.97392508885E+01 -0.16930072029E+02  0.50528866347E+02  0.30000019747E+02 0.  0.
        -12    1    1    2    0    0 -0.35660689879E+02  0.97392508885E+01  0.16930072029E+02  0.40659133653E+02  0.00000000000E+00 0.  1.
         11    1    3    3    0    0  0.17843073013E+02 -0.75184527360E+01 -0.54957229638E+01  0.20127229249E+02  0.51100000000E-03 0. -1.
        -11    1    3    3    0    0  0.20632192264E+02  0.42660798101E+01 -0.91597667690E+01  0.22973639723E+02  0.51100000000E-03 0.  1.
        -12    1    3    3    0    0 -0.28145753985E+01 -0.64868779625E+01 -0.22745822965E+01  0.74279973746E+01  0.00000000000E+00 0.  1.
</event>
<event>
 7    1  0.5138511E-013  0.5052886E+02  0.7816164E-02  0.1300439E+00
        -11   -1    0    0    0    0  0.00000000000E+00  0.00000000000E+00  0.45593999997E+02  0.45594000000E+02  0.51100000000E-03 0.  1.
         11   -1    0    0    0    0 -0.00000000000E+00 -0.00000000000E+00 -0.45593999997E+02  0.45594000000E+02  0.51100000000E-03 0. -1.
    9900012    2    1    2    0    0 -0.23646007709E+02 -0.32679064888E+02 -0.51098498319E+01  0.50528861694E+02  0.30000005604E+02 0.  0.
        -12    1    1    2    0    0  0.23646007709E+02  0.32679064888E+02  0.51098498319E+01  0.40659138306E+02  0.00000000000E+00 0.  1.
         11    1    3    3    0    0 -0.29356730016E+02 -0.26894900168E+02 -0.63101493355E+01  0.40310931981E+02  0.51100000000E-03 0. -1.
        -11    1    3    3    0    0 -0.34817993523E+00 -0.34629894299E+01  0.13363778870E+01  0.37281940906E+01  0.51100000000E-03 0.  1.
        -12    1    3    3    0    0  0.60589022426E+01 -0.23211752899E+01 -0.13607838337E+00  0.64897356216E+01  0.00000000000E+00 0.  1.
</event>
<event>
 7    1  0.5138511E-013  0.5052886E+02  0.7816164E-02  0.1300439E+00
        -11   -1    0    0    0    0  0.00000000000E+00  0.00000000000E+00  0.45593999997E+02  0.45594000000E+02  0.51100000000E-03 0. -1.
         11   -1    0    0    0    0 -0.00000000000E+00 -0.00000000000E+00 -0.45593999997E+02  0.45594000000E+02  0.51100000000E-03 0.  1.
    9900012    2    1    2    0    0 -0.22865224843E+02 -0.99043848352E+01  0.32128651844E+02  0.50528860616E+02  0.30000002330E+02 0.  0.
        -12    1    1    2    0    0  0.22865224843E+02  0.99043848352E+01 -0.32128651844E+02  0.40659139384E+02  0.00000000000E+00 0.  1.
         11    1    3    3    0    0  0.12373509711E+01 -0.11258255824E+01 -0.30970836145E+01  0.35200067961E+01  0.51100000000E-03 0. -1.
        -11    1    3    3    0    0 -0.32158633843E+01 -0.71541678562E+01  0.18854790274E+02  0.20421239227E+02  0.51100000000E-03 0.  1.
         12    1    3    3    0    0 -0.20886712430E+02 -0.16243913966E+01  0.16370945185E+02  0.26587614593E+02  0.00000000000E+00 0. -1.
</event>
<event>
 7    1  0.5138511E-013  0.5052886E+02  0.7816164E-02  0.1300439E+00
        -11   -1    0    0    0    0  0.00000000000E+00  0.00000000000E+00  0.45593999997E+02  0.45594000000E+02  0.51100000000E-03 0.  1.
         11   -1    0    0    0    0 -0.00000000000E+00 -0.00000000000E+00 -0.45593999997E+02  0.45594000000E+02  0.51100000000E-03 0. -1.
    9900012    2    1    2    0    0  0.31830941302E+02  0.18545691774E+01 -0.25229299945E+02  0.50528858018E+02  0.29999994431E+02 0.  0.
        -12    1    1    2    0    0 -0.31830941302E+02 -0.18545691774E+01  0.25229299945E+02  0.40659141982E+02  0.00000000000E+00 0.  1.
         11    1    3    3    0    0  0.15701174477E+00 -0.89180956834E+00 -0.77607760415E+01  0.78134257546E+01  0.51100000000E-03 0. -1.
        -11    1    3    3    0    0  0.39393480277E+01 -0.65001609310E+01  0.16579036975E+01  0.77794087143E+01  0.51100000000E-03 0.  1.
         12    1    3    3    0    0  0.27734581530E+02  0.92465396767E+01 -0.19126427601E+02  0.34936023549E+02  0.00000000000E+00 0. -1.
</event>
<event>
 7    1  0.5138511E-013  0.5052885E+02  0.7816164E-02  0.1300439E+00
        -11   -1    0    0    0    0  0.00000000000E+00  0.00000000000E+00  0.45593999997E+02  0.45594000000E+02  0.51100000000E-03 0.  1.
         11   -1    0    0    0    0 -0.00000000000E+00 -0.00000000000E+00 -0.45593999997E+02  0.45594000000E+02  0.51100000000E-03 0. -1.
    9900012    2    1    2    0    0  0.28544596832E+02 -0.14874115518E+02 -0.24842157493E+02  0.50528854538E+02  0.29999983855E+02 0.  0.
        -12    1    1    2    0    0 -0.28544596832E+02  0.14874115518E+02  0.24842157493E+02  0.40659145462E+02  0.00000000000E+00 0.  1.
         11    1    3    3    0    0  0.59732596917E+01 -0.43512882735E+01 -0.16816643082E+01  0.75790194676E+01  0.51100000000E-03 0. -1.
        -11    1    3    3    0    0 -0.28086109981E+00  0.35106386020E+01  0.36200118780E+01  0.50505398334E+01  0.51100000000E-03 0.  1.
        -12    1    3    3    0    0  0.22852198240E+02 -0.14033465846E+02 -0.26780505063E+02  0.37899295237E+02  0.00000000000E+00 0.  1.
</event>
<event>
 7    1  0.5138511E-013  0.5052886E+02  0.7816164E-02  0.1300439E+00
        -11   -1    0    0    0    0  0.00000000000E+00  0.00000000000E+00  0.45593999997E+02  0.45594000000E+02  0.51100000000E-03 0.  1.
         11   -1    0    0    0    0 -0.00000000000E+00 -0.00000000000E+00 -0.45593999997E+02  0.45594000000E+02  0.51100000000E-03 0. -1.
    9900012    2    1    2    0    0 -0.81737498581E+01  0.18329258359E+02 -0.35360908706E+02  0.50528858799E+02  0.29999996804E+02 0.  0.
        -12    1    1    2    0    0  0.81737498581E+01 -0.18329258359E+02  0.35360908706E+02  0.40659141201E+02  0.00000000000E+00 0.  1.
         11    1    3    3    0    0  0.47581087106E+01  0.13810536729E+02 -0.12811312507E+02  0.19429365704E+02  0.51100000000E-03 0. -1.
        -11    1    3    3    0    0 -0.12905563308E+02  0.84426420708E+01 -0.11113711017E+02  0.19009112085E+02  0.51100000000E-03 0.  1.
        -12    1    3    3    0    0 -0.26295260470E-01 -0.39239204409E+01 -0.11435885181E+02  0.12090381009E+02  0.00000000000E+00 0.  1.
</event>
<event>
 7    1  0.5138511E-013  0.5052886E+02  0.7816164E-02  0.1300439E+00
        -11   -1    0    0    0    0  0.00000000000E+00  0.00000000000E+00  0.45593999997E+02  0.45594000000E+02  0.51100000000E-03 0.  1.
         11   -1    0    0    0    0 -0.00000000000E+00 -0.00000000000E+00 -0.45593999997E+02  0.45594000000E+02  0.51100000000E-03 0. -1.
    9900012    2    1    2    0    0 -0.66611432926E+01  0.24236991924E+02 -0.31958775950E+02  0.50528856284E+02  0.29999989161E+02 0.  0.
        -12    1    1    2    0    0  0.66611432926E+01 -0.24236991924E+02  0.31958775950E+02  0.40659143716E+02  0.00000000000E+00 0.  1.
         11    1    3    3    0    0 -0.50083842296E+01  0.71104642427E+00 -0.30362920447E+01  0.58998787488E+01  0.51100000000E-03 0. -1.
        -11    1    3    3    0    0 -0.76642161210E+00  0.27784786076E+02 -0.29143678854E+02  0.40273263548E+02  0.51100000000E-03 0.  1.
         12    1    3    3    0    0 -0.88633745092E+00 -0.42588405767E+01  0.22119494839E+00  0.43557139874E+01  0.00000000000E+00 0. -1.
</event>
<event>
 7    1  0.5138511E-013  0.5052885E+02  0.7816164E-02  0.1300439E+00
        -11   -1    0    0    0    0  0.00000000000E+00  0.00000000000E+00  0.45593999997E+02  0.45594000000E+02  0.51100000000E-03 0.  1.
         11   -1    0    0    0    0 -0.00000000000E+00 -0.00000000000E+00 -0.45593999997E+02  0.45594000000E+02  0.51100000000E-03 0. -1.
    9900012    2    1    2    0    0  0.20344269308E+02  0.27917414138E+02  0.21445168012E+02  0.50528849285E+02  0.29999967886E+02 0.  0.
        -12    1    1    2    0    0 -0.20344269308E+02 -0.27917414138E+02 -0.21445168012E+02  0.40659150715E+02  0.00000000000E+00 0.  1.
         11    1    3    3    0    0  0.16667462686E+02  0.15558396236E+02  0.10982915966E+02  0.25307952292E+02  0.51100000000E-03 0. -1.
        -11    1    3    3    0    0  0.60359059232E+01 -0.28293883219E+01  0.65822364878E+01  0.93682141325E+01  0.51100000000E-03 0.  1.
         12    1    3    3    0    0 -0.23590993017E+01  0.15188406224E+02  0.38800155586E+01  0.15852682860E+02  0.00000000000E+00 0. -1.
</event>
<event>
 7    1  0.5138511E-013  0.5052886E+02  0.7816164E-02  0.1300439E+00
        -11   -1    0    0    0    0  0.00000000000E+00  0.00000000000E+00  0.45593999997E+02  0.45594000000E+02  0.51100000000E-03 0.  1.
         11   -1    0    0    0    0 -0.00000000000E+00 -0.00000000000E+00 -0.45593999997E+02  0.45594000000E+02  0.51100000000E-03 0. -1.
    9900012    2    1    2    0    0 -0.18045843065E+02  0.91656943345E+01 -0.35263345045E+02  0.50528857015E+02  0.29999991381E+02 0.  0.
        -12    1    1    2    0    0  0.18045843065E+02 -0.91656943345E+01  0.35263345045E+02  0.40659142985E+02  0.00000000000E+00 0.  1.
         11    1    3    3    0    0 -0.49329333713E+00  0.93313643319E+01 -0.58630429157E+01  0.11031453717E+02  0.51100000000E-03 0.  1.
        -11    1    3    3    0    0  0.34369159813E+01 -0.89199257228E+00 -0.11055143950E+02  0.11611384510E+02  0.51100000000E-03 0. -1.
         12    1    3    3    0    0 -0.20989465709E+02  0.72632257482E+00 -0.18345158179E+02  0.27886018788E+02  0.00000000000E+00 0. -1.
</event>
<event>
 7    1  0.5138511E-013  0.5052885E+02  0.7816164E-02  0.1300439E+00
        -11   -1    0    0    0    0  0.00000000000E+00  0.00000000000E+00  0.45593999997E+02  0.45594000000E+02  0.51100000000E-03 0. -1.
         11   -1    0    0    0    0 -0.00000000000E+00 -0.00000000000E+00 -0.45593999997E+02  0.45594000000E+02  0.51100000000E-03 0.  1.
    9900012    2    1    2    0    0 -0.27438876187E+00 -0.34363689398E+01  0.40512742238E+02  0.50528853375E+02  0.29999980318E+02 0.  0.
        -12    1    1    2    0    0  0.27438876187E+00  0.34363689398E+01 -0.40512742238E+02  0.40659146625E+02  0.00000000000E+00 0.  1.
         11    1    3    3    0    0  0.10155843074E+01  0.15713925408E+01  0.22591600595E+02  0.22668945801E+02  0.51100000000E-03 0. -1.
        -11    1    3    3    0    0  0.52959434091E+01 -0.30549415846E+01  0.19812959358E+02  0.20734826825E+02  0.51100000000E-03 0.  1.
        -12    1    3    3    0    0 -0.65859164783E+01 -0.19528198960E+01 -0.18918177157E+01  0.71250807487E+01  0.00000000000E+00 0.  1.
</event>
<event>
 7    1  0.5138511E-013  0.5052886E+02  0.7816164E-02  0.1300439E+00
        -11   -1    0    0    0    0  0.00000000000E+00  0.00000000000E+00  0.45593999997E+02  0.45594000000E+02  0.51100000000E-03 0.  1.
         11   -1    0    0    0    0 -0.00000000000E+00 -0.00000000000E+00 -0.45593999997E+02  0.45594000000E+02  0.51100000000E-03 0. -1.
    9900012    2    1    2    0    0  0.17432230977E+02  0.31075773715E+02 -0.19585180490E+02  0.50528859777E+02  0.29999999779E+02 0.  0.
        -12    1    1    2    0    0 -0.17432230977E+02 -0.31075773715E+02  0.19585180490E+02  0.40659140223E+02  0.00000000000E+00 0.  1.
         11    1    3    3    0    0 -0.40350937928E+00  0.16613472793E+02 -0.11425929915E+02  0.20167354133E+02  0.51100000000E-03 0. -1.
        -11    1    3    3    0    0  0.21510269581E+02  0.12994316315E+02 -0.59333091560E+01  0.25821466103E+02  0.51100000000E-03 0.  1.
         12    1    3    3    0    0 -0.36745292246E+01  0.14679846069E+01 -0.22259414195E+01  0.45400395407E+01  0.00000000000E+00 0. -1.
</event>
<event>
 7    1  0.5138511E-013  0.5052886E+02  0.7816164E-02  0.1300439E+00
        -11   -1    0    0    0    0  0.00000000000E+00  0.00000000000E+00  0.45593999997E+02  0.45594000000E+02  0.51100000000E-03 0.  1.
         11   -1    0    0    0    0 -0.00000000000E+00 -0.00000000000E+00 -0.45593999997E+02  0.45594000000E+02  0.51100000000E-03 0. -1.
    9900012    2    1    2    0    0  0.14507195163E+02 -0.29907370404E+02 -0.23414872734E+02  0.50528858578E+02  0.29999996135E+02 0.  0.
        -12    1    1    2    0    0 -0.14507195163E+02  0.29907370404E+02  0.23414872734E+02  0.40659141422E+02  0.00000000000E+00 0.  1.
         11    1    3    3    0    0  0.14236878746E+02 -0.18968568845E+02 -0.60204245892E+01  0.24469181289E+02  0.51100000000E-03 0. -1.
        -11    1    3    3    0    0  0.54815943520E+01 -0.81836685524E+01 -0.26793662447E+01  0.10207806393E+02  0.51100000000E-03 0.  1.
        -12    1    3    3    0    0 -0.52112779350E+01 -0.27551330070E+01 -0.14715081900E+02  0.15851870897E+02  0.00000000000E+00 0.  1.
</event>
<event>
 7    1  0.5138511E-013  0.5052886E+02  0.7816164E-02  0.1300439E+00
        -11   -1    0    0    0    0  0.00000000000E+00  0.00000000000E+00  0.45593999997E+02  0.45594000000E+02  0.51100000000E-03 0.  1.
         11   -1    0    0    0    0 -0.00000000000E+00 -0.00000000000E+00 -0.45593999997E+02  0.45594000000E+02  0.51100000000E-03 0. -1.
    9900012    2    1    2    0    0 -0.56072174412E+00  0.13618675703E+02 -0.38306433811E+02  0.50528860707E+02  0.30000002604E+02 0.  0.
        -12    1    1    2    0    0  0.56072174412E+00 -0.13618675703E+02  0.38306433811E+02  0.40659139293E+02  0.00000000000E+00 0.  1.
         11    1    3    3    0    0 -0.62195085224E+01  0.98485378557E+01 -0.35286469335E+01  0.12170757314E+02  0.51100000000E-03 0. -1.
        -11    1    3    3    0    0  0.16951869627E+01  0.32871870544E+01 -0.36731639260E+00  0.37167430854E+01  0.51100000000E-03 0.  1.
         12    1    3    3    0    0  0.39635998156E+01  0.48295079316E+00 -0.34410470485E+02  0.34641360307E+02  0.00000000000E+00 0. -1.
</event>
<event>
 7    1  0.5138511E-013  0.5052886E+02  0.7816164E-02  0.1300439E+00
        -11   -1    0    0    0    0  0.00000000000E+00  0.00000000000E+00  0.45593999997E+02  0.45594000000E+02  0.51100000000E-03 0.  1.
         11   -1    0    0    0    0 -0.00000000000E+00 -0.00000000000E+00 -0.45593999997E+02  0.45594000000E+02  0.51100000000E-03 0. -1.
    9900012    2    1    2    0    0  0.29986762024E+02 -0.74537221442E+01 -0.26427297626E+02  0.50528856745E+02  0.29999990561E+02 0.  0.
        -12    1    1    2    0    0 -0.29986762024E+02  0.74537221442E+01  0.26427297626E+02  0.40659143255E+02  0.00000000000E+00 0.  1.
         11    1    3    3    0    0  0.73119911818E+01 -0.79876013163E+01  0.61961637823E+00  0.10846700630E+02  0.51100000000E-03 0. -1.
        -11    1    3    3    0    0 -0.12699133529E+01 -0.94881194251E-01 -0.10482583102E+02  0.10559651089E+02  0.51100000000E-03 0.  1.
         12    1    3    3    0    0  0.23944684195E+02  0.62876036636E+00 -0.16564330902E+02  0.29122505026E+02  0.00000000000E+00 0. -1.
</event>
<event>
 7    1  0.5138511E-013  0.5052886E+02  0.7816164E-02  0.1300439E+00
        -11   -1    0    0    0    0  0.00000000000E+00  0.00000000000E+00  0.45593999997E+02  0.45594000000E+02  0.51100000000E-03 0.  1.
         11   -1    0    0    0    0 -0.00000000000E+00 -0.00000000000E+00 -0.45593999997E+02  0.45594000000E+02  0.51100000000E-03 0. -1.
    9900012    2    1    2    0    0  0.22889244734E+02  0.28539317063E+02 -0.17741357247E+02  0.50528857119E+02  0.29999991698E+02 0.  0.
        -12    1    1    2    0    0 -0.22889244734E+02 -0.28539317063E+02  0.17741357247E+02  0.40659142881E+02  0.00000000000E+00 0.  1.
         11    1    3    3    0    0  0.11390696696E+02  0.23185213907E+02 -0.10354782340E+02  0.27830264690E+02  0.51100000000E-03 0. -1.
        -11    1    3    3    0    0  0.14212570534E+01  0.98849723425E+01 -0.12630763855E+01  0.10066181602E+02  0.51100000000E-03 0.  1.
        -12    1    3    3    0    0  0.10077290985E+02 -0.45308691867E+01 -0.61234985209E+01  0.12632410827E+02  0.00000000000E+00 0.  1.
</event>
<event>
 7    1  0.5138511E-013  0.5052886E+02  0.7816164E-02  0.1300439E+00
        -11   -1    0    0    0    0  0.00000000000E+00  0.00000000000E+00  0.45593999997E+02  0.45594000000E+02  0.51100000000E-03 0.  1.
         11   -1    0    0    0    0 -0.00000000000E+00 -0.00000000000E+00 -0.45593999997E+02  0.45594000000E+02  0.51100000000E-03 0. -1.
    9900012    2    1    2    0    0  0.82973302003E+00 -0.25516013966E+02 -0.31645065814E+02  0.50528860609E+02  0.30000002308E+02 0.  0.
        -12    1    1    2    0    0 -0.82973302003E+00  0.25516013966E+02  0.31645065814E+02  0.40659139391E+02  0.00000000000E+00 0.  1.
         11    1    3    3    0    0  0.71224210391E+01 -0.57923401412E+00 -0.10942889620E+02  0.13069476921E+02  0.51100000000E-03 0. -1.
        -11    1    3    3    0    0 -0.39318581081E+01  0.11315396506E+01 -0.70467773067E-02  0.40914471867E+01  0.51100000000E-03 0.  1.
         12    1    3    3    0    0 -0.23608299109E+01 -0.26068319603E+02 -0.20695129417E+02  0.33367936501E+02  0.00000000000E+00 0. -1.
</event>
<event>
 7    1  0.5138511E-013  0.5052885E+02  0.7816164E-02  0.1300439E+00
        -11   -1    0    0    0    0  0.00000000000E+00  0.00000000000E+00  0.45593999997E+02  0.45594000000E+02  0.51100000000E-03 0. -1.
         11   -1    0    0    0    0 -0.00000000000E+00 -0.00000000000E+00 -0.45593999997E+02  0.45594000000E+02  0.51100000000E-03 0.  1.
    9900012    2    1    2    0    0 -0.35241201339E+02 -0.18487377789E+01 -0.20194211119E+02  0.50528852617E+02  0.29999978016E+02 0.  0.
        -12    1    1    2    0    0  0.35241201339E+02  0.18487377789E+01  0.20194211119E+02  0.40659147383E+02  0.00000000000E+00 0.  1.
         11    1    3    3    0    0 -0.26841679061E+01  0.18568195581E+01 -0.10713059972E+02  0.11199204902E+02  0.51100000000E-03 0. -1.
        -11    1    3    3    0    0 -0.23393714199E+02  0.27263568321E+01 -0.13837930335E+02  0.27316427325E+02  0.51100000000E-03 0.  1.
         12    1    3    3    0    0 -0.91633192337E+01 -0.64319141692E+01  0.43567791876E+01  0.12013220390E+02  0.00000000000E+00 0. -1.
</event>
<event>
 7    1  0.5138511E-013  0.5052887E+02  0.7816164E-02  0.1300439E+00
        -11   -1    0    0    0    0  0.00000000000E+00  0.00000000000E+00  0.45593999997E+02  0.45594000000E+02  0.51100000000E-03 0.  1.
         11   -1    0    0    0    0 -0.00000000000E+00 -0.00000000000E+00 -0.45593999997E+02  0.45594000000E+02  0.51100000000E-03 0. -1.
    9900012    2    1    2    0    0  0.11601290096E+02 -0.34852372652E+02 -0.17432360280E+02  0.50528868230E+02  0.30000025473E+02 0.  0.
        -12    1    1    2    0    0 -0.11601290096E+02  0.34852372652E+02  0.17432360280E+02  0.40659131770E+02  0.00000000000E+00 0.  1.
         11    1    3    3    0    0 -0.17012407596E+01  0.44215358632E+00 -0.25913342124E+01  0.31312510563E+01  0.51100000000E-03 0. -1.
        -11    1    3    3    0    0 -0.43046274051E+00 -0.29949600763E+02 -0.12586254186E+02  0.32489654949E+02  0.51100000000E-03 0.  1.
         12    1    3    3    0    0  0.13732993597E+02 -0.53449254746E+01 -0.22547718819E+01  0.14907962225E+02  0.00000000000E+00 0. -1.
</event>
<event>
 7    1  0.5138511E-013  0.5052885E+02  0.7816164E-02  0.1300439E+00
        -11   -1    0    0    0    0  0.00000000000E+00  0.00000000000E+00  0.45593999997E+02  0.45594000000E+02  0.51100000000E-03 0.  1.
         11   -1    0    0    0    0 -0.00000000000E+00 -0.00000000000E+00 -0.45593999997E+02  0.45594000000E+02  0.51100000000E-03 0. -1.
    9900012    2    1    2    0    0  0.35879662581E+01  0.62240865071E+01 -0.40019421041E+02  0.50528845863E+02  0.29999957484E+02 0.  0.
        -12    1    1    2    0    0 -0.35879662581E+01 -0.62240865071E+01  0.40019421041E+02  0.40659154137E+02  0.00000000000E+00 0.  1.
         11    1    3    3    0    0  0.90890373090E+00 -0.51804208628E+01 -0.27063037247E+02  0.27569382503E+02  0.51100000000E-03 0. -1.
        -11    1    3    3    0    0 -0.39172807022E+01  0.49531007318E+01 -0.12155593672E+02  0.13698056531E+02  0.51100000000E-03 0.  1.
        -12    1    3    3    0    0  0.65963432294E+01  0.64514066381E+01 -0.80079012184E+00  0.92614068278E+01  0.00000000000E+00 0.  1.
</event>
<event>
 7    1  0.5138511E-013  0.5052887E+02  0.7816164E-02  0.1300439E+00
        -11   -1    0    0    0    0  0.00000000000E+00  0.00000000000E+00  0.45593999997E+02  0.45594000000E+02  0.51100000000E-03 0.  1.
         11   -1    0    0    0    0 -0.00000000000E+00 -0.00000000000E+00 -0.45593999997E+02  0.45594000000E+02  0.51100000000E-03 0. -1.
    9900012    2    1    2    0    0  0.28126257039E+02 -0.26740539843E+02 -0.12125277612E+02  0.50528866177E+02  0.30000019231E+02 0.  0.
        -12    1    1    2    0    0 -0.28126257039E+02  0.26740539843E+02  0.12125277612E+02  0.40659133823E+02  0.00000000000E+00 0.  1.
         11    1    3    3    0    0  0.97327834140E+01 -0.10844951294E+01 -0.67049464002E+01  0.11868424881E+02  0.51100000000E-03 0. -1.
        -11    1    3    3    0    0  0.15330845040E+01 -0.11496594432E+02 -0.10959296383E+02  0.15957073952E+02  0.51100000000E-03 0.  1.
        -12    1    3    3    0    0  0.16860389121E+02 -0.14159450281E+02  0.55389651716E+01  0.22703367344E+02  0.00000000000E+00 0.  1.
</event>
<event>
 7    1  0.5138511E-013  0.5052884E+02  0.7816164E-02  0.1300439E+00
        -11   -1    0    0    0    0  0.00000000000E+00  0.00000000000E+00  0.45593999997E+02  0.45594000000E+02  0.51100000000E-03 0.  1.
         11   -1    0    0    0    0 -0.00000000000E+00 -0.00000000000E+00 -0.45593999997E+02  0.45594000000E+02  0.51100000000E-03 0. -1.
    9900012    2    1    2    0    0 -0.29255274877E+02  0.19919145111E+02  0.20013085236E+02  0.50528843211E+02  0.29999949424E+02 0.  0.
        -12    1    1    2    0    0  0.29255274877E+02 -0.19919145111E+02 -0.20013085236E+02  0.40659156789E+02  0.00000000000E+00 0.  1.
         11    1    3    3    0    0 -0.20205142840E+02  0.19541459229E+02  0.14689211381E+02  0.31715758816E+02  0.51100000000E-03 0. -1.
        -11    1    3    3    0    0 -0.21150066353E+01  0.29940426358E+01  0.95858827236E+01  0.10262879334E+02  0.51100000000E-03 0.  1.
         12    1    3    3    0    0 -0.69351254018E+01 -0.26163567534E+01 -0.42620088683E+01  0.85502050615E+01  0.00000000000E+00 0. -1.
</event>
<event>
 7    1  0.5138511E-013  0.5052885E+02  0.7816164E-02  0.1300439E+00
        -11   -1    0    0    0    0  0.00000000000E+00  0.00000000000E+00  0.45593999997E+02  0.45594000000E+02  0.51100000000E-03 0.  1.
         11   -1    0    0    0    0 -0.00000000000E+00 -0.00000000000E+00 -0.45593999997E+02  0.45594000000E+02  0.51100000000E-03 0. -1.
    9900012    2    1    2    0    0  0.25133222118E+02  0.27731072636E+02  0.15889465008E+02  0.50528851683E+02  0.29999975177E+02 0.  0.
        -12    1    1    2    0    0 -0.25133222118E+02 -0.27731072636E+02 -0.15889465008E+02  0.40659148317E+02  0.00000000000E+00 0.  1.
         11    1    3    3    0    0  0.14971650299E+02  0.22453671515E+02  0.15928493007E+02  0.31337430765E+02  0.51100000000E-03 0. -1.
        -11    1    3    3    0    0  0.15902979890E+01  0.15011944243E+01  0.70907027296E+01  0.74202896071E+01  0.51100000000E-03 0.  1.
         12    1    3    3    0    0  0.85712738303E+01  0.37762066966E+01 -0.71297307289E+01  0.11771131312E+02  0.00000000000E+00 0. -1.
</event>
<event>
 7    1  0.5138511E-013  0.5052887E+02  0.7816164E-02  0.1300439E+00
        -11   -1    0    0    0    0  0.00000000000E+00  0.00000000000E+00  0.45593999997E+02  0.45594000000E+02  0.51100000000E-03 0.  1.
         11   -1    0    0    0    0 -0.00000000000E+00 -0.00000000000E+00 -0.45593999997E+02  0.45594000000E+02  0.51100000000E-03 0. -1.
    9900012    2    1    2    0    0  0.39374055986E+02 -0.21061896848E+01 -0.99202899142E+01  0.50528874680E+02  0.30000045078E+02 0.  0.
        -12    1    1    2    0    0 -0.39374055986E+02  0.21061896848E+01  0.99202899142E+01  0.40659125320E+02  0.00000000000E+00 0.  1.
         11    1    3    3    0    0  0.15461992978E+01 -0.55382492386E+01 -0.47384176637E+01  0.74508750569E+01  0.51100000000E-03 0. -1.
        -11    1    3    3    0    0  0.26139973981E+01 -0.86113503969E+00  0.53981872715E+01  0.60592872546E+01  0.51100000000E-03 0.  1.
         12    1    3    3    0    0  0.35213859290E+02  0.42931945935E+01 -0.10580059522E+02  0.37018712369E+02  0.00000000000E+00 0. -1.
</event>
<event>
 7    1  0.5138511E-013  0.5052886E+02  0.7816164E-02  0.1300439E+00
        -11   -1    0    0    0    0  0.00000000000E+00  0.00000000000E+00  0.45593999997E+02  0.45594000000E+02  0.51100000000E-03 0. -1.
         11   -1    0    0    0    0 -0.00000000000E+00 -0.00000000000E+00 -0.45593999997E+02  0.45594000000E+02  0.51100000000E-03 0.  1.
    9900012    2    1    2    0    0  0.12661056504E+02 -0.41315504315E+01  0.38416061078E+02  0.50528858229E+02  0.29999995074E+02 0.  0.
        -12    1    1    2    0    0 -0.12661056504E+02  0.41315504315E+01 -0.38416061078E+02  0.40659141771E+02  0.00000000000E+00 0.  1.
         11    1    3    3    0    0  0.37844904705E+00  0.92721956232E+01  0.13639295046E+02  0.16496884705E+02  0.51100000000E-03 0. -1.
        -11    1    3    3    0    0  0.28934674478E+01 -0.11494455595E+02  0.68099253407E+01  0.13670030969E+02  0.51100000000E-03 0.  1.
         12    1    3    3    0    0  0.93891400094E+01 -0.19092904597E+01  0.17966840692E+02  0.20361942555E+02  0.00000000000E+00 0. -1.
</event>
<event>
 7    1  0.5138511E-013  0.5052883E+02  0.7816164E-02  0.1300439E+00
        -11   -1    0    0    0    0  0.00000000000E+00  0.00000000000E+00  0.45593999997E+02  0.45594000000E+02  0.51100000000E-03 0.  1.
         11   -1    0    0    0    0 -0.00000000000E+00 -0.00000000000E+00 -0.45593999997E+02  0.45594000000E+02  0.51100000000E-03 0. -1.
    9900012    2    1    2    0    0  0.43917067855E+00  0.16396327543E+02 -0.37203968492E+02  0.50528834990E+02  0.29999924434E+02 0.  0.
        -12    1    1    2    0    0 -0.43917067855E+00 -0.16396327543E+02  0.37203968492E+02  0.40659165010E+02  0.00000000000E+00 0.  1.
         11    1    3    3    0    0  0.75776988573E+01  0.51846248506E+01 -0.10606000582E+02  0.14028153956E+02  0.51100000000E-03 0.  1.
        -11    1    3    3    0    0 -0.85062256273E+01 -0.42202922283E+01 -0.96380835205E+01  0.13529944387E+02  0.51100000000E-03 0. -1.
         12    1    3    3    0    0  0.13676974486E+01  0.15431994921E+02 -0.16959884390E+02  0.22970736646E+02  0.00000000000E+00 0. -1.
</event>
<event>
 7    1  0.5138511E-013  0.5052887E+02  0.7816164E-02  0.1300439E+00
        -11   -1    0    0    0    0  0.00000000000E+00  0.00000000000E+00  0.45593999997E+02  0.45594000000E+02  0.51100000000E-03 0. -1.
         11   -1    0    0    0    0 -0.00000000000E+00 -0.00000000000E+00 -0.45593999997E+02  0.45594000000E+02  0.51100000000E-03 0.  1.
    9900012    2    1    2    0    0  0.29364832801E+02 -0.24676518069E+02  0.13488560658E+02  0.50528865503E+02  0.30000017183E+02 0.  0.
        -12    1    1    2    0    0 -0.29364832801E+02  0.24676518069E+02 -0.13488560658E+02  0.40659134497E+02  0.00000000000E+00 0.  1.
         11    1    3    3    0    0  0.17730243486E+02 -0.93639278945E+01  0.10818690227E+02  0.22783519004E+02  0.51100000000E-03 0. -1.
        -11    1    3    3    0    0  0.14042446854E+02 -0.26668361760E+01  0.38938682807E+01  0.14814335601E+02  0.51100000000E-03 0.  1.
         12    1    3    3    0    0 -0.24078575401E+01 -0.12645753998E+02 -0.12239978493E+01  0.12931010898E+02  0.00000000000E+00 0. -1.
</event>
<event>
 7    1  0.5138511E-013  0.5052886E+02  0.7816164E-02  0.1300439E+00
        -11   -1    0    0    0    0  0.00000000000E+00  0.00000000000E+00  0.45593999997E+02  0.45594000000E+02  0.51100000000E-03 0.  1.
         11   -1    0    0    0    0 -0.00000000000E+00 -0.00000000000E+00 -0.45593999997E+02  0.45594000000E+02  0.51100000000E-03 0. -1.
    9900012    2    1    2    0    0  0.29609794422E+02  0.13108066219E+02 -0.24588705594E+02  0.50528858734E+02  0.29999996607E+02 0.  0.
        -12    1    1    2    0    0 -0.29609794422E+02 -0.13108066219E+02  0.24588705594E+02  0.40659141266E+02  0.00000000000E+00 0.  1.
         11    1    3    3    0    0  0.15237256840E+02  0.13800994586E+02 -0.83343759337E+00  0.20575132224E+02  0.51100000000E-03 0. -1.
        -11    1    3    3    0    0  0.88890485501E+00  0.38960276945E+01 -0.55433667687E+01  0.68336007368E+01  0.51100000000E-03 0.  1.
         12    1    3    3    0    0  0.13483632728E+02 -0.45889560612E+01 -0.18211901232E+02  0.23120125773E+02  0.00000000000E+00 0. -1.
</event>
<event>
 7    1  0.5138511E-013  0.5052885E+02  0.7816164E-02  0.1300439E+00
        -11   -1    0    0    0    0  0.00000000000E+00  0.00000000000E+00  0.45593999997E+02  0.45594000000E+02  0.51100000000E-03 0.  1.
         11   -1    0    0    0    0 -0.00000000000E+00 -0.00000000000E+00 -0.45593999997E+02  0.45594000000E+02  0.51100000000E-03 0. -1.
    9900012    2    1    2    0    0  0.91035624137E+01 -0.23608729085E+02  0.31826393156E+02  0.50528852949E+02  0.29999979023E+02 0.  0.
        -12    1    1    2    0    0 -0.91035624137E+01  0.23608729085E+02 -0.31826393156E+02  0.40659147051E+02  0.00000000000E+00 0.  1.
         11    1    3    3    0    0  0.42139410792E+01 -0.11277112700E+02  0.35359828642E+01  0.12547260471E+02  0.51100000000E-03 0. -1.
        -11    1    3    3    0    0  0.12708616340E+02 -0.34798800414E+01  0.11730809887E+02  0.17641723138E+02  0.51100000000E-03 0.  1.
        -12    1    3    3    0    0 -0.78189950059E+01 -0.88517363439E+01  0.16559600405E+02  0.20339869340E+02  0.00000000000E+00 0.  1.
</event>
<event>
 7    1  0.5138511E-013  0.5052886E+02  0.7816164E-02  0.1300439E+00
        -11   -1    0    0    0    0  0.00000000000E+00  0.00000000000E+00  0.45593999997E+02  0.45594000000E+02  0.51100000000E-03 0.  1.
         11   -1    0    0    0    0 -0.00000000000E+00 -0.00000000000E+00 -0.45593999997E+02  0.45594000000E+02  0.51100000000E-03 0. -1.
    9900012    2    1    2    0    0  0.51569602671E+01  0.14401419152E+02 -0.37671882845E+02  0.50528857487E+02  0.29999992818E+02 0.  0.
        -12    1    1    2    0    0 -0.51569602671E+01 -0.14401419152E+02  0.37671882845E+02  0.40659142513E+02  0.00000000000E+00 0.  1.
         11    1    3    3    0    0  0.47149018681E+01  0.21812496094E+01 -0.72991826731E+00  0.52460394988E+01  0.51100000000E-03 0. -1.
        -11    1    3    3    0    0 -0.18705365112E+01  0.16082391613E+02 -0.12567006149E+02  0.20495654921E+02  0.51100000000E-03 0.  1.
         12    1    3    3    0    0  0.23125949101E+01 -0.38622220702E+01 -0.24374958428E+02  0.24787163067E+02  0.00000000000E+00 0. -1.
</event>
<event>
 7    1  0.5138511E-013  0.5052886E+02  0.7816164E-02  0.1300439E+00
        -11   -1    0    0    0    0  0.00000000000E+00  0.00000000000E+00  0.45593999997E+02  0.45594000000E+02  0.51100000000E-03 0.  1.
         11   -1    0    0    0    0 -0.00000000000E+00 -0.00000000000E+00 -0.45593999997E+02  0.45594000000E+02  0.51100000000E-03 0. -1.
    9900012    2    1    2    0    0 -0.26542031463E+02  0.17706800888E+02 -0.25202296503E+02  0.50528856122E+02  0.29999988669E+02 0.  0.
        -12    1    1    2    0    0  0.26542031463E+02 -0.17706800888E+02  0.25202296503E+02  0.40659143878E+02  0.00000000000E+00 0.  1.
         11    1    3    3    0    0 -0.25623125277E+01  0.83062444959E+01 -0.40768660780E+01  0.96010405892E+01  0.51100000000E-03 0. -1.
        -11    1    3    3    0    0  0.42940987652E+01  0.22968372405E+00  0.26326107413E+00  0.43082879979E+01  0.51100000000E-03 0.  1.
        -12    1    3    3    0    0 -0.28273817701E+02  0.91708726676E+01 -0.21388691499E+02  0.36619527535E+02  0.00000000000E+00 0.  1.
</event>
<event>
 7    1  0.5138511E-013  0.5052886E+02  0.7816164E-02  0.1300439E+00
        -11   -1    0    0    0    0  0.00000000000E+00  0.00000000000E+00  0.45593999997E+02  0.45594000000E+02  0.51100000000E-03 0. -1.
         11   -1    0    0    0    0 -0.00000000000E+00 -0.00000000000E+00 -0.45593999997E+02  0.45594000000E+02  0.51100000000E-03 0.  1.
    9900012    2    1    2    0    0  0.27721346936E+02 -0.24617603486E+02  0.16693297081E+02  0.50528860255E+02  0.30000001233E+02 0.  0.
        -12    1    1    2    0    0 -0.27721346936E+02  0.24617603486E+02 -0.16693297081E+02  0.40659139745E+02  0.00000000000E+00 0.  1.
         11    1    3    3    0    0  0.20391668555E+00 -0.65824767290E+01 -0.13436248066E+00  0.65870050432E+01  0.51100000000E-03 0. -1.
        -11    1    3    3    0    0  0.24265611288E+02 -0.20396544976E+02  0.58272722324E+01  0.32230358981E+02  0.51100000000E-03 0.  1.
        -12    1    3    3    0    0  0.32518189625E+01  0.23614182192E+01  0.11000387329E+02  0.11711496231E+02  0.00000000000E+00 0.  1.
</event>
<event>
 7    1  0.5138511E-013  0.5052886E+02  0.7816164E-02  0.1300439E+00
        -11   -1    0    0    0    0  0.00000000000E+00  0.00000000000E+00  0.45593999997E+02  0.45594000000E+02  0.51100000000E-03 0. -1.
         11   -1    0    0    0    0 -0.00000000000E+00 -0.00000000000E+00 -0.45593999997E+02  0.45594000000E+02  0.51100000000E-03 0.  1.
    9900012    2    1    2    0    0  0.29790935913E+02 -0.25313601624E+02  0.11175303377E+02  0.50528859634E+02  0.29999999344E+02 0.  0.
        -12    1    1    2    0    0 -0.29790935913E+02  0.25313601624E+02 -0.11175303377E+02  0.40659140366E+02  0.00000000000E+00 0.  1.
         11    1    3    3    0    0  0.98991655693E+01 -0.20698857954E+02  0.97747916882E+01  0.24939582041E+02  0.51100000000E-03 0. -1.
        -11    1    3    3    0    0 -0.12786067644E+01 -0.69725383250E+00  0.36620739673E+01  0.39410384631E+01  0.51100000000E-03 0.  1.
         12    1    3    3    0    0  0.21170377108E+02 -0.39174898375E+01 -0.22615622786E+01  0.21648239130E+02  0.00000000000E+00 0. -1.
</event>
<event>
 7    1  0.5138511E-013  0.5052886E+02  0.7816164E-02  0.1300439E+00
        -11   -1    0    0    0    0  0.00000000000E+00  0.00000000000E+00  0.45593999997E+02  0.45594000000E+02  0.51100000000E-03 0. -1.
         11   -1    0    0    0    0 -0.00000000000E+00 -0.00000000000E+00 -0.45593999997E+02  0.45594000000E+02  0.51100000000E-03 0.  1.
    9900012    2    1    2    0    0  0.38639223976E+02  0.88960986823E+01  0.90019634697E+01  0.50528861451E+02  0.30000004866E+02 0.  0.
        -12    1    1    2    0    0 -0.38639223976E+02 -0.88960986823E+01 -0.90019634697E+01  0.40659138549E+02  0.00000000000E+00 0.  1.
         11    1    3    3    0    0  0.36151584903E+02  0.40851704887E+01  0.90656410698E+01  0.37494153640E+02  0.51100000000E-03 0.  1.
        -11    1    3    3    0    0  0.23546451605E+01  0.55500247808E+01  0.50510599557E+01  0.78651341907E+01  0.51100000000E-03 0. -1.
        -12    1    3    3    0    0  0.13299391225E+00 -0.73909658720E+00 -0.51147375558E+01  0.51695736198E+01  0.00000000000E+00 0.  1.
</event>
<event>
 7    1  0.5138511E-013  0.5052885E+02  0.7816164E-02  0.1300439E+00
        -11   -1    0    0    0    0  0.00000000000E+00  0.00000000000E+00  0.45593999997E+02  0.45594000000E+02  0.51100000000E-03 0.  1.
         11   -1    0    0    0    0 -0.00000000000E+00 -0.00000000000E+00 -0.45593999997E+02  0.45594000000E+02  0.51100000000E-03 0. -1.
    9900012    2    1    2    0    0 -0.40006136876E+02 -0.38606542071E+01 -0.61457873892E+01  0.50528851691E+02  0.29999975198E+02 0.  0.
        -12    1    1    2    0    0  0.40006136876E+02  0.38606542071E+01  0.61457873892E+01  0.40659148309E+02  0.00000000000E+00 0.  1.
         11    1    3    3    0    0 -0.35520813741E+01  0.80150382264E+01 -0.11903864076E+01  0.88473238846E+01  0.51100000000E-03 0. -1.
        -11    1    3    3    0    0 -0.12314211865E+02 -0.51686518091E+01  0.56167540737E+01  0.14488019256E+02  0.51100000000E-03 0.  1.
         12    1    3    3    0    0 -0.24139843637E+02 -0.67070406244E+01 -0.10572155055E+02  0.27193508550E+02  0.00000000000E+00 0. -1.
</event>
<event>
 7    1  0.5138511E-013  0.5052886E+02  0.7816164E-02  0.1300439E+00
        -11   -1    0    0    0    0  0.00000000000E+00  0.00000000000E+00  0.45593999997E+02  0.45594000000E+02  0.51100000000E-03 0.  1.
         11   -1    0    0    0    0 -0.00000000000E+00 -0.00000000000E+00 -0.45593999997E+02  0.45594000000E+02  0.51100000000E-03 0. -1.
    9900012    2    1    2    0    0 -0.32006883994E+01 -0.16592586900E+02 -0.36981176827E+02  0.50528858521E+02  0.29999995962E+02 0.  0.
        -12    1    1    2    0    0  0.32006883994E+01  0.16592586900E+02  0.36981176827E+02  0.40659141479E+02  0.00000000000E+00 0.  1.
         11    1    3    3    0    0  0.12296556971E+01 -0.36496751490E+01  0.15267286531E+01  0.41428350761E+01  0.51100000000E-03 0. -1.
        -11    1    3    3    0    0 -0.89422000750E+01  0.53545060633E+00 -0.56642297040E+01  0.10598733317E+02  0.51100000000E-03 0.  1.
         12    1    3    3    0    0  0.45118559785E+01 -0.13478362357E+02 -0.32843675776E+02  0.35787290128E+02  0.00000000000E+00 0. -1.
</event>
<event>
 7    1  0.5138511E-013  0.5052886E+02  0.7816164E-02  0.1300439E+00
        -11   -1    0    0    0    0  0.00000000000E+00  0.00000000000E+00  0.45593999997E+02  0.45594000000E+02  0.51100000000E-03 0.  1.
         11   -1    0    0    0    0 -0.00000000000E+00 -0.00000000000E+00 -0.45593999997E+02  0.45594000000E+02  0.51100000000E-03 0. -1.
    9900012    2    1    2    0    0 -0.13144223447E+01 -0.34833593516E+02 -0.20929861008E+02  0.50528855577E+02  0.29999987013E+02 0.  0.
        -12    1    1    2    0    0  0.13144223447E+01  0.34833593516E+02  0.20929861008E+02  0.40659144423E+02  0.00000000000E+00 0.  1.
         11    1    3    3    0    0 -0.84417317414E+01 -0.19892676539E+02 -0.67284590084E+01  0.22633019586E+02  0.51100000000E-03 0. -1.
        -11    1    3    3    0    0  0.27128170182E+01 -0.88264590009E+01  0.25036643835E+01  0.95673449961E+01  0.51100000000E-03 0.  1.
        -12    1    3    3    0    0  0.44144923785E+01 -0.61144579765E+01 -0.16705066383E+02  0.18328490995E+02  0.00000000000E+00 0.  1.
</event>
<event>
 7    1  0.5138511E-013  0.5052890E+02  0.7816164E-02  0.1300439E+00
        -11   -1    0    0    0    0  0.00000000000E+00  0.00000000000E+00  0.45593999997E+02  0.45594000000E+02  0.51100000000E-03 0.  1.
         11   -1    0    0    0    0 -0.00000000000E+00 -0.00000000000E+00 -0.45593999997E+02  0.45594000000E+02  0.51100000000E-03 0. -1.
    9900012    2    1    2    0    0 -0.16984231878E+02  0.34123205621E+02 -0.14152924486E+02  0.50528898118E+02  0.30000116320E+02 0.  0.
        -12    1    1    2    0    0  0.16984231878E+02 -0.34123205621E+02  0.14152924486E+02  0.40659101882E+02  0.00000000000E+00 0.  1.
         11    1    3    3    0    0 -0.10848092691E+02  0.15247178444E+02 -0.39851749024E+01  0.19132150554E+02  0.51100000000E-03 0. -1.
        -11    1    3    3    0    0 -0.13830232751E+01 -0.20718552482E+01  0.46680046921E+01  0.52910873755E+01  0.51100000000E-03 0.  1.
         12    1    3    3    0    0 -0.47531159115E+01  0.20947882425E+02 -0.14835754276E+02  0.26105660189E+02  0.00000000000E+00 0. -1.
</event>
<event>
 7    1  0.5138511E-013  0.5052887E+02  0.7816164E-02  0.1300439E+00
        -11   -1    0    0    0    0  0.00000000000E+00  0.00000000000E+00  0.45593999997E+02  0.45594000000E+02  0.51100000000E-03 0. -1.
         11   -1    0    0    0    0 -0.00000000000E+00 -0.00000000000E+00 -0.45593999997E+02  0.45594000000E+02  0.51100000000E-03 0.  1.
    9900012    2    1    2    0    0 -0.11599391203E+02  0.34664545839E+02 -0.17804161642E+02  0.50528870812E+02  0.30000033321E+02 0.  0.
        -12    1    1    2    0    0  0.11599391203E+02 -0.34664545839E+02  0.17804161642E+02  0.40659129188E+02  0.00000000000E+00 0.  1.
         11    1    3    3    0    0 -0.66319068020E+01  0.94693664723E+01  0.15071585918E+01  0.11658585527E+02  0.51100000000E-03 0. -1.
        -11    1    3    3    0    0  0.35881120192E+01 -0.59935990986E+00  0.21641130780E+01  0.42328673308E+01  0.51100000000E-03 0.  1.
         12    1    3    3    0    0 -0.85555964199E+01  0.25794539277E+02 -0.21475433312E+02  0.34637417954E+02  0.00000000000E+00 0. -1.
</event>
<event>
 7    1  0.5138511E-013  0.5052886E+02  0.7816164E-02  0.1300439E+00
        -11   -1    0    0    0    0  0.00000000000E+00  0.00000000000E+00  0.45593999997E+02  0.45594000000E+02  0.51100000000E-03 0. -1.
         11   -1    0    0    0    0 -0.00000000000E+00 -0.00000000000E+00 -0.45593999997E+02  0.45594000000E+02  0.51100000000E-03 0.  1.
    9900012    2    1    2    0    0  0.32656387247E+02 -0.15453691707E+02 -0.18652325609E+02  0.50528862453E+02  0.30000007914E+02 0.  0.
        -12    1    1    2    0    0 -0.32656387247E+02  0.15453691707E+02  0.18652325609E+02  0.40659137547E+02  0.00000000000E+00 0.  1.
         11    1    3    3    0    0 -0.13685227420E+01 -0.18972759003E+01 -0.60057581516E+01  0.64452805659E+01  0.51100000000E-03 0. -1.
        -11    1    3    3    0    0  0.55657573271E+01 -0.52874268224E+01 -0.12235700385E+02  0.14444614955E+02  0.51100000000E-03 0.  1.
         12    1    3    3    0    0  0.28459152662E+02 -0.82689889838E+01 -0.41086707232E+00  0.29638966932E+02  0.00000000000E+00 0. -1.
</event>
<event>
 7    1  0.5138511E-013  0.5052885E+02  0.7816164E-02  0.1300439E+00
        -11   -1    0    0    0    0  0.00000000000E+00  0.00000000000E+00  0.45593999997E+02  0.45594000000E+02  0.51100000000E-03 0.  1.
         11   -1    0    0    0    0 -0.00000000000E+00 -0.00000000000E+00 -0.45593999997E+02  0.45594000000E+02  0.51100000000E-03 0. -1.
    9900012    2    1    2    0    0 -0.29436483533E+02 -0.28030588034E+02 -0.97252269069E+00  0.50528853075E+02  0.29999979406E+02 0.  0.
        -12    1    1    2    0    0  0.29436483533E+02  0.28030588034E+02  0.97252269069E+00  0.40659146925E+02  0.00000000000E+00 0.  1.
         11    1    3    3    0    0  0.23007378064E+01 -0.93140076587E-01 -0.20425718345E+01  0.30780138869E+01  0.51100000000E-03 0. -1.
        -11    1    3    3    0    0 -0.88383358481E+01  0.15312790347E+01  0.43844098980E+01  0.99841898249E+01  0.51100000000E-03 0.  1.
         12    1    3    3    0    0 -0.22898885491E+02 -0.29468726992E+02 -0.33143607542E+01  0.37466649363E+02  0.00000000000E+00 0. -1.
</event>
<event>
 7    1  0.5138511E-013  0.5052889E+02  0.7816164E-02  0.1300439E+00
        -11   -1    0    0    0    0  0.00000000000E+00  0.00000000000E+00  0.45593999997E+02  0.45594000000E+02  0.51100000000E-03 0.  1.
         11   -1    0    0    0    0 -0.00000000000E+00 -0.00000000000E+00 -0.45593999997E+02  0.45594000000E+02  0.51100000000E-03 0. -1.
    9900012    2    1    2    0    0  0.19153175863E+02 -0.35768151477E+02  0.26378519759E+01  0.50528891933E+02  0.30000097520E+02 0.  0.
        -12    1    1    2    0    0 -0.19153175863E+02  0.35768151477E+02 -0.26378519759E+01  0.40659108067E+02  0.00000000000E+00 0.  1.
         11    1    3    3    0    0  0.67055614773E+00 -0.22868754893E+02  0.40367009004E-01  0.22878619400E+02  0.51100000000E-03 0. -1.
        -11    1    3    3    0    0  0.17290194071E+02 -0.15565124215E+02 -0.66240181545E+00  0.23273647743E+02  0.51100000000E-03 0.  1.
        -12    1    3    3    0    0  0.11924256441E+01  0.26657276307E+01  0.32598867823E+01  0.43766247899E+01  0.00000000000E+00 0.  1.
</event>
<event>
 7    1  0.5138511E-013  0.5052886E+02  0.7816164E-02  0.1300439E+00
        -11   -1    0    0    0    0  0.00000000000E+00  0.00000000000E+00  0.45593999997E+02  0.45594000000E+02  0.51100000000E-03 0. -1.
         11   -1    0    0    0    0 -0.00000000000E+00 -0.00000000000E+00 -0.45593999997E+02  0.45594000000E+02  0.51100000000E-03 0.  1.
    9900012    2    1    2    0    0  0.40613232812E+02  0.18975715265E+01  0.36067089814E+00  0.50528861536E+02  0.30000005125E+02 0.  0.
        -12    1    1    2    0    0 -0.40613232812E+02 -0.18975715265E+01 -0.36067089814E+00  0.40659138464E+02  0.00000000000E+00 0.  1.
         11    1    3    3    0    0  0.18437285469E+02  0.10083408958E+02  0.20206459881E+00  0.21015457693E+02  0.51100000000E-03 0. -1.
        -11    1    3    3    0    0 -0.17662381895E+01  0.25366874570E+00 -0.34383223065E+01  0.38737586036E+01  0.51100000000E-03 0.  1.
         12    1    3    3    0    0  0.23942185533E+02 -0.84395061776E+01  0.35969286058E+01  0.25639645240E+02  0.00000000000E+00 0. -1.
</event>
<event>
 7    1  0.5138511E-013  0.5052888E+02  0.7816164E-02  0.1300439E+00
        -11   -1    0    0    0    0  0.00000000000E+00  0.00000000000E+00  0.45593999997E+02  0.45594000000E+02  0.51100000000E-03 0.  1.
         11   -1    0    0    0    0 -0.00000000000E+00 -0.00000000000E+00 -0.45593999997E+02  0.45594000000E+02  0.51100000000E-03 0. -1.
    9900012    2    1    2    0    0  0.88801942127E+01 -0.27526901291E+02 -0.28575791321E+02  0.50528880561E+02  0.30000062954E+02 0.  0.
        -12    1    1    2    0    0 -0.88801942127E+01  0.27526901291E+02  0.28575791321E+02  0.40659119439E+02  0.00000000000E+00 0.  1.
         11    1    3    3    0    0 -0.72425643297E+01 -0.84444505138E+01 -0.35162112681E+01  0.11667357220E+02  0.51100000000E-03 0. -1.
        -11    1    3    3    0    0  0.28980145004E+00  0.24710679691E+01 -0.47141368414E+00  0.25322703077E+01  0.51100000000E-03 0.  1.
        -12    1    3    3    0    0  0.15832957092E+02 -0.21553518746E+02 -0.24588166368E+02  0.36329253034E+02  0.00000000000E+00 0.  1.
</event>
<event>
 7    1  0.5138511E-013  0.5052887E+02  0.7816164E-02  0.1300439E+00
        -11   -1    0    0    0    0  0.00000000000E+00  0.00000000000E+00  0.45593999997E+02  0.45594000000E+02  0.51100000000E-03 0. -1.
         11   -1    0    0    0    0 -0.00000000000E+00 -0.00000000000E+00 -0.45593999997E+02  0.45594000000E+02  0.51100000000E-03 0.  1.
    9900012    2    1    2    0    0 -0.19123249436E+02  0.34163233972E+02  0.10969939119E+02  0.50528870783E+02  0.30000033232E+02 0.  0.
        -12    1    1    2    0    0  0.19123249436E+02 -0.34163233972E+02 -0.10969939119E+02  0.40659129217E+02  0.00000000000E+00 0.  1.
         11    1    3    3    0    0 -0.13780605932E+01  0.29395407514E-01  0.31348814059E+01  0.34245286944E+01  0.51100000000E-03 0. -1.
        -11    1    3    3    0    0 -0.18917989800E+02  0.14316107276E+02  0.12348125817E+02  0.26745419739E+02  0.51100000000E-03 0.  1.
        -12    1    3    3    0    0  0.11728009570E+01  0.19817731289E+02 -0.45130681035E+01  0.20358922349E+02  0.00000000000E+00 0.  1.
</event>
<event>
 7    1  0.5138511E-013  0.5052885E+02  0.7816164E-02  0.1300439E+00
        -11   -1    0    0    0    0  0.00000000000E+00  0.00000000000E+00  0.45593999997E+02  0.45594000000E+02  0.51100000000E-03 0.  1.
         11   -1    0    0    0    0 -0.00000000000E+00 -0.00000000000E+00 -0.45593999997E+02  0.45594000000E+02  0.51100000000E-03 0. -1.
    9900012    2    1    2    0    0 -0.35531634452E+02 -0.19750827322E+02  0.75762191701E+00  0.50528853210E+02  0.29999979816E+02 0.  0.
        -12    1    1    2    0    0  0.35531634452E+02  0.19750827322E+02 -0.75762191701E+00  0.40659146790E+02  0.00000000000E+00 0.  1.
         11    1    3    3    0    0 -0.38300746930E+01 -0.56721093351E+01 -0.86864894349E+01  0.11058815281E+02  0.51100000000E-03 0. -1.
        -11    1    3    3    0    0 -0.20860429832E+02 -0.41440578115E+01 -0.12238129028E+01  0.21303250133E+02  0.51100000000E-03 0.  1.
        -12    1    3    3    0    0 -0.10841129927E+02 -0.99346601755E+01  0.10667924255E+02  0.18166787795E+02  0.00000000000E+00 0.  1.
</event>
<event>
 7    1  0.5138511E-013  0.5052886E+02  0.7816164E-02  0.1300439E+00
        -11   -1    0    0    0    0  0.00000000000E+00  0.00000000000E+00  0.45593999997E+02  0.45594000000E+02  0.51100000000E-03 0.  1.
         11   -1    0    0    0    0 -0.00000000000E+00 -0.00000000000E+00 -0.45593999997E+02  0.45594000000E+02  0.51100000000E-03 0. -1.
    9900012    2    1    2    0    0 -0.20771079916E+02  0.19913492906E+02 -0.28725964835E+02  0.50528855687E+02  0.29999987345E+02 0.  0.
        -12    1    1    2    0    0  0.20771079916E+02 -0.19913492906E+02  0.28725964835E+02  0.40659144313E+02  0.00000000000E+00 0.  1.
         11    1    3    3    0    0 -0.19546324222E+02  0.20049851232E+02 -0.20101067745E+02  0.34468946166E+02  0.51100000000E-03 0.  1.
        -11    1    3    3    0    0  0.10470394050E+01  0.57599915697E+01 -0.77013525715E+01  0.96739147242E+01  0.51100000000E-03 0. -1.
        -12    1    3    3    0    0 -0.22717950991E+01 -0.58963498960E+01 -0.92354451871E+00  0.63859947970E+01  0.00000000000E+00 0.  1.
</event>
<event>
 7    1  0.5138511E-013  0.5052886E+02  0.7816164E-02  0.1300439E+00
        -11   -1    0    0    0    0  0.00000000000E+00  0.00000000000E+00  0.45593999997E+02  0.45594000000E+02  0.51100000000E-03 0.  1.
         11   -1    0    0    0    0 -0.00000000000E+00 -0.00000000000E+00 -0.45593999997E+02  0.45594000000E+02  0.51100000000E-03 0. -1.
    9900012    2    1    2    0    0 -0.15030837358E+02 -0.20790923838E+02 -0.31543253576E+02  0.50528862874E+02  0.30000009191E+02 0.  0.
        -12    1    1    2    0    0  0.15030837358E+02  0.20790923838E+02  0.31543253576E+02  0.40659137126E+02  0.00000000000E+00 0.  1.
         11    1    3    3    0    0  0.26045003053E+01 -0.32072875015E+01 -0.17412009878E+01  0.44835138116E+01  0.51100000000E-03 0.  1.
        -11    1    3    3    0    0 -0.37134583503E+01 -0.13213014127E+02 -0.28204098637E+02  0.31366298720E+02  0.51100000000E-03 0. -1.
         12    1    3    3    0    0 -0.13921879313E+02 -0.43706222095E+01 -0.15979539512E+01  0.14679050342E+02  0.00000000000E+00 0. -1.
</event>
<event>
 7    1  0.5138511E-013  0.5052886E+02  0.7816164E-02  0.1300439E+00
        -11   -1    0    0    0    0  0.00000000000E+00  0.00000000000E+00  0.45593999997E+02  0.45594000000E+02  0.51100000000E-03 0.  1.
         11   -1    0    0    0    0 -0.00000000000E+00 -0.00000000000E+00 -0.45593999997E+02  0.45594000000E+02  0.51100000000E-03 0. -1.
    9900012    2    1    2    0    0 -0.13212731239E+02 -0.38442117628E+02  0.89048285314E+00  0.50528860385E+02  0.30000001627E+02 0.  0.
        -12    1    1    2    0    0  0.13212731239E+02  0.38442117628E+02 -0.89048285314E+00  0.40659139615E+02  0.00000000000E+00 0.  1.
         11    1    3    3    0    0 -0.37186964223E+01 -0.17509173317E+02 -0.11259009589E+02  0.21146279827E+02  0.51100000000E-03 0. -1.
        -11    1    3    3    0    0  0.56447803366E+00  0.15398484118E+01  0.23880769155E+01  0.28970122881E+01  0.51100000000E-03 0.  1.
         12    1    3    3    0    0 -0.10058512851E+02 -0.22472792723E+02  0.97614155265E+01  0.26485568270E+02  0.00000000000E+00 0. -1.
</event>
<event>
 7    1  0.5138511E-013  0.5052886E+02  0.7816164E-02  0.1300439E+00
        -11   -1    0    0    0    0  0.00000000000E+00  0.00000000000E+00  0.45593999997E+02  0.45594000000E+02  0.51100000000E-03 0. -1.
         11   -1    0    0    0    0 -0.00000000000E+00 -0.00000000000E+00 -0.45593999997E+02  0.45594000000E+02  0.51100000000E-03 0.  1.
    9900012    2    1    2    0    0 -0.36298978441E+02 -0.15893060261E+02  0.91082469682E+01  0.50528863719E+02  0.30000011760E+02 0.  0.
        -12    1    1    2    0    0  0.36298978441E+02  0.15893060261E+02 -0.91082469682E+01  0.40659136281E+02  0.00000000000E+00 0.  1.
         11    1    3    3    0    0 -0.30902364648E+02 -0.20540577970E+02  0.80804704782E+01  0.37975854007E+02  0.51100000000E-03 0. -1.
        -11    1    3    3    0    0  0.90979318517E+00 -0.19468990149E+01  0.25149924058E+01  0.33080699020E+01  0.51100000000E-03 0.  1.
        -12    1    3    3    0    0 -0.63064069777E+01  0.65944167242E+01 -0.14872159158E+01  0.92449398095E+01  0.00000000000E+00 0.  1.
</event>
<event>
 7    1  0.5138511E-013  0.5052883E+02  0.7816164E-02  0.1300439E+00
        -11   -1    0    0    0    0  0.00000000000E+00  0.00000000000E+00  0.45593999997E+02  0.45594000000E+02  0.51100000000E-03 0. -1.
         11   -1    0    0    0    0 -0.00000000000E+00 -0.00000000000E+00 -0.45593999997E+02  0.45594000000E+02  0.51100000000E-03 0.  1.
    9900012    2    1    2    0    0 -0.28808109840E+02 -0.10732580870E+02  0.26609629084E+02  0.50528833203E+02  0.29999919003E+02 0.  0.
        -12    1    1    2    0    0  0.28808109840E+02  0.10732580870E+02 -0.26609629084E+02  0.40659166797E+02  0.00000000000E+00 0.  1.
         11    1    3    3    0    0 -0.15946493110E+02 -0.51680823960E+01  0.49060015376E+00  0.16770223819E+02  0.51100000000E-03 0. -1.
        -11    1    3    3    0    0 -0.16540929628E+02 -0.28033326228E+01  0.20933763535E+02  0.26826917131E+02  0.51100000000E-03 0.  1.
        -12    1    3    3    0    0  0.36793128992E+01 -0.27611658508E+01  0.51852653952E+01  0.69316922525E+01  0.00000000000E+00 0.  1.
</event>
<event>
 7    1  0.5138511E-013  0.5052887E+02  0.7816164E-02  0.1300439E+00
        -11   -1    0    0    0    0  0.00000000000E+00  0.00000000000E+00  0.45593999997E+02  0.45594000000E+02  0.51100000000E-03 0.  1.
         11   -1    0    0    0    0 -0.00000000000E+00 -0.00000000000E+00 -0.45593999997E+02  0.45594000000E+02  0.51100000000E-03 0. -1.
    9900012    2    1    2    0    0  0.32371357724E+01  0.12659059116E+02 -0.38502391342E+02  0.50528868618E+02  0.30000026650E+02 0.  0.
        -12    1    1    2    0    0 -0.32371357724E+01 -0.12659059116E+02  0.38502391342E+02  0.40659131382E+02  0.00000000000E+00 0.  1.
         11    1    3    3    0    0  0.25387343922E+01  0.13522874683E+02 -0.26259281786E+02  0.29645626864E+02  0.51100000000E-03 0. -1.
        -11    1    3    3    0    0  0.60317683077E+01  0.18297096256E+01  0.97434000295E+00  0.63780408383E+01  0.51100000000E-03 0.  1.
         12    1    3    3    0    0 -0.53333669275E+01 -0.26935251925E+01 -0.13217449559E+02  0.14505200915E+02  0.00000000000E+00 0. -1.
</event>
<event>
 7    1  0.5138511E-013  0.5052886E+02  0.7816164E-02  0.1300439E+00
        -11   -1    0    0    0    0  0.00000000000E+00  0.00000000000E+00  0.45593999997E+02  0.45594000000E+02  0.51100000000E-03 0. -1.
         11   -1    0    0    0    0 -0.00000000000E+00 -0.00000000000E+00 -0.45593999997E+02  0.45594000000E+02  0.51100000000E-03 0.  1.
    9900012    2    1    2    0    0 -0.16202554216E+01 -0.40564722432E+02  0.22458384286E+01  0.50528859282E+02  0.29999998275E+02 0.  0.
        -12    1    1    2    0    0  0.16202554216E+01  0.40564722432E+02 -0.22458384286E+01  0.40659140718E+02  0.00000000000E+00 0.  1.
         11    1    3    3    0    0  0.55252734380E+01 -0.21811421359E+02  0.90602412536E+00  0.22518606267E+02  0.51100000000E-03 0. -1.
        -11    1    3    3    0    0  0.27452419630E+01 -0.82805797086E+01 -0.71588029081E+01  0.11285070362E+02  0.51100000000E-03 0.  1.
         12    1    3    3    0    0 -0.98907708226E+01 -0.10472721365E+02  0.84986172114E+01  0.16725182653E+02  0.00000000000E+00 0. -1.
</event>
<event>
 7    1  0.5138511E-013  0.5052888E+02  0.7816164E-02  0.1300439E+00
        -11   -1    0    0    0    0  0.00000000000E+00  0.00000000000E+00  0.45593999997E+02  0.45594000000E+02  0.51100000000E-03 0.  1.
         11   -1    0    0    0    0 -0.00000000000E+00 -0.00000000000E+00 -0.45593999997E+02  0.45594000000E+02  0.51100000000E-03 0. -1.
    9900012    2    1    2    0    0 -0.14595841376E+02 -0.37441975752E+02 -0.61825783137E+01  0.50528875461E+02  0.30000047450E+02 0.  0.
        -12    1    1    2    0    0  0.14595841376E+02  0.37441975752E+02  0.61825783137E+01  0.40659124539E+02  0.00000000000E+00 0.  1.
         11    1    3    3    0    0 -0.12231942272E+02 -0.48787462603E+01 -0.26971138361E+01  0.13442358429E+02  0.51100000000E-03 0. -1.
        -11    1    3    3    0    0 -0.17177253574E+01  0.18319297605E+01 -0.45385854883E+00  0.25519668678E+01  0.51100000000E-03 0.  1.
         12    1    3    3    0    0 -0.64617374622E+00 -0.34395159252E+02 -0.30316059288E+01  0.34534550164E+02  0.00000000000E+00 0. -1.
</event>
<event>
 7    1  0.5138511E-013  0.5052885E+02  0.7816164E-02  0.1300439E+00
        -11   -1    0    0    0    0  0.00000000000E+00  0.00000000000E+00  0.45593999997E+02  0.45594000000E+02  0.51100000000E-03 0.  1.
         11   -1    0    0    0    0 -0.00000000000E+00 -0.00000000000E+00 -0.45593999997E+02  0.45594000000E+02  0.51100000000E-03 0. -1.
    9900012    2    1    2    0    0 -0.15652670403E+02  0.24098448271E+02 -0.28765006245E+02  0.50528845015E+02  0.29999954909E+02 0.  0.
        -12    1    1    2    0    0  0.15652670403E+02 -0.24098448271E+02  0.28765006245E+02  0.40659154985E+02  0.00000000000E+00 0.  1.
         11    1    3    3    0    0  0.23901096721E+01  0.82190512842E+01 -0.53747524061E+01  0.10107096118E+02  0.51100000000E-03 0. -1.
        -11    1    3    3    0    0 -0.15000961469E+02  0.14635562844E+02 -0.47438501073E+01  0.21487965442E+02  0.51100000000E-03 0.  1.
         12    1    3    3    0    0 -0.30418186065E+01  0.12438341428E+01 -0.18646403731E+02  0.18933783455E+02  0.00000000000E+00 0. -1.
</event>
<event>
 7    1  0.5138511E-013  0.5052886E+02  0.7816164E-02  0.1300439E+00
        -11   -1    0    0    0    0  0.00000000000E+00  0.00000000000E+00  0.45593999997E+02  0.45594000000E+02  0.51100000000E-03 0.  1.
         11   -1    0    0    0    0 -0.00000000000E+00 -0.00000000000E+00 -0.45593999997E+02  0.45594000000E+02  0.51100000000E-03 0. -1.
    9900012    2    1    2    0    0 -0.21852450553E+02 -0.21279587093E+02 -0.26885222297E+02  0.50528860807E+02  0.30000002908E+02 0.  0.
        -12    1    1    2    0    0  0.21852450553E+02  0.21279587093E+02  0.26885222297E+02  0.40659139193E+02  0.00000000000E+00 0.  1.
         11    1    3    3    0    0  0.82155839080E+00  0.91523436506E+00  0.22220427322E+01  0.25397020095E+01  0.51100000000E-03 0.  1.
        -11    1    3    3    0    0 -0.23857600909E+01 -0.14558043266E+02 -0.50188469372E+01  0.15582596054E+02  0.51100000000E-03 0. -1.
         12    1    3    3    0    0 -0.20288248853E+02 -0.76367781922E+01 -0.24088418092E+02  0.32406562743E+02  0.00000000000E+00 0. -1.
</event>
<event>
 7    1  0.5138511E-013  0.5052886E+02  0.7816164E-02  0.1300439E+00
        -11   -1    0    0    0    0  0.00000000000E+00  0.00000000000E+00  0.45593999997E+02  0.45594000000E+02  0.51100000000E-03 0.  1.
         11   -1    0    0    0    0 -0.00000000000E+00 -0.00000000000E+00 -0.45593999997E+02  0.45594000000E+02  0.51100000000E-03 0. -1.
    9900012    2    1    2    0    0 -0.14753280726E+02  0.49638237683E+01 -0.37561507372E+02  0.50528859888E+02  0.30000000116E+02 0.  0.
        -12    1    1    2    0    0  0.14753280726E+02 -0.49638237683E+01  0.37561507372E+02  0.40659140112E+02  0.00000000000E+00 0.  1.
         11    1    3    3    0    0 -0.67483909376E+01  0.53933415501E+01 -0.13339929703E+02  0.15892848646E+02  0.51100000000E-03 0. -1.
        -11    1    3    3    0    0 -0.50827390119E+01  0.51458775065E+01  0.21324352283E+01  0.75406612070E+01  0.51100000000E-03 0.  1.
         12    1    3    3    0    0 -0.29221507769E+01 -0.55753952883E+01 -0.26354012897E+02  0.27095350036E+02  0.00000000000E+00 0. -1.
</event>
<event>
 7    1  0.5138511E-013  0.5052886E+02  0.7816164E-02  0.1300439E+00
        -11   -1    0    0    0    0  0.00000000000E+00  0.00000000000E+00  0.45593999997E+02  0.45594000000E+02  0.51100000000E-03 0.  1.
         11   -1    0    0    0    0 -0.00000000000E+00 -0.00000000000E+00 -0.45593999997E+02  0.45594000000E+02  0.51100000000E-03 0. -1.
    9900012    2    1    2    0    0 -0.93077847946E+01 -0.29124319580E+02 -0.26801214661E+02  0.50528856427E+02  0.29999989596E+02 0.  0.
        -12    1    1    2    0    0  0.93077847946E+01  0.29124319580E+02  0.26801214661E+02  0.40659143573E+02  0.00000000000E+00 0.  1.
         11    1    3    3    0    0 -0.95504197295E+01 -0.13093808832E+02 -0.43390022346E+01  0.16777523280E+02  0.51100000000E-03 0. -1.
        -11    1    3    3    0    0 -0.18916849800E+01  0.43134838672E+01 -0.48120371302E+01  0.67335218675E+01  0.51100000000E-03 0.  1.
         12    1    3    3    0    0  0.21343199149E+01 -0.20343994615E+02 -0.17650175296E+02  0.27017811280E+02  0.00000000000E+00 0. -1.
</event>
<event>
 7    1  0.5138511E-013  0.5052889E+02  0.7816164E-02  0.1300439E+00
        -11   -1    0    0    0    0  0.00000000000E+00  0.00000000000E+00  0.45593999997E+02  0.45594000000E+02  0.51100000000E-03 0. -1.
         11   -1    0    0    0    0 -0.00000000000E+00 -0.00000000000E+00 -0.45593999997E+02  0.45594000000E+02  0.51100000000E-03 0.  1.
    9900012    2    1    2    0    0 -0.46633837283E+01  0.19971154548E+02  0.35107967965E+02  0.50528885691E+02  0.30000078547E+02 0.  0.
        -12    1    1    2    0    0  0.46633837283E+01 -0.19971154548E+02 -0.35107967965E+02  0.40659114309E+02  0.00000000000E+00 0.  1.
         11    1    3    3    0    0  0.44397276179E+01  0.15243318369E+02  0.11647191809E+02  0.19690784990E+02  0.51100000000E-03 0. -1.
        -11    1    3    3    0    0 -0.57632244961E+01  0.78473053036E+01  0.24312271954E+02  0.26189339910E+02  0.51100000000E-03 0.  1.
        -12    1    3    3    0    0 -0.33398868502E+01 -0.31194691254E+01 -0.85149579771E+00  0.46487607908E+01  0.00000000000E+00 0.  1.
</event>
<event>
 7    1  0.5138511E-013  0.5052890E+02  0.7816164E-02  0.1300439E+00
        -11   -1    0    0    0    0  0.00000000000E+00  0.00000000000E+00  0.45593999997E+02  0.45594000000E+02  0.51100000000E-03 0.  1.
         11   -1    0    0    0    0 -0.00000000000E+00 -0.00000000000E+00 -0.45593999997E+02  0.45594000000E+02  0.51100000000E-03 0. -1.
    9900012    2    1    2    0    0 -0.62050349443E+01  0.61283906886E+01 -0.39712756928E+02  0.50528896543E+02  0.30000111532E+02 0.  0.
        -12    1    1    2    0    0  0.62050349443E+01 -0.61283906886E+01  0.39712756928E+02  0.40659103457E+02  0.00000000000E+00 0.  1.
         11    1    3    3    0    0 -0.37550565289E+01  0.43077513750E+01 -0.19520682646E+02  0.20339966143E+02  0.51100000000E-03 0. -1.
        -11    1    3    3    0    0 -0.11072856039E+02  0.54768556235E+01 -0.15163043488E+02  0.19558169047E+02  0.51100000000E-03 0.  1.
        -12    1    3    3    0    0  0.86228776241E+01 -0.36562163099E+01 -0.50290307942E+01  0.10630761353E+02  0.00000000000E+00 0.  1.
</event>
<event>
 7    1  0.5138511E-013  0.5052885E+02  0.7816164E-02  0.1300439E+00
        -11   -1    0    0    0    0  0.00000000000E+00  0.00000000000E+00  0.45593999997E+02  0.45594000000E+02  0.51100000000E-03 0.  1.
         11   -1    0    0    0    0 -0.00000000000E+00 -0.00000000000E+00 -0.45593999997E+02  0.45594000000E+02  0.51100000000E-03 0. -1.
    9900012    2    1    2    0    0  0.12089471183E+02 -0.12278890047E+02 -0.36827164703E+02  0.50528849562E+02  0.29999968729E+02 0.  0.
        -12    1    1    2    0    0 -0.12089471183E+02  0.12278890047E+02  0.36827164703E+02  0.40659150438E+02  0.00000000000E+00 0.  1.
         11    1    3    3    0    0  0.24251182134E+01  0.37724429800E+01 -0.11843670829E+02  0.12664322459E+02  0.51100000000E-03 0. -1.
        -11    1    3    3    0    0 -0.46259374930E+01 -0.43291717906E+01 -0.16211485953E+02  0.17405553802E+02  0.51100000000E-03 0.  1.
        -12    1    3    3    0    0  0.14290290462E+02 -0.11722161237E+02 -0.87720079211E+01  0.20458973301E+02  0.00000000000E+00 0.  1.
</event>
<event>
 7    1  0.5138511E-013  0.5052887E+02  0.7816164E-02  0.1300439E+00
        -11   -1    0    0    0    0  0.00000000000E+00  0.00000000000E+00  0.45593999997E+02  0.45594000000E+02  0.51100000000E-03 0.  1.
         11   -1    0    0    0    0 -0.00000000000E+00 -0.00000000000E+00 -0.45593999997E+02  0.45594000000E+02  0.51100000000E-03 0. -1.
    9900012    2    1    2    0    0  0.31620520108E+02 -0.23488163903E+02 -0.10080374805E+02  0.50528867058E+02  0.30000021909E+02 0.  0.
        -12    1    1    2    0    0 -0.31620520108E+02  0.23488163903E+02  0.10080374805E+02  0.40659132942E+02  0.00000000000E+00 0.  1.
         11    1    3    3    0    0  0.11941502326E+02 -0.50660758129E+01 -0.30475913003E+01  0.13324879547E+02  0.51100000000E-03 0. -1.
        -11    1    3    3    0    0  0.13476939530E+02 -0.23326575828E+02 -0.10032268387E+02  0.28747233749E+02  0.51100000000E-03 0.  1.
        -12    1    3    3    0    0  0.62020782520E+01  0.49044877387E+01  0.29994848828E+01  0.84567537616E+01  0.00000000000E+00 0.  1.
</event>
<event>
 7    1  0.5138511E-013  0.5052886E+02  0.7816164E-02  0.1300439E+00
        -11   -1    0    0    0    0  0.00000000000E+00  0.00000000000E+00  0.45593999997E+02  0.45594000000E+02  0.51100000000E-03 0.  1.
         11   -1    0    0    0    0 -0.00000000000E+00 -0.00000000000E+00 -0.45593999997E+02  0.45594000000E+02  0.51100000000E-03 0. -1.
    9900012    2    1    2    0    0  0.39881794059E+02  0.37287191582E-01  0.79124566313E+01  0.50528857638E+02  0.29999993275E+02 0.  0.
        -12    1    1    2    0    0 -0.39881794059E+02 -0.37287191582E-01 -0.79124566313E+01  0.40659142362E+02  0.00000000000E+00 0.  1.
         11    1    3    3    0    0 -0.10444693359E+01 -0.29617552323E+00 -0.22032822601E+01  0.24562347431E+01  0.51100000000E-03 0. -1.
        -11    1    3    3    0    0  0.15369031208E+02 -0.11069064205E+02  0.53776342589E+01  0.19688835749E+02  0.51100000000E-03 0.  1.
         12    1    3    3    0    0  0.25557232187E+02  0.11402526920E+02  0.47381046326E+01  0.28383787146E+02  0.00000000000E+00 0. -1.
</event>
<event>
 7    1  0.5138511E-013  0.5052885E+02  0.7816164E-02  0.1300439E+00
        -11   -1    0    0    0    0  0.00000000000E+00  0.00000000000E+00  0.45593999997E+02  0.45594000000E+02  0.51100000000E-03 0.  1.
         11   -1    0    0    0    0 -0.00000000000E+00 -0.00000000000E+00 -0.45593999997E+02  0.45594000000E+02  0.51100000000E-03 0. -1.
    9900012    2    1    2    0    0 -0.22759366311E+02 -0.14479466636E+02 -0.30422402377E+02  0.50528852502E+02  0.29999977664E+02 0.  0.
        -12    1    1    2    0    0  0.22759366311E+02  0.14479466636E+02  0.30422402377E+02  0.40659147498E+02  0.00000000000E+00 0.  1.
         11    1    3    3    0    0  0.28773414817E+01  0.28792407790E+01 -0.98848012583E+00  0.41888202022E+01  0.51100000000E-03 0. -1.
        -11    1    3    3    0    0 -0.61692260207E+01 -0.21750954790E+01 -0.17962518462E+02  0.19116549370E+02  0.51100000000E-03 0.  1.
        -12    1    3    3    0    0 -0.19467481772E+02 -0.15183611936E+02 -0.11471403788E+02  0.27223482930E+02  0.00000000000E+00 0.  1.
</event>
<event>
 7    1  0.5138511E-013  0.5052885E+02  0.7816164E-02  0.1300439E+00
        -11   -1    0    0    0    0  0.00000000000E+00  0.00000000000E+00  0.45593999997E+02  0.45594000000E+02  0.51100000000E-03 0.  1.
         11   -1    0    0    0    0 -0.00000000000E+00 -0.00000000000E+00 -0.45593999997E+02  0.45594000000E+02  0.51100000000E-03 0. -1.
    9900012    2    1    2    0    0  0.47850977146E+01 -0.18167491097E+02 -0.36058443162E+02  0.50528853229E+02  0.29999979874E+02 0.  0.
        -12    1    1    2    0    0 -0.47850977146E+01  0.18167491097E+02  0.36058443162E+02  0.40659146771E+02  0.00000000000E+00 0.  1.
         11    1    3    3    0    0  0.35848801431E+01 -0.10529262985E+02 -0.22876528007E+02  0.25437222304E+02  0.51100000000E-03 0. -1.
        -11    1    3    3    0    0 -0.34852923226E+01 -0.13267531958E+02 -0.65093731950E+01  0.15183761276E+02  0.51100000000E-03 0.  1.
         12    1    3    3    0    0  0.46855098941E+01  0.56293038458E+01 -0.66725419601E+01  0.99078696482E+01  0.00000000000E+00 0. -1.
</event>
<event>
 7    1  0.5138511E-013  0.5052886E+02  0.7816164E-02  0.1300439E+00
        -11   -1    0    0    0    0  0.00000000000E+00  0.00000000000E+00  0.45593999997E+02  0.45594000000E+02  0.51100000000E-03 0.  1.
         11   -1    0    0    0    0 -0.00000000000E+00 -0.00000000000E+00 -0.45593999997E+02  0.45594000000E+02  0.51100000000E-03 0. -1.
    9900012    2    1    2    0    0 -0.46839024742E+01 -0.39064623609E+02 -0.10255812951E+02  0.50528862535E+02  0.30000008161E+02 0.  0.
        -12    1    1    2    0    0  0.46839024742E+01  0.39064623609E+02  0.10255812951E+02  0.40659137465E+02  0.00000000000E+00 0.  1.
         11    1    3    3    0    0 -0.10268119917E+02 -0.47947452051E+01 -0.28362975846E+01  0.11681971258E+02  0.51100000000E-03 0. -1.
        -11    1    3    3    0    0  0.40750850371E+01 -0.38442892648E+01 -0.62047985309E+01  0.83596891737E+01  0.51100000000E-03 0.  1.
        -12    1    3    3    0    0  0.15091324060E+01 -0.30425589139E+02 -0.12147168354E+01  0.30487202103E+02  0.00000000000E+00 0.  1.
</event>
<event>
 7    1  0.5138511E-013  0.5052885E+02  0.7816164E-02  0.1300439E+00
        -11   -1    0    0    0    0  0.00000000000E+00  0.00000000000E+00  0.45593999997E+02  0.45594000000E+02  0.51100000000E-03 0.  1.
         11   -1    0    0    0    0 -0.00000000000E+00 -0.00000000000E+00 -0.45593999997E+02  0.45594000000E+02  0.51100000000E-03 0. -1.
    9900012    2    1    2    0    0 -0.38453585582E+01 -0.28292144632E+02 -0.28947089667E+02  0.50528853052E+02  0.29999979338E+02 0.  0.
        -12    1    1    2    0    0  0.38453585582E+01  0.28292144632E+02  0.28947089667E+02  0.40659146948E+02  0.00000000000E+00 0.  1.
         11    1    3    3    0    0 -0.51762101062E+01 -0.14519004526E+02 -0.25383252305E+00  0.15416195208E+02  0.51100000000E-03 0. -1.
        -11    1    3    3    0    0 -0.30594000049E+01  0.21318126448E+01 -0.48734107437E+01  0.61363414247E+01  0.51100000000E-03 0.  1.
        -12    1    3    3    0    0  0.43902515529E+01 -0.15904952751E+02 -0.23819846400E+02  0.28976316419E+02  0.00000000000E+00 0.  1.
</event>
<event>
 7    1  0.5138511E-013  0.5052885E+02  0.7816164E-02  0.1300439E+00
        -11   -1    0    0    0    0  0.00000000000E+00  0.00000000000E+00  0.45593999997E+02  0.45594000000E+02  0.51100000000E-03 0. -1.
         11   -1    0    0    0    0 -0.00000000000E+00 -0.00000000000E+00 -0.45593999997E+02  0.45594000000E+02  0.51100000000E-03 0.  1.
    9900012    2    1    2    0    0 -0.30594487807E+02  0.24530870757E+02 -0.10741503003E+02  0.50528853538E+02  0.29999980813E+02 0.  0.
        -12    1    1    2    0    0  0.30594487807E+02 -0.24530870757E+02  0.10741503003E+02  0.40659146462E+02  0.00000000000E+00 0.  1.
         11    1    3    3    0    0 -0.49427962569E+01  0.14132893340E+02 -0.46603668041E+00  0.14979556050E+02  0.51100000000E-03 0. -1.
        -11    1    3    3    0    0 -0.17242793392E+02  0.12241530673E+02  0.12272436431E+01  0.21181952799E+02  0.51100000000E-03 0.  1.
        -12    1    3    3    0    0 -0.84088981582E+01 -0.18435532554E+01 -0.11502709966E+02  0.14367344689E+02  0.00000000000E+00 0.  1.
</event>
<event>
 7    1  0.5138511E-013  0.5052885E+02  0.7816164E-02  0.1300439E+00
        -11   -1    0    0    0    0  0.00000000000E+00  0.00000000000E+00  0.45593999997E+02  0.45594000000E+02  0.51100000000E-03 0.  1.
         11   -1    0    0    0    0 -0.00000000000E+00 -0.00000000000E+00 -0.45593999997E+02  0.45594000000E+02  0.51100000000E-03 0. -1.
    9900012    2    1    2    0    0  0.11517346294E+02 -0.12484383594E+02 -0.36941267595E+02  0.50528851572E+02  0.29999974838E+02 0.  0.
        -12    1    1    2    0    0 -0.11517346294E+02  0.12484383594E+02  0.36941267595E+02  0.40659148428E+02  0.00000000000E+00 0.  1.
         11    1    3    3    0    0  0.35369769761E+01 -0.16483533827E+01 -0.19733423892E+02  0.20115548557E+02  0.51100000000E-03 0. -1.
        -11    1    3    3    0    0  0.33058213986E+01 -0.16067501522E+02 -0.16653301303E+02  0.23375746081E+02  0.51100000000E-03 0.  1.
        -12    1    3    3    0    0  0.46745479194E+01  0.52314713110E+01 -0.55454240028E+00  0.70375569342E+01  0.00000000000E+00 0.  1.
</event>
<event>
 7    1  0.5138511E-013  0.5052887E+02  0.7816164E-02  0.1300439E+00
        -11   -1    0    0    0    0  0.00000000000E+00  0.00000000000E+00  0.45593999997E+02  0.45594000000E+02  0.51100000000E-03 0.  1.
         11   -1    0    0    0    0 -0.00000000000E+00 -0.00000000000E+00 -0.45593999997E+02  0.45594000000E+02  0.51100000000E-03 0. -1.
    9900012    2    1    2    0    0 -0.10695508745E+02 -0.39189556696E+02 -0.17175330243E+01  0.50528865958E+02  0.30000018565E+02 0.  0.
        -12    1    1    2    0    0  0.10695508745E+02  0.39189556696E+02  0.17175330243E+01  0.40659134042E+02  0.00000000000E+00 0.  1.
         11    1    3    3    0    0  0.34306761039E+01 -0.18101936817E+02  0.63367536558E+01  0.19483431479E+02  0.51100000000E-03 0. -1.
        -11    1    3    3    0    0 -0.73975503155E+01 -0.18398394120E+02  0.49800555421E+00  0.19836145458E+02  0.51100000000E-03 0.  1.
        -12    1    3    3    0    0 -0.67286345339E+01 -0.26892257597E+01 -0.85522922343E+01  0.11209289020E+02  0.00000000000E+00 0.  1.
</event>
<event>
 7    1  0.5138511E-013  0.5052886E+02  0.7816164E-02  0.1300439E+00
        -11   -1    0    0    0    0  0.00000000000E+00  0.00000000000E+00  0.45593999997E+02  0.45594000000E+02  0.51100000000E-03 0. -1.
         11   -1    0    0    0    0 -0.00000000000E+00 -0.00000000000E+00 -0.45593999997E+02  0.45594000000E+02  0.51100000000E-03 0.  1.
    9900012    2    1    2    0    0 -0.19338374712E+02 -0.34083353241E+02  0.10840554660E+02  0.50528864127E+02  0.30000013000E+02 0.  0.
        -12    1    1    2    0    0  0.19338374712E+02  0.34083353241E+02 -0.10840554660E+02  0.40659135873E+02  0.00000000000E+00 0.  1.
         11    1    3    3    0    0  0.54741783584E+01 -0.61489065621E+00 -0.21517286461E+01  0.59139374063E+01  0.51100000000E-03 0. -1.
        -11    1    3    3    0    0 -0.10486308166E+02 -0.15486372480E+02  0.10604831341E+02  0.21500066037E+02  0.51100000000E-03 0.  1.
        -12    1    3    3    0    0 -0.14326244904E+02 -0.17982090104E+02  0.23874519652E+01  0.23114860684E+02  0.00000000000E+00 0.  1.
</event>
<event>
 7    1  0.5138511E-013  0.5052886E+02  0.7816164E-02  0.1300439E+00
        -11   -1    0    0    0    0  0.00000000000E+00  0.00000000000E+00  0.45593999997E+02  0.45594000000E+02  0.51100000000E-03 0.  1.
         11   -1    0    0    0    0 -0.00000000000E+00 -0.00000000000E+00 -0.45593999997E+02  0.45594000000E+02  0.51100000000E-03 0. -1.
    9900012    2    1    2    0    0  0.23562895461E+02  0.20286974328E+02 -0.26199125318E+02  0.50528861576E+02  0.30000005247E+02 0.  0.
        -12    1    1    2    0    0 -0.23562895461E+02 -0.20286974328E+02  0.26199125318E+02  0.40659138424E+02  0.00000000000E+00 0.  1.
         11    1    3    3    0    0  0.80156386715E+01  0.21904186537E+02 -0.19455145201E+02  0.30373451010E+02  0.51100000000E-03 0. -1.
        -11    1    3    3    0    0 -0.21504329648E+00  0.10914665984E+01  0.17292439837E+01  0.20561682740E+01  0.51100000000E-03 0.  1.
        -12    1    3    3    0    0  0.15762300086E+02 -0.27086788076E+01 -0.84732241007E+01  0.18099242292E+02  0.00000000000E+00 0.  1.
</event>
<event>
 7    1  0.5138511E-013  0.5052888E+02  0.7816164E-02  0.1300439E+00
        -11   -1    0    0    0    0  0.00000000000E+00  0.00000000000E+00  0.45593999997E+02  0.45594000000E+02  0.51100000000E-03 0.  1.
         11   -1    0    0    0    0 -0.00000000000E+00 -0.00000000000E+00 -0.45593999997E+02  0.45594000000E+02  0.51100000000E-03 0. -1.
    9900012    2    1    2    0    0  0.62330515805E+00  0.10099092686E+02 -0.39379988410E+02  0.50528884546E+02  0.30000075065E+02 0.  0.
        -12    1    1    2    0    0 -0.62330515805E+00 -0.10099092686E+02  0.39379988410E+02  0.40659115454E+02  0.00000000000E+00 0.  1.
         11    1    3    3    0    0  0.32543744086E+00  0.29374149911E+01 -0.28242843554E+02  0.28397051407E+02  0.51100000000E-03 0. -1.
        -11    1    3    3    0    0  0.41759652756E+01 -0.41779061752E+01 -0.76210232553E+01  0.96422809392E+01  0.51100000000E-03 0.  1.
        -12    1    3    3    0    0 -0.38780975585E+01  0.11339583870E+02 -0.35161216003E+01  0.12489552199E+02  0.00000000000E+00 0.  1.
</event>
<event>
 7    1  0.5138511E-013  0.5052885E+02  0.7816164E-02  0.1300439E+00
        -11   -1    0    0    0    0  0.00000000000E+00  0.00000000000E+00  0.45593999997E+02  0.45594000000E+02  0.51100000000E-03 0.  1.
         11   -1    0    0    0    0 -0.00000000000E+00 -0.00000000000E+00 -0.45593999997E+02  0.45594000000E+02  0.51100000000E-03 0. -1.
    9900012    2    1    2    0    0 -0.37284289583E+02 -0.11213439731E+02 -0.11717791971E+02  0.50528854301E+02  0.29999983133E+02 0.  0.
        -12    1    1    2    0    0  0.37284289583E+02  0.11213439731E+02  0.11717791971E+02  0.40659145699E+02  0.00000000000E+00 0.  1.
         11    1    3    3    0    0 -0.23234345943E+02 -0.61777424569E+01 -0.17389978674E+02  0.29671715350E+02  0.51100000000E-03 0. -1.
        -11    1    3    3    0    0 -0.10152175156E+02  0.19140557760E+01 -0.11138542313E+01  0.10390906670E+02  0.51100000000E-03 0.  1.
        -12    1    3    3    0    0 -0.38977684841E+01 -0.69497530505E+01  0.67860409339E+01  0.10466232282E+02  0.00000000000E+00 0.  1.
</event>
<event>
 7    1  0.6394681E-013  0.5052882E+02  0.7816164E-02  0.1300439E+00
        -11   -1    0    0    0    0  0.00000000000E+00  0.00000000000E+00  0.45593999997E+02  0.45594000000E+02  0.51100000000E-03 0. -1.
         11   -1    0    0    0    0 -0.00000000000E+00 -0.00000000000E+00 -0.45593999997E+02  0.45594000000E+02  0.51100000000E-03 0.  1.
    9900012    2    1    2    0    0  0.28895072703E+02  0.25596554534E+02  0.12769483343E+02  0.50528824709E+02  0.29999893184E+02 0.  0.
        -12    1    1    2    0    0 -0.28895072703E+02 -0.25596554534E+02 -0.12769483343E+02  0.40659175291E+02  0.00000000000E+00 0.  1.
         11    1    3    3    0    0  0.18848997005E+02  0.18294603568E+02  0.16321745210E+02  0.30925338717E+02  0.51100000000E-03 0. -1.
        -11    1    3    3    0    0  0.90640492753E+01  0.11627877335E+02 -0.35620305535E+01  0.15167484383E+02  0.51100000000E-03 0.  1.
        -12    1    3    3    0    0  0.98202642312E+00 -0.43259263691E+01  0.97686863676E-02  0.44360016088E+01  0.00000000000E+00 0.  1.
</event>
<event>
 7    1  0.5138511E-013  0.5052886E+02  0.7816164E-02  0.1300439E+00
        -11   -1    0    0    0    0  0.00000000000E+00  0.00000000000E+00  0.45593999997E+02  0.45594000000E+02  0.51100000000E-03 0.  1.
         11   -1    0    0    0    0 -0.00000000000E+00 -0.00000000000E+00 -0.45593999997E+02  0.45594000000E+02  0.51100000000E-03 0. -1.
    9900012    2    1    2    0    0 -0.57018318428E+01  0.19202896560E+02 -0.35382248288E+02  0.50528860602E+02  0.30000002287E+02 0.  0.
        -12    1    1    2    0    0  0.57018318428E+01 -0.19202896560E+02  0.35382248288E+02  0.40659139398E+02  0.00000000000E+00 0.  1.
         11    1    3    3    0    0  0.25309655467E+01  0.12983831271E+02 -0.10102741668E+02  0.16644850571E+02  0.51100000000E-03 0. -1.
        -11    1    3    3    0    0 -0.29925881075E+00  0.87390683377E+01 -0.23896064931E+02  0.25445683144E+02  0.51100000000E-03 0.  1.
        -12    1    3    3    0    0 -0.79335385787E+01 -0.25200030481E+01 -0.13834416889E+01  0.84383268868E+01  0.00000000000E+00 0.  1.
</event>
<event>
 7    1  0.5138511E-013  0.5052886E+02  0.7816164E-02  0.1300439E+00
        -11   -1    0    0    0    0  0.00000000000E+00  0.00000000000E+00  0.45593999997E+02  0.45594000000E+02  0.51100000000E-03 0. -1.
         11   -1    0    0    0    0 -0.00000000000E+00 -0.00000000000E+00 -0.45593999997E+02  0.45594000000E+02  0.51100000000E-03 0.  1.
    9900012    2    1    2    0    0  0.38132681671E+02 -0.96592128265E+01  0.10284149936E+02  0.50528861497E+02  0.30000005008E+02 0.  0.
        -12    1    1    2    0    0 -0.38132681671E+02  0.96592128265E+01 -0.10284149936E+02  0.40659138503E+02  0.00000000000E+00 0.  1.
         11    1    3    3    0    0  0.27206760467E+01 -0.57892610923E+01  0.10167799307E+02  0.12012566968E+02  0.51100000000E-03 0.  1.
        -11    1    3    3    0    0  0.12867725684E+02 -0.69966394110E+01  0.45316728301E+01  0.15331907456E+02  0.51100000000E-03 0. -1.
         12    1    3    3    0    0  0.22544279940E+02  0.31266876768E+01 -0.44153222010E+01  0.23184387074E+02  0.00000000000E+00 0. -1.
</event>
<event>
 7    1  0.5138511E-013  0.5052886E+02  0.7816164E-02  0.1300439E+00
        -11   -1    0    0    0    0  0.00000000000E+00  0.00000000000E+00  0.45593999997E+02  0.45594000000E+02  0.51100000000E-03 0.  1.
         11   -1    0    0    0    0 -0.00000000000E+00 -0.00000000000E+00 -0.45593999997E+02  0.45594000000E+02  0.51100000000E-03 0. -1.
    9900012    2    1    2    0    0 -0.20688726940E+02 -0.56903937256E+01 -0.34536382369E+02  0.50528859449E+02  0.29999998782E+02 0.  0.
        -12    1    1    2    0    0  0.20688726940E+02  0.56903937256E+01  0.34536382369E+02  0.40659140551E+02  0.00000000000E+00 0.  1.
         11    1    3    3    0    0 -0.20753722113E+02 -0.12466943394E+02 -0.27647676132E+02  0.36749634758E+02  0.51100000000E-03 0. -1.
        -11    1    3    3    0    0  0.12277134847E+01 -0.23896990341E+01 -0.17563393685E+01  0.32097772684E+01  0.51100000000E-03 0.  1.
        -12    1    3    3    0    0 -0.11627183120E+01  0.91662487022E+01 -0.51323668688E+01  0.10569447423E+02  0.00000000000E+00 0.  1.
</event>
<event>
 7    1  0.5138511E-013  0.5052885E+02  0.7816164E-02  0.1300439E+00
        -11   -1    0    0    0    0  0.00000000000E+00  0.00000000000E+00  0.45593999997E+02  0.45594000000E+02  0.51100000000E-03 0. -1.
         11   -1    0    0    0    0 -0.00000000000E+00 -0.00000000000E+00 -0.45593999997E+02  0.45594000000E+02  0.51100000000E-03 0.  1.
    9900012    2    1    2    0    0 -0.24337666996E+02 -0.32222593997E+02  0.47485269705E+01  0.50528854571E+02  0.29999983953E+02 0.  0.
        -12    1    1    2    0    0  0.24337666996E+02  0.32222593997E+02 -0.47485269705E+01  0.40659145429E+02  0.00000000000E+00 0.  1.
         11    1    3    3    0    0 -0.19969953193E+02 -0.14408099933E+02  0.47752605864E+01  0.25083769417E+02  0.51100000000E-03 0. -1.
        -11    1    3    3    0    0 -0.88575368671E+01 -0.18207995395E+02 -0.23332795199E+01  0.20382130635E+02  0.51100000000E-03 0.  1.
         12    1    3    3    0    0  0.44898230647E+01  0.39350133151E+00  0.23065459040E+01  0.50629545186E+01  0.00000000000E+00 0. -1.
</event>
<event>
 7    1  0.5138511E-013  0.5052886E+02  0.7816164E-02  0.1300439E+00
        -11   -1    0    0    0    0  0.00000000000E+00  0.00000000000E+00  0.45593999997E+02  0.45594000000E+02  0.51100000000E-03 0.  1.
         11   -1    0    0    0    0 -0.00000000000E+00 -0.00000000000E+00 -0.45593999997E+02  0.45594000000E+02  0.51100000000E-03 0. -1.
    9900012    2    1    2    0    0 -0.17743407490E+02 -0.28835289985E+01 -0.36469473387E+02  0.50528859109E+02  0.29999997747E+02 0.  0.
        -12    1    1    2    0    0  0.17743407490E+02  0.28835289985E+01  0.36469473387E+02  0.40659140891E+02  0.00000000000E+00 0.  1.
         11    1    3    3    0    0  0.93870265502E+00  0.42019091395E+01 -0.59639910348E+01  0.73557047531E+01  0.51100000000E-03 0. -1.
        -11    1    3    3    0    0  0.27485540907E+01 -0.84894695933E+01 -0.10968155580E+02  0.14139521939E+02  0.51100000000E-03 0.  1.
         12    1    3    3    0    0 -0.21430664236E+02  0.14040314554E+01 -0.19537326773E+02  0.29033632417E+02  0.00000000000E+00 0. -1.
</event>
<event>
 7    1  0.5138511E-013  0.5052886E+02  0.7816164E-02  0.1300439E+00
        -11   -1    0    0    0    0  0.00000000000E+00  0.00000000000E+00  0.45593999997E+02  0.45594000000E+02  0.51100000000E-03 0.  1.
         11   -1    0    0    0    0 -0.00000000000E+00 -0.00000000000E+00 -0.45593999997E+02  0.45594000000E+02  0.51100000000E-03 0. -1.
    9900012    2    1    2    0    0 -0.27615452114E+02  0.26732618927E+02 -0.13263463678E+02  0.50528861065E+02  0.30000003694E+02 0.  0.
        -12    1    1    2    0    0  0.27615452114E+02 -0.26732618927E+02  0.13263463678E+02  0.40659138935E+02  0.00000000000E+00 0.  1.
         11    1    3    3    0    0 -0.86152681684E+01  0.14454530047E+02  0.24686033125E+01  0.17007359791E+02  0.51100000000E-03 0. -1.
        -11    1    3    3    0    0  0.23210849551E+01  0.12127275158E+01 -0.77940930824E+01  0.82222886494E+01  0.51100000000E-03 0.  1.
         12    1    3    3    0    0 -0.21321268901E+02  0.11065361365E+02 -0.79379739085E+01  0.25299212625E+02  0.00000000000E+00 0. -1.
</event>
<event>
 7    1  0.5138511E-013  0.5052888E+02  0.7816164E-02  0.1300439E+00
        -11   -1    0    0    0    0  0.00000000000E+00  0.00000000000E+00  0.45593999997E+02  0.45594000000E+02  0.51100000000E-03 0. -1.
         11   -1    0    0    0    0 -0.00000000000E+00 -0.00000000000E+00 -0.45593999997E+02  0.45594000000E+02  0.51100000000E-03 0.  1.
    9900012    2    1    2    0    0  0.69432644640E+01 -0.71195047129E+01  0.39424200146E+02  0.50528882622E+02  0.30000069219E+02 0.  0.
        -12    1    1    2    0    0 -0.69432644640E+01  0.71195047129E+01 -0.39424200146E+02  0.40659117378E+02  0.00000000000E+00 0.  1.
         11    1    3    3    0    0  0.23695910185E+01  0.50153942976E+01  0.14208187011E+02  0.15252597155E+02  0.51100000000E-03 0. -1.
        -11    1    3    3    0    0  0.11959789855E+02 -0.40015561008E+01  0.82726383067E+01  0.15082624753E+02  0.51100000000E-03 0.  1.
         12    1    3    3    0    0 -0.73861164100E+01 -0.81333429097E+01  0.16943374828E+02  0.20193660715E+02  0.00000000000E+00 0. -1.
</event>
<event>
 7    1  0.5138511E-013  0.5052889E+02  0.7816164E-02  0.1300439E+00
        -11   -1    0    0    0    0  0.00000000000E+00  0.00000000000E+00  0.45593999997E+02  0.45594000000E+02  0.51100000000E-03 0.  1.
         11   -1    0    0    0    0 -0.00000000000E+00 -0.00000000000E+00 -0.45593999997E+02  0.45594000000E+02  0.51100000000E-03 0. -1.
    9900012    2    1    2    0    0 -0.34470607600E+02 -0.17440521338E+02 -0.12679468083E+02  0.50528886830E+02  0.30000082009E+02 0.  0.
        -12    1    1    2    0    0  0.34470607600E+02  0.17440521338E+02  0.12679468083E+02  0.40659113170E+02  0.00000000000E+00 0.  1.
         11    1    3    3    0    0 -0.34355253030E+01  0.83635698513E+00 -0.45103237758E+01  0.57310861046E+01  0.51100000000E-03 0. -1.
        -11    1    3    3    0    0 -0.71908130245E+01  0.82559767721E+00 -0.11992038073E+02  0.14007083240E+02  0.51100000000E-03 0.  1.
        -12    1    3    3    0    0 -0.23844269273E+02 -0.19102476001E+02  0.38228937666E+01  0.30790717485E+02  0.00000000000E+00 0.  1.
</event>
<event>
 7    1  0.5138511E-013  0.5052887E+02  0.7816164E-02  0.1300439E+00
        -11   -1    0    0    0    0  0.00000000000E+00  0.00000000000E+00  0.45593999997E+02  0.45594000000E+02  0.51100000000E-03 0. -1.
         11   -1    0    0    0    0 -0.00000000000E+00 -0.00000000000E+00 -0.45593999997E+02  0.45594000000E+02  0.51100000000E-03 0.  1.
    9900012    2    1    2    0    0  0.36525230012E+02 -0.12615879757E+02 -0.12645628510E+02  0.50528871014E+02  0.30000033934E+02 0.  0.
        -12    1    1    2    0    0 -0.36525230012E+02  0.12615879757E+02  0.12645628510E+02  0.40659128986E+02  0.00000000000E+00 0.  1.
         11    1    3    3    0    0  0.11846427545E+02 -0.84440855483E+01 -0.62247250225E+01  0.15823641433E+02  0.51100000000E-03 0. -1.
        -11    1    3    3    0    0 -0.38844487028E+00 -0.32132315355E+01 -0.89261877820E+01  0.94948709785E+01  0.51100000000E-03 0.  1.
         12    1    3    3    0    0  0.25067247337E+02 -0.95856267270E+00  0.25052842945E+01  0.25210358603E+02  0.00000000000E+00 0. -1.
</event>
<event>
 7    1  0.5138511E-013  0.5052885E+02  0.7816164E-02  0.1300439E+00
        -11   -1    0    0    0    0  0.00000000000E+00  0.00000000000E+00  0.45593999997E+02  0.45594000000E+02  0.51100000000E-03 0.  1.
         11   -1    0    0    0    0 -0.00000000000E+00 -0.00000000000E+00 -0.45593999997E+02  0.45594000000E+02  0.51100000000E-03 0. -1.
    9900012    2    1    2    0    0 -0.22540232017E+02 -0.17455129142E+02 -0.28990042147E+02  0.50528854209E+02  0.29999982855E+02 0.  0.
        -12    1    1    2    0    0  0.22540232017E+02  0.17455129142E+02  0.28990042147E+02  0.40659145791E+02  0.00000000000E+00 0.  1.
         11    1    3    3    0    0 -0.77918041662E+01  0.40074692334E+01 -0.67174826361E+01  0.11040679103E+02  0.51100000000E-03 0.  1.
        -11    1    3    3    0    0 -0.60988492550E+01 -0.48761646576E+01  0.27214576763E+01  0.82691762678E+01  0.51100000000E-03 0. -1.
        -12    1    3    3    0    0 -0.86495785957E+01 -0.16586433718E+02 -0.24994017187E+02  0.31218998839E+02  0.00000000000E+00 0.  1.
</event>
<event>
 7    1  0.5138511E-013  0.5052886E+02  0.7816164E-02  0.1300439E+00
        -11   -1    0    0    0    0  0.00000000000E+00  0.00000000000E+00  0.45593999997E+02  0.45594000000E+02  0.51100000000E-03 0.  1.
         11   -1    0    0    0    0 -0.00000000000E+00 -0.00000000000E+00 -0.45593999997E+02  0.45594000000E+02  0.51100000000E-03 0. -1.
    9900012    2    1    2    0    0  0.20458987844E+02 -0.17299088860E+02 -0.30583284668E+02  0.50528856378E+02  0.29999989448E+02 0.  0.
        -12    1    1    2    0    0 -0.20458987844E+02  0.17299088860E+02  0.30583284668E+02  0.40659143622E+02  0.00000000000E+00 0.  1.
         11    1    3    3    0    0  0.10445455527E+02 -0.15712981250E+01 -0.83002844305E+01  0.13433958496E+02  0.51100000000E-03 0. -1.
        -11    1    3    3    0    0  0.35226177776E+01 -0.67643373488E+01 -0.24628406642E+02  0.25782232443E+02  0.51100000000E-03 0.  1.
        -12    1    3    3    0    0  0.64909145392E+01 -0.89634533859E+01  0.23454064045E+01  0.11312665440E+02  0.00000000000E+00 0.  1.
</event>
<event>
 7    1  0.5138511E-013  0.5052885E+02  0.7816164E-02  0.1300439E+00
        -11   -1    0    0    0    0  0.00000000000E+00  0.00000000000E+00  0.45593999997E+02  0.45594000000E+02  0.51100000000E-03 0. -1.
         11   -1    0    0    0    0 -0.00000000000E+00 -0.00000000000E+00 -0.45593999997E+02  0.45594000000E+02  0.51100000000E-03 0.  1.
    9900012    2    1    2    0    0  0.39297523233E+02 -0.51042012427E+01  0.91004419248E+01  0.50528852864E+02  0.29999978766E+02 0.  0.
        -12    1    1    2    0    0 -0.39297523233E+02  0.51042012427E+01 -0.91004419248E+01  0.40659147136E+02  0.00000000000E+00 0.  1.
         11    1    3    3    0    0  0.65874864145E+01 -0.10138177345E+02 -0.13268529409E+01  0.12162983028E+02  0.51100000000E-03 0. -1.
        -11    1    3    3    0    0  0.82914666344E+01 -0.57830129824E+01  0.15819963617E+01  0.10232026723E+02  0.51100000000E-03 0.  1.
         12    1    3    3    0    0  0.24418570184E+02  0.10816989085E+02  0.88452985040E+01  0.28133843114E+02  0.00000000000E+00 0. -1.
</event>
<event>
 7    1  0.5138511E-013  0.5052882E+02  0.7816164E-02  0.1300439E+00
        -11   -1    0    0    0    0  0.00000000000E+00  0.00000000000E+00  0.45593999997E+02  0.45594000000E+02  0.51100000000E-03 0.  1.
         11   -1    0    0    0    0 -0.00000000000E+00 -0.00000000000E+00 -0.45593999997E+02  0.45594000000E+02  0.51100000000E-03 0. -1.
    9900012    2    1    2    0    0 -0.11118998214E+02  0.15885870035E+02 -0.35737595699E+02  0.50528822262E+02  0.29999885746E+02 0.  0.
        -12    1    1    2    0    0  0.11118998214E+02 -0.15885870035E+02  0.35737595699E+02  0.40659177738E+02  0.00000000000E+00 0.  1.
         11    1    3    3    0    0 -0.70679583165E+01  0.29938637857E+01 -0.17973367575E+02  0.19543827603E+02  0.51100000000E-03 0. -1.
        -11    1    3    3    0    0  0.38254474649E+01 -0.15071085031E+01 -0.13379163988E+02  0.13996694382E+02  0.51100000000E-03 0.  1.
        -12    1    3    3    0    0 -0.78764873620E+01  0.14399114752E+02 -0.43850641358E+01  0.16988300277E+02  0.00000000000E+00 0.  1.
</event>
<event>
 7    1  0.5138511E-013  0.5052886E+02  0.7816164E-02  0.1300439E+00
        -11   -1    0    0    0    0  0.00000000000E+00  0.00000000000E+00  0.45593999997E+02  0.45594000000E+02  0.51100000000E-03 0.  1.
         11   -1    0    0    0    0 -0.00000000000E+00 -0.00000000000E+00 -0.45593999997E+02  0.45594000000E+02  0.51100000000E-03 0. -1.
    9900012    2    1    2    0    0 -0.27922744615E+02 -0.47420249656E+01 -0.29171888687E+02  0.50528861333E+02  0.30000004506E+02 0.  0.
        -12    1    1    2    0    0  0.27922744615E+02  0.47420249656E+01  0.29171888687E+02  0.40659138667E+02  0.00000000000E+00 0.  1.
         11    1    3    3    0    0 -0.20538800130E+02  0.26869333741E+01 -0.31735050306E+01  0.20955501811E+02  0.51100000000E-03 0. -1.
        -11    1    3    3    0    0 -0.46522321308E+01  0.34501611450E+00 -0.42285006243E+01  0.62962304365E+01  0.51100000000E-03 0.  1.
        -12    1    3    3    0    0 -0.27317123546E+01 -0.77739744542E+01 -0.21769883032E+02  0.23277129085E+02  0.00000000000E+00 0.  1.
</event>
<event>
 7    1  0.5138511E-013  0.5052899E+02  0.7816164E-02  0.1300438E+00
        -11   -1    0    0    0    0  0.00000000000E+00  0.00000000000E+00  0.45593999997E+02  0.45594000000E+02  0.51100000000E-03 0.  1.
         11   -1    0    0    0    0 -0.00000000000E+00 -0.00000000000E+00 -0.45593999997E+02  0.45594000000E+02  0.51100000000E-03 0. -1.
    9900012    2    1    2    0    0 -0.14365127488E+02  0.37625968052E+02  0.55753570836E+01  0.50528991574E+02  0.30000400385E+02 0.  0.
        -12    1    1    2    0    0  0.14365127488E+02 -0.37625968052E+02 -0.55753570836E+01  0.40659008426E+02  0.00000000000E+00 0.  1.
         11    1    3    3    0    0 -0.49667169693E+01  0.11551899191E+02  0.43464614373E+01  0.13304374456E+02  0.51100000000E-03 0. -1.
        -11    1    3    3    0    0 -0.17462072384E+02  0.12922805389E+02 -0.26961449557E+00  0.21725458875E+02  0.51100000000E-03 0.  1.
        -12    1    3    3    0    0  0.80636618660E+01  0.13151263472E+02  0.14985101419E+01  0.15499158243E+02  0.00000000000E+00 0.  1.
</event>
<event>
 7    1  0.5138511E-013  0.5052886E+02  0.7816164E-02  0.1300439E+00
        -11   -1    0    0    0    0  0.00000000000E+00  0.00000000000E+00  0.45593999997E+02  0.45594000000E+02  0.51100000000E-03 0.  1.
         11   -1    0    0    0    0 -0.00000000000E+00 -0.00000000000E+00 -0.45593999997E+02  0.45594000000E+02  0.51100000000E-03 0. -1.
    9900012    2    1    2    0    0  0.29619809920E+01  0.24533600391E+02 -0.32287689934E+02  0.50528858336E+02  0.29999995398E+02 0.  0.
        -12    1    1    2    0    0 -0.29619809920E+01 -0.24533600391E+02  0.32287689934E+02  0.40659141664E+02  0.00000000000E+00 0.  1.
         11    1    3    3    0    0  0.49861950775E+01 -0.19328010374E+01 -0.10908871924E+02  0.12149129521E+02  0.51100000000E-03 0. -1.
        -11    1    3    3    0    0  0.76843912902E+01  0.10513077133E+02 -0.10789404490E+02  0.16911117935E+02  0.51100000000E-03 0.  1.
        -12    1    3    3    0    0 -0.97086053758E+01  0.15953324295E+02 -0.10589413520E+02  0.21468610880E+02  0.00000000000E+00 0.  1.
</event>
<event>
 7    1  0.5138511E-013  0.5052886E+02  0.7816164E-02  0.1300439E+00
        -11   -1    0    0    0    0  0.00000000000E+00  0.00000000000E+00  0.45593999997E+02  0.45594000000E+02  0.51100000000E-03 0. -1.
         11   -1    0    0    0    0 -0.00000000000E+00 -0.00000000000E+00 -0.45593999997E+02  0.45594000000E+02  0.51100000000E-03 0.  1.
    9900012    2    1    2    0    0 -0.87776937733E+01  0.48376354206E+01  0.39404503067E+02  0.50528862203E+02  0.30000007153E+02 0.  0.
        -12    1    1    2    0    0  0.87776937733E+01 -0.48376354206E+01 -0.39404503067E+02  0.40659137797E+02  0.00000000000E+00 0.  1.
         11    1    3    3    0    0 -0.55221132129E+01 -0.99993227126E-01 -0.73090673533E+00  0.55711720399E+01  0.51100000000E-03 0. -1.
        -11    1    3    3    0    0  0.90262940136E+00 -0.72504884338E+01  0.12740717519E+02  0.14687076139E+02  0.51100000000E-03 0.  1.
         12    1    3    3    0    0 -0.41582099617E+01  0.12188117082E+02  0.27394692284E+02  0.30270614024E+02  0.00000000000E+00 0. -1.
</event>
<event>
 7    1  0.5138511E-013  0.5052886E+02  0.7816164E-02  0.1300439E+00
        -11   -1    0    0    0    0  0.00000000000E+00  0.00000000000E+00  0.45593999997E+02  0.45594000000E+02  0.51100000000E-03 0.  1.
         11   -1    0    0    0    0 -0.00000000000E+00 -0.00000000000E+00 -0.45593999997E+02  0.45594000000E+02  0.51100000000E-03 0. -1.
    9900012    2    1    2    0    0  0.15581816406E+02  0.16315738549E+02 -0.33825573364E+02  0.50528859081E+02  0.29999997662E+02 0.  0.
        -12    1    1    2    0    0 -0.15581816406E+02 -0.16315738549E+02  0.33825573364E+02  0.40659140919E+02  0.00000000000E+00 0.  1.
         11    1    3    3    0    0  0.48537968907E+01 -0.61647895065E+01 -0.89546293551E+01  0.11905854067E+02  0.51100000000E-03 0. -1.
        -11    1    3    3    0    0 -0.35937168887E+01  0.38284015831E+01 -0.14821916633E+01  0.54560381363E+01  0.51100000000E-03 0.  1.
         12    1    3    3    0    0  0.14321736404E+02  0.18652126472E+02 -0.23388752345E+02  0.33166966877E+02  0.00000000000E+00 0. -1.
</event>
<event>
 7    1  0.5138511E-013  0.5052885E+02  0.7816164E-02  0.1300439E+00
        -11   -1    0    0    0    0  0.00000000000E+00  0.00000000000E+00  0.45593999997E+02  0.45594000000E+02  0.51100000000E-03 0. -1.
         11   -1    0    0    0    0 -0.00000000000E+00 -0.00000000000E+00 -0.45593999997E+02  0.45594000000E+02  0.51100000000E-03 0.  1.
    9900012    2    1    2    0    0 -0.93900171733E+01  0.30678293030E+02  0.24976719699E+02  0.50528848353E+02  0.29999965053E+02 0.  0.
        -12    1    1    2    0    0  0.93900171733E+01 -0.30678293030E+02 -0.24976719699E+02  0.40659151647E+02  0.00000000000E+00 0.  1.
         11    1    3    3    0    0 -0.24024683650E+01  0.85288085462E+01  0.14410993361E+01  0.89771486019E+01  0.51100000000E-03 0. -1.
        -11    1    3    3    0    0 -0.10096639757E+02  0.71143215007E+00  0.80744956655E+00  0.10153829088E+02  0.51100000000E-03 0.  1.
         12    1    3    3    0    0  0.31090909486E+01  0.21438052334E+02  0.22728170797E+02  0.31397870663E+02  0.00000000000E+00 0. -1.
</event>
<event>
 7    1  0.5138511E-013  0.5052886E+02  0.7816164E-02  0.1300439E+00
        -11   -1    0    0    0    0  0.00000000000E+00  0.00000000000E+00  0.45593999997E+02  0.45594000000E+02  0.51100000000E-03 0.  1.
         11   -1    0    0    0    0 -0.00000000000E+00 -0.00000000000E+00 -0.45593999997E+02  0.45594000000E+02  0.51100000000E-03 0. -1.
    9900012    2    1    2    0    0  0.99815585790E+01  0.80014340825E+01 -0.38594186617E+02  0.50528859580E+02  0.29999999179E+02 0.  0.
        -12    1    1    2    0    0 -0.99815585790E+01 -0.80014340825E+01  0.38594186617E+02  0.40659140420E+02  0.00000000000E+00 0.  1.
         11    1    3    3    0    0  0.53627561705E+01 -0.21271808506E+01 -0.49815890160E+01  0.76223540655E+01  0.51100000000E-03 0. -1.
        -11    1    3    3    0    0  0.80331311317E+01 -0.60304264274E+01 -0.10881755771E+02  0.14809113666E+02  0.51100000000E-03 0.  1.
        -12    1    3    3    0    0 -0.34143287231E+01  0.16159041360E+02 -0.22730841831E+02  0.28097391848E+02  0.00000000000E+00 0.  1.
</event>
<event>
 7    1  0.5138511E-013  0.5052886E+02  0.7816164E-02  0.1300439E+00
        -11   -1    0    0    0    0  0.00000000000E+00  0.00000000000E+00  0.45593999997E+02  0.45594000000E+02  0.51100000000E-03 0.  1.
         11   -1    0    0    0    0 -0.00000000000E+00 -0.00000000000E+00 -0.45593999997E+02  0.45594000000E+02  0.51100000000E-03 0. -1.
    9900012    2    1    2    0    0  0.12751404189E+02 -0.38336534599E+02  0.45691950053E+01  0.50528859123E+02  0.29999997790E+02 0.  0.
        -12    1    1    2    0    0 -0.12751404189E+02  0.38336534599E+02 -0.45691950053E+01  0.40659140877E+02  0.00000000000E+00 0.  1.
         11    1    3    3    0    0 -0.18952876033E+01 -0.89031769371E+01  0.22919862042E+01  0.93867926202E+01  0.51100000000E-03 0. -1.
        -11    1    3    3    0    0  0.15878535663E+02 -0.29008207031E+02  0.90173893630E+01  0.34277066402E+02  0.51100000000E-03 0.  1.
        -12    1    3    3    0    0 -0.12318438706E+01 -0.42515063123E+00 -0.67401805619E+01  0.68650001010E+01  0.00000000000E+00 0.  1.
</event>
<event>
 7    1  0.5138511E-013  0.5052886E+02  0.7816164E-02  0.1300439E+00
        -11   -1    0    0    0    0  0.00000000000E+00  0.00000000000E+00  0.45593999997E+02  0.45594000000E+02  0.51100000000E-03 0.  1.
         11   -1    0    0    0    0 -0.00000000000E+00 -0.00000000000E+00 -0.45593999997E+02  0.45594000000E+02  0.51100000000E-03 0. -1.
    9900012    2    1    2    0    0  0.31644608497E+02  0.37785561762E+01 -0.25248892204E+02  0.50528864603E+02  0.30000014447E+02 0.  0.
        -12    1    1    2    0    0 -0.31644608497E+02 -0.37785561762E+01  0.25248892204E+02  0.40659135397E+02  0.00000000000E+00 0.  1.
         11    1    3    3    0    0  0.77542181772E+01  0.97145181971E+01 -0.10656851174E+02  0.16372789638E+02  0.51100000000E-03 0. -1.
        -11    1    3    3    0    0  0.42404863651E+01 -0.53197348282E+01  0.33112693326E+01  0.75660959622E+01  0.51100000000E-03 0.  1.
         12    1    3    3    0    0  0.19649903955E+02 -0.61622719270E+00 -0.17903310363E+02  0.26589979002E+02  0.00000000000E+00 0. -1.
</event>
<event>
 7    1  0.5138511E-013  0.5052886E+02  0.7816164E-02  0.1300439E+00
        -11   -1    0    0    0    0  0.00000000000E+00  0.00000000000E+00  0.45593999997E+02  0.45594000000E+02  0.51100000000E-03 0.  1.
         11   -1    0    0    0    0 -0.00000000000E+00 -0.00000000000E+00 -0.45593999997E+02  0.45594000000E+02  0.51100000000E-03 0. -1.
    9900012    2    1    2    0    0  0.78921947546E+01  0.34626096135E+02 -0.19796769700E+02  0.50528863731E+02  0.30000011797E+02 0.  0.
        -12    1    1    2    0    0 -0.78921947546E+01 -0.34626096135E+02  0.19796769700E+02  0.40659136269E+02  0.00000000000E+00 0.  1.
         11    1    3    3    0    0 -0.52001443814E+01  0.89358621956E+01 -0.66160320552E+01  0.12274486351E+02  0.51100000000E-03 0. -1.
        -11    1    3    3    0    0  0.58283771717E+01 -0.24634024846E+01 -0.49572133059E+01  0.80381774227E+01  0.51100000000E-03 0.  1.
         12    1    3    3    0    0  0.72639619643E+01  0.28153636424E+02 -0.82235243389E+01  0.30216199957E+02  0.00000000000E+00 0. -1.
</event>
<event>
 7    1  0.5138511E-013  0.5052888E+02  0.7816164E-02  0.1300439E+00
        -11   -1    0    0    0    0  0.00000000000E+00  0.00000000000E+00  0.45593999997E+02  0.45594000000E+02  0.51100000000E-03 0.  1.
         11   -1    0    0    0    0 -0.00000000000E+00 -0.00000000000E+00 -0.45593999997E+02  0.45594000000E+02  0.51100000000E-03 0. -1.
    9900012    2    1    2    0    0 -0.28793947835E+02 -0.11354261353E+02 -0.26365766351E+02  0.50528876571E+02  0.30000050824E+02 0.  0.
        -12    1    1    2    0    0  0.28793947835E+02  0.11354261353E+02  0.26365766351E+02  0.40659123429E+02  0.00000000000E+00 0.  1.
         11    1    3    3    0    0 -0.75721623230E+01 -0.63755158711E+01 -0.15769771860E+02  0.18619091000E+02  0.51100000000E-03 0. -1.
        -11    1    3    3    0    0  0.36428187760E+01 -0.85522743756E+00  0.14015795633E+01  0.39957437528E+01  0.51100000000E-03 0.  1.
         12    1    3    3    0    0 -0.24864604288E+02 -0.41235180442E+01 -0.11997574054E+02  0.27914041818E+02  0.00000000000E+00 0. -1.
</event>
<event>
 7    1  0.5138511E-013  0.5052886E+02  0.7816164E-02  0.1300439E+00
        -11   -1    0    0    0    0  0.00000000000E+00  0.00000000000E+00  0.45593999997E+02  0.45594000000E+02  0.51100000000E-03 0.  1.
         11   -1    0    0    0    0 -0.00000000000E+00 -0.00000000000E+00 -0.45593999997E+02  0.45594000000E+02  0.51100000000E-03 0. -1.
    9900012    2    1    2    0    0  0.18754044878E+02  0.32832114096E+02 -0.14950053198E+02  0.50528855814E+02  0.29999987732E+02 0.  0.
        -12    1    1    2    0    0 -0.18754044878E+02 -0.32832114096E+02  0.14950053198E+02  0.40659144186E+02  0.00000000000E+00 0.  1.
         11    1    3    3    0    0  0.10935295157E+02  0.71347847953E+01 -0.15832733189E+02  0.20522214177E+02  0.51100000000E-03 0. -1.
        -11    1    3    3    0    0  0.94601371324E+00 -0.11280069955E+01  0.17680653655E+01  0.23007383870E+01  0.51100000000E-03 0.  1.
        -12    1    3    3    0    0  0.68727360083E+01  0.26825336296E+02 -0.88538537473E+00  0.27705903250E+02  0.00000000000E+00 0.  1.
</event>
<event>
 7    1  0.5138511E-013  0.5052886E+02  0.7816164E-02  0.1300439E+00
        -11   -1    0    0    0    0  0.00000000000E+00  0.00000000000E+00  0.45593999997E+02  0.45594000000E+02  0.51100000000E-03 0.  1.
         11   -1    0    0    0    0 -0.00000000000E+00 -0.00000000000E+00 -0.45593999997E+02  0.45594000000E+02  0.51100000000E-03 0. -1.
    9900012    2    1    2    0    0  0.20267360149E+01  0.32094674519E+02 -0.24879513716E+02  0.50528855960E+02  0.29999988175E+02 0.  0.
        -12    1    1    2    0    0 -0.20267360149E+01 -0.32094674519E+02  0.24879513716E+02  0.40659144040E+02  0.00000000000E+00 0.  1.
         11    1    3    3    0    0 -0.16685575477E+01  0.14064464024E+02 -0.20225494575E+02  0.24691372251E+02  0.51100000000E-03 0. -1.
        -11    1    3    3    0    0  0.92683924139E+01  0.13215399613E+02 -0.76796378695E+01  0.17875310429E+02  0.51100000000E-03 0.  1.
        -12    1    3    3    0    0 -0.55730988513E+01  0.48148108831E+01  0.30256187290E+01  0.79621732800E+01  0.00000000000E+00 0.  1.
</event>
<event>
 7    1  0.5138511E-013  0.5052883E+02  0.7816164E-02  0.1300439E+00
        -11   -1    0    0    0    0  0.00000000000E+00  0.00000000000E+00  0.45593999997E+02  0.45594000000E+02  0.51100000000E-03 0.  1.
         11   -1    0    0    0    0 -0.00000000000E+00 -0.00000000000E+00 -0.45593999997E+02  0.45594000000E+02  0.51100000000E-03 0. -1.
    9900012    2    1    2    0    0 -0.11220526207E+02 -0.31368045281E+02 -0.23309096085E+02  0.50528825963E+02  0.29999896996E+02 0.  0.
        -12    1    1    2    0    0  0.11220526207E+02  0.31368045281E+02  0.23309096085E+02  0.40659174037E+02  0.00000000000E+00 0.  1.
         11    1    3    3    0    0 -0.52403799685E+01  0.11076293252E+00 -0.65816950508E+01  0.84138315079E+01  0.51100000000E-03 0. -1.
        -11    1    3    3    0    0 -0.10331898470E+02 -0.24891023935E+02 -0.20007869455E+02  0.33565250467E+02  0.51100000000E-03 0.  1.
        -12    1    3    3    0    0  0.43517522320E+01 -0.65877842785E+01  0.32804684212E+01  0.85497439875E+01  0.00000000000E+00 0.  1.
</event>
<event>
 7    1  0.5138511E-013  0.5052886E+02  0.7816164E-02  0.1300439E+00
        -11   -1    0    0    0    0  0.00000000000E+00  0.00000000000E+00  0.45593999997E+02  0.45594000000E+02  0.51100000000E-03 0.  1.
         11   -1    0    0    0    0 -0.00000000000E+00 -0.00000000000E+00 -0.45593999997E+02  0.45594000000E+02  0.51100000000E-03 0. -1.
    9900012    2    1    2    0    0  0.14648748493E+02  0.25315564563E+02 -0.28243613452E+02  0.50528863974E+02  0.30000012537E+02 0.  0.
        -12    1    1    2    0    0 -0.14648748493E+02 -0.25315564563E+02  0.28243613452E+02  0.40659136026E+02  0.00000000000E+00 0.  1.
         11    1    3    3    0    0  0.75695430565E+01  0.68404476540E+01  0.10757625166E+01  0.10258994661E+02  0.51100000000E-03 0.  1.
        -11    1    3    3    0    0  0.61927874551E+01 -0.24293754048E+01 -0.62928170038E+01  0.91570752659E+01  0.51100000000E-03 0. -1.
         12    1    3    3    0    0  0.88641798096E+00  0.20904492314E+02 -0.23026558965E+02  0.31112794048E+02  0.00000000000E+00 0. -1.
</event>
<event>
 7    1  0.5138511E-013  0.5052885E+02  0.7816164E-02  0.1300439E+00
        -11   -1    0    0    0    0  0.00000000000E+00  0.00000000000E+00  0.45593999997E+02  0.45594000000E+02  0.51100000000E-03 0.  1.
         11   -1    0    0    0    0 -0.00000000000E+00 -0.00000000000E+00 -0.45593999997E+02  0.45594000000E+02  0.51100000000E-03 0. -1.
    9900012    2    1    2    0    0 -0.12424403823E+02 -0.24641199284E+02 -0.29859872752E+02  0.50528849575E+02  0.29999968767E+02 0.  0.
        -12    1    1    2    0    0  0.12424403823E+02  0.24641199284E+02  0.29859872752E+02  0.40659150425E+02  0.00000000000E+00 0.  1.
         11    1    3    3    0    0  0.42802643573E+01  0.30909349288E+01 -0.10364288266E+02  0.11631552486E+02  0.51100000000E-03 0.  1.
        -11    1    3    3    0    0 -0.11707323247E+02 -0.10889084337E+02 -0.10799758390E+02  0.19294257095E+02  0.51100000000E-03 0. -1.
        -12    1    3    3    0    0 -0.49973449338E+01 -0.16843049876E+02 -0.86958260956E+01  0.19603039994E+02  0.00000000000E+00 0.  1.
</event>
<event>
 7    1  0.5138511E-013  0.5052885E+02  0.7816164E-02  0.1300439E+00
        -11   -1    0    0    0    0  0.00000000000E+00  0.00000000000E+00  0.45593999997E+02  0.45594000000E+02  0.51100000000E-03 0.  1.
         11   -1    0    0    0    0 -0.00000000000E+00 -0.00000000000E+00 -0.45593999997E+02  0.45594000000E+02  0.51100000000E-03 0. -1.
    9900012    2    1    2    0    0  0.49078150200E+01  0.34825029240E+02 -0.20403361248E+02  0.50528850229E+02  0.29999970757E+02 0.  0.
        -12    1    1    2    0    0 -0.49078150200E+01 -0.34825029240E+02  0.20403361248E+02  0.40659149771E+02  0.00000000000E+00 0.  1.
         11    1    3    3    0    0  0.32986848056E+01  0.10435220453E+02 -0.98823884682E+01  0.14745736653E+02  0.51100000000E-03 0. -1.
        -11    1    3    3    0    0 -0.50863858282E+01 -0.88788262477E+00 -0.79878056304E+01  0.95112930455E+01  0.51100000000E-03 0.  1.
        -12    1    3    3    0    0  0.66955160426E+01  0.25277691412E+02 -0.25331671497E+01  0.26271820531E+02  0.00000000000E+00 0.  1.
</event>
<event>
 7    1  0.5138511E-013  0.5052886E+02  0.7816164E-02  0.1300439E+00
        -11   -1    0    0    0    0  0.00000000000E+00  0.00000000000E+00  0.45593999997E+02  0.45594000000E+02  0.51100000000E-03 0.  1.
         11   -1    0    0    0    0 -0.00000000000E+00 -0.00000000000E+00 -0.45593999997E+02  0.45594000000E+02  0.51100000000E-03 0. -1.
    9900012    2    1    2    0    0 -0.14482619721E+02 -0.27750559585E+02 -0.25948525404E+02  0.50528858324E+02  0.29999995360E+02 0.  0.
        -12    1    1    2    0    0  0.14482619721E+02  0.27750559585E+02  0.25948525404E+02  0.40659141676E+02  0.00000000000E+00 0.  1.
         11    1    3    3    0    0 -0.10862189575E+01 -0.15397213376E+02 -0.23387168062E+02  0.28021664504E+02  0.51100000000E-03 0. -1.
        -11    1    3    3    0    0  0.62625683911E+00 -0.18133270167E+00  0.30423790358E+01  0.31114545852E+01  0.51100000000E-03 0.  1.
        -12    1    3    3    0    0 -0.14022657603E+02 -0.12172013507E+02 -0.56037363775E+01  0.19395739234E+02  0.00000000000E+00 0.  1.
</event>
<event>
 7    1  0.5138511E-013  0.5052885E+02  0.7816164E-02  0.1300439E+00
        -11   -1    0    0    0    0  0.00000000000E+00  0.00000000000E+00  0.45593999997E+02  0.45594000000E+02  0.51100000000E-03 0.  1.
         11   -1    0    0    0    0 -0.00000000000E+00 -0.00000000000E+00 -0.45593999997E+02  0.45594000000E+02  0.51100000000E-03 0. -1.
    9900012    2    1    2    0    0  0.29481141219E+02  0.13444192811E+02 -0.24561815785E+02  0.50528846018E+02  0.29999957955E+02 0.  0.
        -12    1    1    2    0    0 -0.29481141219E+02 -0.13444192811E+02  0.24561815785E+02  0.40659153982E+02  0.00000000000E+00 0.  1.
         11    1    3    3    0    0  0.45655949476E+01  0.11100309714E+02 -0.74387747625E+01  0.14120796833E+02  0.51100000000E-03 0. -1.
        -11    1    3    3    0    0  0.38485528057E+00 -0.28101563384E+01  0.30994590083E+01  0.42013972245E+01  0.51100000000E-03 0.  1.
         12    1    3    3    0    0  0.24530690990E+02  0.51540394354E+01 -0.20222500031E+02  0.32206651960E+02  0.00000000000E+00 0. -1.
</event>
<event>
 7    1  0.5138511E-013  0.5052886E+02  0.7816164E-02  0.1300439E+00
        -11   -1    0    0    0    0  0.00000000000E+00  0.00000000000E+00  0.45593999997E+02  0.45594000000E+02  0.51100000000E-03 0.  1.
         11   -1    0    0    0    0 -0.00000000000E+00 -0.00000000000E+00 -0.45593999997E+02  0.45594000000E+02  0.51100000000E-03 0. -1.
    9900012    2    1    2    0    0 -0.24691897284E+02 -0.16006851128E+02 -0.28058099288E+02  0.50528855761E+02  0.29999987573E+02 0.  0.
        -12    1    1    2    0    0  0.24691897284E+02  0.16006851128E+02  0.28058099288E+02  0.40659144239E+02  0.00000000000E+00 0.  1.
         11    1    3    3    0    0 -0.14592730785E+02 -0.16903014984E+02 -0.25862995825E+02  0.34169493128E+02  0.51100000000E-03 0. -1.
        -11    1    3    3    0    0 -0.92747763919E+01 -0.47087407820E+01 -0.24578501880E+01  0.10688065526E+02  0.51100000000E-03 0.  1.
        -12    1    3    3    0    0 -0.82439010712E+00  0.56049046379E+01  0.26274672428E+00  0.56712971082E+01  0.00000000000E+00 0.  1.
</event>
<event>
 7    1  0.5138511E-013  0.5052886E+02  0.7816164E-02  0.1300439E+00
        -11   -1    0    0    0    0  0.00000000000E+00  0.00000000000E+00  0.45593999997E+02  0.45594000000E+02  0.51100000000E-03 0. -1.
         11   -1    0    0    0    0 -0.00000000000E+00 -0.00000000000E+00 -0.45593999997E+02  0.45594000000E+02  0.51100000000E-03 0.  1.
    9900012    2    1    2    0    0  0.84372504760E+01  0.38269637351E+02 -0.10835739983E+02  0.50528860812E+02  0.30000002923E+02 0.  0.
        -12    1    1    2    0    0 -0.84372504760E+01 -0.38269637351E+02  0.10835739983E+02  0.40659139188E+02  0.00000000000E+00 0.  1.
         11    1    3    3    0    0  0.52497052857E+01  0.29382974475E+02 -0.58059692630E+00  0.29853905735E+02  0.51100000000E-03 0. -1.
        -11    1    3    3    0    0  0.16045044717E+01  0.76618719490E+00  0.38961328913E+01  0.42826778054E+01  0.51100000000E-03 0.  1.
         12    1    3    3    0    0  0.15830407186E+01  0.81204756813E+01 -0.14151275947E+02  0.16392277272E+02  0.00000000000E+00 0. -1.
</event>
<event>
 7    1  0.5138511E-013  0.5052887E+02  0.7816164E-02  0.1300439E+00
        -11   -1    0    0    0    0  0.00000000000E+00  0.00000000000E+00  0.45593999997E+02  0.45594000000E+02  0.51100000000E-03 0. -1.
         11   -1    0    0    0    0 -0.00000000000E+00 -0.00000000000E+00 -0.45593999997E+02  0.45594000000E+02  0.51100000000E-03 0.  1.
    9900012    2    1    2    0    0 -0.20595925356E+02 -0.28194929371E+02  0.20833118562E+02  0.50528868030E+02  0.30000024865E+02 0.  0.
        -12    1    1    2    0    0  0.20595925356E+02  0.28194929371E+02 -0.20833118562E+02  0.40659131970E+02  0.00000000000E+00 0.  1.
         11    1    3    3    0    0 -0.11487810769E+02 -0.88489794533E+01  0.19674050383E+02  0.24440591081E+02  0.51100000000E-03 0. -1.
        -11    1    3    3    0    0  0.19434333753E+01  0.18791772091E+00  0.29891496959E+01  0.35703308698E+01  0.51100000000E-03 0.  1.
         12    1    3    3    0    0 -0.11051547962E+02 -0.19533867638E+02 -0.18300815170E+01  0.22517946079E+02  0.00000000000E+00 0. -1.
</event>
<event>
 7    1  0.5138511E-013  0.5052886E+02  0.7816164E-02  0.1300439E+00
        -11   -1    0    0    0    0  0.00000000000E+00  0.00000000000E+00  0.45593999997E+02  0.45594000000E+02  0.51100000000E-03 0.  1.
         11   -1    0    0    0    0 -0.00000000000E+00 -0.00000000000E+00 -0.45593999997E+02  0.45594000000E+02  0.51100000000E-03 0. -1.
    9900012    2    1    2    0    0 -0.20259799241E+02  0.19989927193E+02 -0.29036345530E+02  0.50528855687E+02  0.29999987347E+02 0.  0.
        -12    1    1    2    0    0  0.20259799241E+02 -0.19989927193E+02  0.29036345530E+02  0.40659144313E+02  0.00000000000E+00 0.  1.
         11    1    3    3    0    0  0.62008438869E+00  0.11414263955E+02 -0.83860589773E+01  0.14177302695E+02  0.51100000000E-03 0. -1.
        -11    1    3    3    0    0  0.19663728334E+01 -0.20567844623E+01  0.11128477948E+01  0.30553911239E+01  0.51100000000E-03 0.  1.
        -12    1    3    3    0    0 -0.22846256463E+02  0.10632447701E+02 -0.21763134348E+02  0.33296161868E+02  0.00000000000E+00 0.  1.
</event>
<event>
 7    1  0.6112930E-013  0.5052888E+02  0.7816164E-02  0.1300439E+00
        -11   -1    0    0    0    0  0.00000000000E+00  0.00000000000E+00  0.45593999997E+02  0.45594000000E+02  0.51100000000E-03 0. -1.
         11   -1    0    0    0    0 -0.00000000000E+00 -0.00000000000E+00 -0.45593999997E+02  0.45594000000E+02  0.51100000000E-03 0.  1.
    9900012    2    1    2    0    0 -0.15143483619E+02 -0.14734238119E+02  0.34738184430E+02  0.50528876466E+02  0.30000050507E+02 0.  0.
        -12    1    1    2    0    0  0.15143483619E+02  0.14734238119E+02 -0.34738184430E+02  0.40659123534E+02  0.00000000000E+00 0.  1.
         11    1    3    3    0    0 -0.93728188358E+01 -0.49935623653E+00  0.20985119605E+02  0.22988569653E+02  0.51100000000E-03 0. -1.
        -11    1    3    3    0    0 -0.12284678621E+02 -0.71966731394E+01  0.89237698914E+01  0.16802949218E+02  0.51100000000E-03 0.  1.
        -12    1    3    3    0    0  0.65140138376E+01 -0.70382087427E+01  0.48292949329E+01  0.10737357595E+02  0.00000000000E+00 0.  1.
</event>
<event>
 7    1  0.5138511E-013  0.5052884E+02  0.7816164E-02  0.1300439E+00
        -11   -1    0    0    0    0  0.00000000000E+00  0.00000000000E+00  0.45593999997E+02  0.45594000000E+02  0.51100000000E-03 0.  1.
         11   -1    0    0    0    0 -0.00000000000E+00 -0.00000000000E+00 -0.45593999997E+02  0.45594000000E+02  0.51100000000E-03 0. -1.
    9900012    2    1    2    0    0  0.25780398507E+02  0.13784993014E+02 -0.28257953391E+02  0.50528844703E+02  0.29999953960E+02 0.  0.
        -12    1    1    2    0    0 -0.25780398507E+02 -0.13784993014E+02  0.28257953391E+02  0.40659155297E+02  0.00000000000E+00 0.  1.
         11    1    3    3    0    0  0.62335743703E+01  0.16890501558E+02 -0.10873673404E+02  0.21032909116E+02  0.51100000000E-03 0. -1.
        -11    1    3    3    0    0  0.10963033415E+02  0.46758876054E+01 -0.11235749981E+02  0.16379685725E+02  0.51100000000E-03 0.  1.
        -12    1    3    3    0    0  0.85837907225E+01 -0.77813961502E+01 -0.61485300060E+01  0.13116249862E+02  0.00000000000E+00 0.  1.
</event>
<event>
 7    1  0.5138511E-013  0.5052886E+02  0.7816164E-02  0.1300439E+00
        -11   -1    0    0    0    0  0.00000000000E+00  0.00000000000E+00  0.45593999997E+02  0.45594000000E+02  0.51100000000E-03 0.  1.
         11   -1    0    0    0    0 -0.00000000000E+00 -0.00000000000E+00 -0.45593999997E+02  0.45594000000E+02  0.51100000000E-03 0. -1.
    9900012    2    1    2    0    0  0.37905816193E+02  0.82773001787E+01 -0.12157330018E+02  0.50528864831E+02  0.30000015141E+02 0.  0.
        -12    1    1    2    0    0 -0.37905816193E+02 -0.82773001787E+01  0.12157330018E+02  0.40659135169E+02  0.00000000000E+00 0.  1.
         11    1    3    3    0    0  0.14214615790E+02  0.46069876677E+01 -0.51217599138E+01  0.15795950820E+02  0.51100000000E-03 0. -1.
        -11    1    3    3    0    0 -0.27158430181E+01  0.52349109549E+01  0.27765982982E+01  0.65184042814E+01  0.51100000000E-03 0.  1.
         12    1    3    3    0    0  0.26407043422E+02 -0.15645984440E+01 -0.98121684021E+01  0.28214509730E+02  0.00000000000E+00 0. -1.
</event>
<event>
 7    1  0.5138511E-013  0.5052878E+02  0.7816164E-02  0.1300439E+00
        -11   -1    0    0    0    0  0.00000000000E+00  0.00000000000E+00  0.45593999997E+02  0.45594000000E+02  0.51100000000E-03 0.  1.
         11   -1    0    0    0    0 -0.00000000000E+00 -0.00000000000E+00 -0.45593999997E+02  0.45594000000E+02  0.51100000000E-03 0. -1.
    9900012    2    1    2    0    0 -0.34165232414E+02  0.67292759604E+01  0.20991093878E+02  0.50528778622E+02  0.29999753099E+02 0.  0.
        -12    1    1    2    0    0  0.34165232414E+02 -0.67292759604E+01 -0.20991093878E+02  0.40659221378E+02  0.00000000000E+00 0.  1.
         11    1    3    3    0    0 -0.99045063379E+01  0.10865617635E+02  0.27710185167E+01  0.14961264527E+02  0.51100000000E-03 0. -1.
        -11    1    3    3    0    0 -0.23721574574E+01  0.32393097170E+01  0.10454911423E+02  0.11199349605E+02  0.51100000000E-03 0.  1.
        -12    1    3    3    0    0 -0.21888568619E+02 -0.73756513912E+01  0.77651639386E+01  0.24368164490E+02  0.00000000000E+00 0.  1.
</event>
<event>
 7    1  0.5138511E-013  0.5052886E+02  0.7816164E-02  0.1300439E+00
        -11   -1    0    0    0    0  0.00000000000E+00  0.00000000000E+00  0.45593999997E+02  0.45594000000E+02  0.51100000000E-03 0. -1.
         11   -1    0    0    0    0 -0.00000000000E+00 -0.00000000000E+00 -0.45593999997E+02  0.45594000000E+02  0.51100000000E-03 0.  1.
    9900012    2    1    2    0    0 -0.15505177454E+02  0.30647604570E+01  0.37461476932E+02  0.50528861562E+02  0.30000005205E+02 0.  0.
        -12    1    1    2    0    0  0.15505177454E+02 -0.30647604570E+01 -0.37461476932E+02  0.40659138438E+02  0.00000000000E+00 0.  1.
         11    1    3    3    0    0  0.66666386099E+01  0.36323152722E+00  0.14791647896E+02  0.16228643050E+02  0.51100000000E-03 0. -1.
        -11    1    3    3    0    0 -0.88865513417E+00  0.70305306210E+00 -0.15986065987E+01  0.19594731114E+01  0.51100000000E-03 0.  1.
         12    1    3    3    0    0 -0.21283160929E+02  0.19984758677E+01  0.24268435635E+02  0.32340745401E+02  0.00000000000E+00 0. -1.
</event>
<event>
 7    1  0.5138511E-013  0.5052886E+02  0.7816164E-02  0.1300439E+00
        -11   -1    0    0    0    0  0.00000000000E+00  0.00000000000E+00  0.45593999997E+02  0.45594000000E+02  0.51100000000E-03 0.  1.
         11   -1    0    0    0    0 -0.00000000000E+00 -0.00000000000E+00 -0.45593999997E+02  0.45594000000E+02  0.51100000000E-03 0. -1.
    9900012    2    1    2    0    0 -0.21077833686E+02  0.33548061340E+02 -0.91333522841E+01  0.50528860603E+02  0.30000002288E+02 0.  0.
        -12    1    1    2    0    0  0.21077833686E+02 -0.33548061340E+02  0.91333522841E+01  0.40659139397E+02  0.00000000000E+00 0.  1.
         11    1    3    3    0    0 -0.12087662795E+02  0.53875243752E+01 -0.23682348890E+01  0.13444164068E+02  0.51100000000E-03 0. -1.
        -11    1    3    3    0    0 -0.18223010933E-01  0.84932075040E+01  0.73794047460E+01  0.11251245284E+02  0.51100000000E-03 0.  1.
         12    1    3    3    0    0 -0.89719478794E+01  0.19667329461E+02 -0.14144522141E+02  0.25833451250E+02  0.00000000000E+00 0. -1.
</event>
<event>
 7    1  0.5138511E-013  0.5052888E+02  0.7816164E-02  0.1300439E+00
        -11   -1    0    0    0    0  0.00000000000E+00  0.00000000000E+00  0.45593999997E+02  0.45594000000E+02  0.51100000000E-03 0.  1.
         11   -1    0    0    0    0 -0.00000000000E+00 -0.00000000000E+00 -0.45593999997E+02  0.45594000000E+02  0.51100000000E-03 0. -1.
    9900012    2    1    2    0    0 -0.23196716969E+02 -0.21120706248E+02 -0.25864877889E+02  0.50528882711E+02  0.30000069487E+02 0.  0.
        -12    1    1    2    0    0  0.23196716969E+02  0.21120706248E+02  0.25864877889E+02  0.40659117289E+02  0.00000000000E+00 0.  1.
         11    1    3    3    0    0 -0.75150228795E+01 -0.12725196994E+02 -0.12139125858E+02  0.19124972791E+02  0.51100000000E-03 0. -1.
        -11    1    3    3    0    0  0.11328398306E+01  0.14596690610E+01 -0.11659355097E+02  0.11804851604E+02  0.51100000000E-03 0.  1.
         12    1    3    3    0    0 -0.16814533920E+02 -0.98551783145E+01 -0.20663969341E+01  0.19599058315E+02  0.00000000000E+00 0. -1.
</event>
<event>
 7    1  0.5138511E-013  0.5052886E+02  0.7816164E-02  0.1300439E+00
        -11   -1    0    0    0    0  0.00000000000E+00  0.00000000000E+00  0.45593999997E+02  0.45594000000E+02  0.51100000000E-03 0.  1.
         11   -1    0    0    0    0 -0.00000000000E+00 -0.00000000000E+00 -0.45593999997E+02  0.45594000000E+02  0.51100000000E-03 0. -1.
    9900012    2    1    2    0    0 -0.15759482467E+02  0.12462933438E+02 -0.35347983322E+02  0.50528856841E+02  0.29999990854E+02 0.  0.
        -12    1    1    2    0    0  0.15759482467E+02 -0.12462933438E+02  0.35347983322E+02  0.40659143159E+02  0.00000000000E+00 0.  1.
         11    1    3    3    0    0  0.34589358122E+00  0.25586927528E+01 -0.17353480666E+02  0.17544510323E+02  0.51100000000E-03 0. -1.
        -11    1    3    3    0    0 -0.39496750894E+01  0.14162988200E+02 -0.85058471272E+01  0.16986453534E+02  0.51100000000E-03 0.  1.
        -12    1    3    3    0    0 -0.12155700959E+02 -0.42587475149E+01 -0.94886555281E+01  0.15997892984E+02  0.00000000000E+00 0.  1.
</event>
<event>
 7    1  0.5138511E-013  0.5052887E+02  0.7816164E-02  0.1300439E+00
        -11   -1    0    0    0    0  0.00000000000E+00  0.00000000000E+00  0.45593999997E+02  0.45594000000E+02  0.51100000000E-03 0.  1.
         11   -1    0    0    0    0 -0.00000000000E+00 -0.00000000000E+00 -0.45593999997E+02  0.45594000000E+02  0.51100000000E-03 0. -1.
    9900012    2    1    2    0    0  0.38132275848E+01 -0.36916459090E+02  0.16607195410E+02  0.50528873155E+02  0.30000040443E+02 0.  0.
        -12    1    1    2    0    0 -0.38132275848E+01  0.36916459090E+02 -0.16607195410E+02  0.40659126845E+02  0.00000000000E+00 0.  1.
         11    1    3    3    0    0  0.36114758663E+01 -0.18908886603E+00  0.12083394500E+01  0.38129512218E+01  0.51100000000E-03 0. -1.
        -11    1    3    3    0    0  0.89727620548E+01 -0.27167495402E+02  0.29960340057E+01  0.28767333650E+02  0.51100000000E-03 0.  1.
        -12    1    3    3    0    0 -0.87710103363E+01 -0.95598748218E+01  0.12402821955E+02  0.17948588283E+02  0.00000000000E+00 0.  1.
</event>
<event>
 7    1  0.5138511E-013  0.5052885E+02  0.7816164E-02  0.1300439E+00
        -11   -1    0    0    0    0  0.00000000000E+00  0.00000000000E+00  0.45593999997E+02  0.45594000000E+02  0.51100000000E-03 0.  1.
         11   -1    0    0    0    0 -0.00000000000E+00 -0.00000000000E+00 -0.45593999997E+02  0.45594000000E+02  0.51100000000E-03 0. -1.
    9900012    2    1    2    0    0 -0.26431771286E+02  0.21639251078E+02 -0.22051552099E+02  0.50528847641E+02  0.29999962890E+02 0.  0.
        -12    1    1    2    0    0  0.26431771286E+02 -0.21639251078E+02  0.22051552099E+02  0.40659152359E+02  0.00000000000E+00 0.  1.
         11    1    3    3    0    0 -0.13241411582E+02  0.13665641410E+02 -0.21650547954E+02  0.28824138544E+02  0.51100000000E-03 0. -1.
        -11    1    3    3    0    0  0.34220906896E+01  0.21645174066E+01 -0.66765437707E+00  0.41038522049E+01  0.51100000000E-03 0.  1.
         12    1    3    3    0    0 -0.16612450394E+02  0.58090922616E+01  0.26665023210E+00  0.17600856892E+02  0.00000000000E+00 0. -1.
</event>
<event>
 7    1  0.5138511E-013  0.5052887E+02  0.7816164E-02  0.1300439E+00
        -11   -1    0    0    0    0  0.00000000000E+00  0.00000000000E+00  0.45593999997E+02  0.45594000000E+02  0.51100000000E-03 0. -1.
         11   -1    0    0    0    0 -0.00000000000E+00 -0.00000000000E+00 -0.45593999997E+02  0.45594000000E+02  0.51100000000E-03 0.  1.
    9900012    2    1    2    0    0  0.12491042844E+02 -0.30786653818E+02  0.23437590294E+02  0.50528870110E+02  0.30000031186E+02 0.  0.
        -12    1    1    2    0    0 -0.12491042844E+02  0.30786653818E+02 -0.23437590294E+02  0.40659129890E+02  0.00000000000E+00 0.  1.
         11    1    3    3    0    0  0.40833530694E+01 -0.15464992081E+02  0.79667915151E+01  0.17869233886E+02  0.51100000000E-03 0. -1.
        -11    1    3    3    0    0 -0.34994597509E+01 -0.65611797419E+01 -0.38169837832E+01  0.83585084564E+01  0.51100000000E-03 0.  1.
         12    1    3    3    0    0  0.11907149525E+02 -0.87604819948E+01  0.19287782562E+02  0.24301127767E+02  0.00000000000E+00 0. -1.
</event>
<event>
 7    1  0.5138511E-013  0.5052888E+02  0.7816164E-02  0.1300439E+00
        -11   -1    0    0    0    0  0.00000000000E+00  0.00000000000E+00  0.45593999997E+02  0.45594000000E+02  0.51100000000E-03 0.  1.
         11   -1    0    0    0    0 -0.00000000000E+00 -0.00000000000E+00 -0.45593999997E+02  0.45594000000E+02  0.51100000000E-03 0. -1.
    9900012    2    1    2    0    0  0.37600980382E+02 -0.89368225660E+01 -0.12627898468E+02  0.50528876264E+02  0.30000049892E+02 0.  0.
        -12    1    1    2    0    0 -0.37600980382E+02  0.89368225660E+01  0.12627898468E+02  0.40659123736E+02  0.00000000000E+00 0.  1.
         11    1    3    3    0    0  0.68859789379E+01 -0.57720200861E+01 -0.11889935772E+02  0.14903137077E+02  0.51100000000E-03 0. -1.
        -11    1    3    3    0    0  0.10343134423E+02  0.52620374646E+01 -0.58485167564E+01  0.12995176662E+02  0.51100000000E-03 0.  1.
         12    1    3    3    0    0  0.20371867022E+02 -0.84268399445E+01  0.51105540610E+01  0.22630562525E+02  0.00000000000E+00 0. -1.
</event>
<event>
 7    1  0.5138511E-013  0.5052886E+02  0.7816164E-02  0.1300439E+00
        -11   -1    0    0    0    0  0.00000000000E+00  0.00000000000E+00  0.45593999997E+02  0.45594000000E+02  0.51100000000E-03 0.  1.
         11   -1    0    0    0    0 -0.00000000000E+00 -0.00000000000E+00 -0.45593999997E+02  0.45594000000E+02  0.51100000000E-03 0. -1.
    9900012    2    1    2    0    0 -0.15887085449E+02  0.35985383168E+01 -0.37253408182E+02  0.50528863472E+02  0.30000011008E+02 0.  0.
        -12    1    1    2    0    0  0.15887085449E+02 -0.35985383168E+01  0.37253408182E+02  0.40659136528E+02  0.00000000000E+00 0.  1.
         11    1    3    3    0    0 -0.61396827089E+01  0.29453812437E+01 -0.73863368463E+01  0.10046339966E+02  0.51100000000E-03 0. -1.
        -11    1    3    3    0    0  0.36165050400E+01  0.92532754308E+01 -0.18312994331E+02  0.20834298081E+02  0.51100000000E-03 0.  1.
        -12    1    3    3    0    0 -0.13363907780E+02 -0.86001183577E+01 -0.11554077005E+02  0.19648225425E+02  0.00000000000E+00 0.  1.
</event>
<event>
 7    1  0.5138511E-013  0.5052886E+02  0.7816164E-02  0.1300439E+00
        -11   -1    0    0    0    0  0.00000000000E+00  0.00000000000E+00  0.45593999997E+02  0.45594000000E+02  0.51100000000E-03 0.  1.
         11   -1    0    0    0    0 -0.00000000000E+00 -0.00000000000E+00 -0.45593999997E+02  0.45594000000E+02  0.51100000000E-03 0. -1.
    9900012    2    1    2    0    0 -0.10428106041E+02 -0.47946733380E+01 -0.39005528852E+02  0.50528861186E+02  0.30000004061E+02 0.  0.
        -12    1    1    2    0    0  0.10428106041E+02  0.47946733380E+01  0.39005528852E+02  0.40659138814E+02  0.00000000000E+00 0.  1.
         11    1    3    3    0    0 -0.84770550967E+01  0.53793960219E+01 -0.22194647848E+02  0.24359818514E+02  0.51100000000E-03 0. -1.
        -11    1    3    3    0    0 -0.91041150308E+01 -0.81725433852E+01 -0.78770914595E+01  0.14550736957E+02  0.51100000000E-03 0.  1.
        -12    1    3    3    0    0  0.71530640865E+01 -0.20015259746E+01 -0.89337895452E+01  0.11618305715E+02  0.00000000000E+00 0.  1.
</event>
<event>
 7    1  0.5138511E-013  0.5052886E+02  0.7816164E-02  0.1300439E+00
        -11   -1    0    0    0    0  0.00000000000E+00  0.00000000000E+00  0.45593999997E+02  0.45594000000E+02  0.51100000000E-03 0.  1.
         11   -1    0    0    0    0 -0.00000000000E+00 -0.00000000000E+00 -0.45593999997E+02  0.45594000000E+02  0.51100000000E-03 0. -1.
    9900012    2    1    2    0    0  0.14696546321E+02 -0.75230791958E+01 -0.37156165040E+02  0.50528858410E+02  0.29999995622E+02 0.  0.
        -12    1    1    2    0    0 -0.14696546321E+02  0.75230791958E+01  0.37156165040E+02  0.40659141590E+02  0.00000000000E+00 0.  1.
         11    1    3    3    0    0 -0.25379037592E+01  0.45765109305E+01 -0.14309209102E+02  0.15236104265E+02  0.51100000000E-03 0. -1.
        -11    1    3    3    0    0  0.16604358245E+02 -0.31144646581E+01 -0.19202554882E+02  0.25576213893E+02  0.51100000000E-03 0.  1.
        -12    1    3    3    0    0  0.63009183526E+00 -0.89851254683E+01 -0.36444010565E+01  0.97165402516E+01  0.00000000000E+00 0.  1.
</event>
<event>
 7    1  0.5138511E-013  0.5052886E+02  0.7816164E-02  0.1300439E+00
        -11   -1    0    0    0    0  0.00000000000E+00  0.00000000000E+00  0.45593999997E+02  0.45594000000E+02  0.51100000000E-03 0.  1.
         11   -1    0    0    0    0 -0.00000000000E+00 -0.00000000000E+00 -0.45593999997E+02  0.45594000000E+02  0.51100000000E-03 0. -1.
    9900012    2    1    2    0    0  0.58041118328E+01 -0.18285278094E+02 -0.35848662370E+02  0.50528859541E+02  0.29999999061E+02 0.  0.
        -12    1    1    2    0    0 -0.58041118328E+01  0.18285278094E+02  0.35848662370E+02  0.40659140459E+02  0.00000000000E+00 0.  1.
         11    1    3    3    0    0  0.13513181279E+02 -0.10019614242E+02 -0.16770149143E+02  0.23753665830E+02  0.51100000000E-03 0. -1.
        -11    1    3    3    0    0 -0.46803047582E+01 -0.12534515028E+02 -0.12007776113E+02  0.17977931112E+02  0.51100000000E-03 0.  1.
         12    1    3    3    0    0 -0.30287646880E+01  0.42688511765E+01 -0.70707371146E+01  0.87972625996E+01  0.00000000000E+00 0. -1.
</event>
<event>
 7    1  0.5138511E-013  0.5052886E+02  0.7816164E-02  0.1300439E+00
        -11   -1    0    0    0    0  0.00000000000E+00  0.00000000000E+00  0.45593999997E+02  0.45594000000E+02  0.51100000000E-03 0.  1.
         11   -1    0    0    0    0 -0.00000000000E+00 -0.00000000000E+00 -0.45593999997E+02  0.45594000000E+02  0.51100000000E-03 0. -1.
    9900012    2    1    2    0    0 -0.15198220206E+02  0.10926728044E+02 -0.36094132764E+02  0.50528859537E+02  0.29999999048E+02 0.  0.
        -12    1    1    2    0    0  0.15198220206E+02 -0.10926728044E+02  0.36094132764E+02  0.40659140463E+02  0.00000000000E+00 0.  1.
         11    1    3    3    0    0  0.43940372105E+01  0.21365059287E+01 -0.10828937202E+01  0.50044859537E+01  0.51100000000E-03 0.  1.
        -11    1    3    3    0    0 -0.11080284743E+02  0.13552006452E+02 -0.29550928788E+02  0.34346571609E+02  0.51100000000E-03 0. -1.
         12    1    3    3    0    0 -0.85119726742E+01 -0.47617843361E+01 -0.54603102563E+01  0.11177801974E+02  0.00000000000E+00 0. -1.
</event>
<event>
 7    1  0.5138511E-013  0.5052888E+02  0.7816164E-02  0.1300439E+00
        -11   -1    0    0    0    0  0.00000000000E+00  0.00000000000E+00  0.45593999997E+02  0.45594000000E+02  0.51100000000E-03 0. -1.
         11   -1    0    0    0    0 -0.00000000000E+00 -0.00000000000E+00 -0.45593999997E+02  0.45594000000E+02  0.51100000000E-03 0.  1.
    9900012    2    1    2    0    0  0.92123793278E+01 -0.10621853836E+02  0.38150655845E+02  0.50528877368E+02  0.30000053248E+02 0.  0.
        -12    1    1    2    0    0 -0.92123793278E+01  0.10621853836E+02 -0.38150655845E+02  0.40659122632E+02  0.00000000000E+00 0.  1.
         11    1    3    3    0    0  0.60800284958E+01 -0.11220601391E+02  0.17658691636E+02  0.21787566010E+02  0.51100000000E-03 0. -1.
        -11    1    3    3    0    0 -0.59972125269E+01 -0.60364037494E+01  0.11529662551E+02  0.14329614339E+02  0.51100000000E-03 0.  1.
        -12    1    3    3    0    0  0.91295633588E+01  0.66351513043E+01  0.89623016579E+01  0.14411697019E+02  0.00000000000E+00 0.  1.
</event>
<event>
 7    1  0.5138511E-013  0.5052888E+02  0.7816164E-02  0.1300439E+00
        -11   -1    0    0    0    0  0.00000000000E+00  0.00000000000E+00  0.45593999997E+02  0.45594000000E+02  0.51100000000E-03 0.  1.
         11   -1    0    0    0    0 -0.00000000000E+00 -0.00000000000E+00 -0.45593999997E+02  0.45594000000E+02  0.51100000000E-03 0. -1.
    9900012    2    1    2    0    0  0.11628403179E+02 -0.37955647104E+02 -0.87928002368E+01  0.50528877486E+02  0.30000053607E+02 0.  0.
        -12    1    1    2    0    0 -0.11628403179E+02  0.37955647104E+02  0.87928002368E+01  0.40659122514E+02  0.00000000000E+00 0.  1.
         11    1    3    3    0    0 -0.63970924199E+01 -0.81721325957E+01  0.10434962526E+01  0.10430504651E+02  0.51100000000E-03 0. -1.
        -11    1    3    3    0    0  0.33568794945E+01 -0.16868642305E+02  0.18957433613E+01  0.17303571201E+02  0.51100000000E-03 0.  1.
        -12    1    3    3    0    0  0.14668616104E+02 -0.12914872203E+02 -0.11732039851E+02  0.22794801633E+02  0.00000000000E+00 0.  1.
</event>
<event>
 7    1  0.5138511E-013  0.5052886E+02  0.7816164E-02  0.1300439E+00
        -11   -1    0    0    0    0  0.00000000000E+00  0.00000000000E+00  0.45593999997E+02  0.45594000000E+02  0.51100000000E-03 0. -1.
         11   -1    0    0    0    0 -0.00000000000E+00 -0.00000000000E+00 -0.45593999997E+02  0.45594000000E+02  0.51100000000E-03 0.  1.
    9900012    2    1    2    0    0 -0.28010883659E+02  0.29463713196E+02  0.66784169474E+00  0.50528855750E+02  0.29999987536E+02 0.  0.
        -12    1    1    2    0    0  0.28010883659E+02 -0.29463713196E+02 -0.66784169474E+00  0.40659144250E+02  0.00000000000E+00 0.  1.
         11    1    3    3    0    0 -0.14638605660E+02  0.10861162533E+02  0.11078512344E+02  0.21330425763E+02  0.51100000000E-03 0. -1.
        -11    1    3    3    0    0 -0.43283232387E+01 -0.98648848226E+00  0.13308280864E+01  0.46345059328E+01  0.51100000000E-03 0.  1.
         12    1    3    3    0    0 -0.90439547606E+01  0.19589039145E+02 -0.11741498736E+02  0.24563924053E+02  0.00000000000E+00 0. -1.
</event>
<event>
 7    1  0.5138511E-013  0.5052886E+02  0.7816164E-02  0.1300439E+00
        -11   -1    0    0    0    0  0.00000000000E+00  0.00000000000E+00  0.45593999997E+02  0.45594000000E+02  0.51100000000E-03 0. -1.
         11   -1    0    0    0    0 -0.00000000000E+00 -0.00000000000E+00 -0.45593999997E+02  0.45594000000E+02  0.51100000000E-03 0.  1.
    9900012    2    1    2    0    0 -0.13212616142E+02 -0.33799852262E+02  0.18334735375E+02  0.50528858844E+02  0.29999996943E+02 0.  0.
        -12    1    1    2    0    0  0.13212616142E+02  0.33799852262E+02 -0.18334735375E+02  0.40659141156E+02  0.00000000000E+00 0.  1.
         11    1    3    3    0    0  0.19295721852E+01 -0.10179491284E+00  0.50695692149E-01  0.19329204165E+01  0.51100000000E-03 0. -1.
        -11    1    3    3    0    0 -0.18554277130E+02 -0.13001275467E+02  0.34796647569E+01  0.22921658550E+02  0.51100000000E-03 0.  1.
         12    1    3    3    0    0  0.34120888031E+01 -0.20696781883E+02  0.14804374926E+02  0.25674279878E+02  0.00000000000E+00 0. -1.
</event>
<event>
 7    1  0.5138511E-013  0.5052889E+02  0.7816164E-02  0.1300439E+00
        -11   -1    0    0    0    0  0.00000000000E+00  0.00000000000E+00  0.45593999997E+02  0.45594000000E+02  0.51100000000E-03 0.  1.
         11   -1    0    0    0    0 -0.00000000000E+00 -0.00000000000E+00 -0.45593999997E+02  0.45594000000E+02  0.51100000000E-03 0. -1.
    9900012    2    1    2    0    0  0.81215379207E+01  0.32543817432E+02 -0.22980516104E+02  0.50528885995E+02  0.30000079470E+02 0.  0.
        -12    1    1    2    0    0 -0.81215379207E+01 -0.32543817432E+02  0.22980516104E+02  0.40659114005E+02  0.00000000000E+00 0.  1.
         11    1    3    3    0    0 -0.80719689673E+00  0.33407657648E+01 -0.13523482468E+02  0.13953381707E+02  0.51100000000E-03 0. -1.
        -11    1    3    3    0    0  0.75797294783E+01  0.25590024976E+02 -0.14384218812E+02  0.30318433804E+02  0.51100000000E-03 0.  1.
        -12    1    3    3    0    0  0.13490053391E+01  0.36130266917E+01  0.49271851765E+01  0.62570704841E+01  0.00000000000E+00 0.  1.
</event>
<event>
 7    1  0.5138511E-013  0.5052886E+02  0.7816164E-02  0.1300439E+00
        -11   -1    0    0    0    0  0.00000000000E+00  0.00000000000E+00  0.45593999997E+02  0.45594000000E+02  0.51100000000E-03 0.  1.
         11   -1    0    0    0    0 -0.00000000000E+00 -0.00000000000E+00 -0.45593999997E+02  0.45594000000E+02  0.51100000000E-03 0. -1.
    9900012    2    1    2    0    0  0.25263145889E+01 -0.17800535982E+02 -0.36468128046E+02  0.50528859456E+02  0.29999998802E+02 0.  0.
        -12    1    1    2    0    0 -0.25263145889E+01  0.17800535982E+02  0.36468128046E+02  0.40659140544E+02  0.00000000000E+00 0.  1.
         11    1    3    3    0    0  0.20351241905E+01 -0.13304546937E+02 -0.21557028608E+02  0.25413740030E+02  0.51100000000E-03 0. -1.
        -11    1    3    3    0    0 -0.43220360941E+01 -0.80013675522E+01 -0.37730803789E-01  0.90941356148E+01  0.51100000000E-03 0.  1.
        -12    1    3    3    0    0  0.48132264925E+01  0.35053785068E+01 -0.14873368634E+02  0.16020983811E+02  0.00000000000E+00 0.  1.
</event>
<event>
 7    1  0.5138511E-013  0.5052890E+02  0.7816164E-02  0.1300439E+00
        -11   -1    0    0    0    0  0.00000000000E+00  0.00000000000E+00  0.45593999997E+02  0.45594000000E+02  0.51100000000E-03 0.  1.
         11   -1    0    0    0    0 -0.00000000000E+00 -0.00000000000E+00 -0.45593999997E+02  0.45594000000E+02  0.51100000000E-03 0. -1.
    9900012    2    1    2    0    0  0.13697851955E+02 -0.28491121503E+02 -0.25569266623E+02  0.50528898334E+02  0.30000116976E+02 0.  0.
        -12    1    1    2    0    0 -0.13697851955E+02  0.28491121503E+02  0.25569266623E+02  0.40659101666E+02  0.00000000000E+00 0.  1.
         11    1    3    3    0    0  0.16782092861E+02 -0.27411396618E+02 -0.24837093543E+02  0.40619016745E+02  0.51100000000E-03 0. -1.
        -11    1    3    3    0    0  0.39076942462E+00 -0.47597277214E+01  0.11979590545E+00  0.47772439801E+01  0.51100000000E-03 0.  1.
        -12    1    3    3    0    0 -0.34750103305E+01  0.36800028370E+01 -0.85196898470E+00  0.51326376093E+01  0.00000000000E+00 0.  1.
</event>
<event>
 7    1  0.5138511E-013  0.5052886E+02  0.7816164E-02  0.1300439E+00
        -11   -1    0    0    0    0  0.00000000000E+00  0.00000000000E+00  0.45593999997E+02  0.45594000000E+02  0.51100000000E-03 0.  1.
         11   -1    0    0    0    0 -0.00000000000E+00 -0.00000000000E+00 -0.45593999997E+02  0.45594000000E+02  0.51100000000E-03 0. -1.
    9900012    2    1    2    0    0 -0.28889659806E+02 -0.15726265184E+02 -0.23900585735E+02  0.50528857624E+02  0.29999993232E+02 0.  0.
        -12    1    1    2    0    0  0.28889659806E+02  0.15726265184E+02  0.23900585735E+02  0.40659142376E+02  0.00000000000E+00 0.  1.
         11    1    3    3    0    0 -0.62825732468E+00 -0.25094785617E+01 -0.48128912106E+01  0.54640746686E+01  0.51100000000E-03 0. -1.
        -11    1    3    3    0    0 -0.24784002352E+02 -0.15299093595E+02 -0.39482217031E+01  0.29392133170E+02  0.51100000000E-03 0.  1.
         12    1    3    3    0    0 -0.34774001294E+01  0.20823069727E+01 -0.15139472821E+02  0.15672649785E+02  0.00000000000E+00 0. -1.
</event>
<event>
 7    1  0.6274639E-013  0.5052886E+02  0.7816164E-02  0.1300439E+00
        -11   -1    0    0    0    0  0.00000000000E+00  0.00000000000E+00  0.45593999997E+02  0.45594000000E+02  0.51100000000E-03 0. -1.
         11   -1    0    0    0    0 -0.00000000000E+00 -0.00000000000E+00 -0.45593999997E+02  0.45594000000E+02  0.51100000000E-03 0.  1.
    9900012    2    1    2    0    0  0.23228781051E+01 -0.45590951201E+01  0.40335897772E+02  0.50528858838E+02  0.29999996923E+02 0.  0.
        -12    1    1    2    0    0 -0.23228781051E+01  0.45590951201E+01 -0.40335897772E+02  0.40659141162E+02  0.00000000000E+00 0.  1.
         11    1    3    3    0    0  0.25301161547E+01 -0.88412896083E+01  0.25660637589E+02  0.27258727252E+02  0.51100000000E-03 0. -1.
        -11    1    3    3    0    0 -0.64847516582E+01  0.54778371637E+01  0.14589324157E+02  0.16879190848E+02  0.51100000000E-03 0.  1.
        -12    1    3    3    0    0  0.62775136086E+01 -0.11956426754E+01  0.85936026472E-01  0.63909407378E+01  0.00000000000E+00 0.  1.
</event>
<event>
 7    1  0.5138511E-013  0.5052886E+02  0.7816164E-02  0.1300439E+00
        -11   -1    0    0    0    0  0.00000000000E+00  0.00000000000E+00  0.45593999997E+02  0.45594000000E+02  0.51100000000E-03 0.  1.
         11   -1    0    0    0    0 -0.00000000000E+00 -0.00000000000E+00 -0.45593999997E+02  0.45594000000E+02  0.51100000000E-03 0. -1.
    9900012    2    1    2    0    0 -0.29625969860E+02  0.26892683112E+02  0.72285153016E+01  0.50528856765E+02  0.29999990623E+02 0.  0.
        -12    1    1    2    0    0  0.29625969860E+02 -0.26892683112E+02 -0.72285153016E+01  0.40659143235E+02  0.00000000000E+00 0.  1.
         11    1    3    3    0    0  0.37223510447E+01 -0.16553020603E+01  0.31081441198E+00  0.40856490391E+01  0.51100000000E-03 0. -1.
        -11    1    3    3    0    0 -0.46786493463E+01  0.11446253302E+02  0.36913179917E+01  0.12904739561E+02  0.51100000000E-03 0.  1.
         12    1    3    3    0    0 -0.28669671559E+02  0.17101731870E+02  0.32263828979E+01  0.33538468165E+02  0.00000000000E+00 0. -1.
</event>
<event>
 7    1  0.5138511E-013  0.5052886E+02  0.7816164E-02  0.1300439E+00
        -11   -1    0    0    0    0  0.00000000000E+00  0.00000000000E+00  0.45593999997E+02  0.45594000000E+02  0.51100000000E-03 0. -1.
         11   -1    0    0    0    0 -0.00000000000E+00 -0.00000000000E+00 -0.45593999997E+02  0.45594000000E+02  0.51100000000E-03 0.  1.
    9900012    2    1    2    0    0  0.88413751619E+01 -0.22135800548E+02  0.32939369416E+02  0.50528860336E+02  0.30000001478E+02 0.  0.
        -12    1    1    2    0    0 -0.88413751619E+01  0.22135800548E+02 -0.32939369416E+02  0.40659139664E+02  0.00000000000E+00 0.  1.
         11    1    3    3    0    0  0.48652499800E+01 -0.25666913792E+02  0.13777225433E+02  0.29534269280E+02  0.51100000000E-03 0. -1.
        -11    1    3    3    0    0  0.29451995793E+01 -0.15847950232E+01  0.68875824504E+01  0.76566682114E+01  0.51100000000E-03 0.  1.
         12    1    3    3    0    0  0.10309256026E+01  0.51159082676E+01  0.12274561533E+02  0.13337922845E+02  0.00000000000E+00 0. -1.
</event>
<event>
 7    1  0.5138511E-013  0.5052886E+02  0.7816164E-02  0.1300439E+00
        -11   -1    0    0    0    0  0.00000000000E+00  0.00000000000E+00  0.45593999997E+02  0.45594000000E+02  0.51100000000E-03 0.  1.
         11   -1    0    0    0    0 -0.00000000000E+00 -0.00000000000E+00 -0.45593999997E+02  0.45594000000E+02  0.51100000000E-03 0. -1.
    9900012    2    1    2    0    0  0.33498251516E+02 -0.22601835137E+02 -0.44932982646E+01  0.50528861599E+02  0.30000005317E+02 0.  0.
        -12    1    1    2    0    0 -0.33498251516E+02  0.22601835137E+02  0.44932982646E+01  0.40659138401E+02  0.00000000000E+00 0.  1.
         11    1    3    3    0    0  0.11024338971E+02 -0.72297562000E+01 -0.98357869318E+01  0.16448347312E+02  0.51100000000E-03 0. -1.
        -11    1    3    3    0    0  0.36557376858E+01 -0.14312692377E+02  0.15341019825E+01  0.14851634599E+02  0.51100000000E-03 0.  1.
         12    1    3    3    0    0  0.18818174860E+02 -0.10593865593E+01  0.38083866847E+01  0.19228879688E+02  0.00000000000E+00 0. -1.
</event>
<event>
 7    1  0.5138511E-013  0.5052886E+02  0.7816164E-02  0.1300439E+00
        -11   -1    0    0    0    0  0.00000000000E+00  0.00000000000E+00  0.45593999997E+02  0.45594000000E+02  0.51100000000E-03 0.  1.
         11   -1    0    0    0    0 -0.00000000000E+00 -0.00000000000E+00 -0.45593999997E+02  0.45594000000E+02  0.51100000000E-03 0. -1.
    9900012    2    1    2    0    0  0.39903735480E+02 -0.26940160174E+01  0.73211976086E+01  0.50528858814E+02  0.29999996851E+02 0.  0.
        -12    1    1    2    0    0 -0.39903735480E+02  0.26940160174E+01 -0.73211976086E+01  0.40659141186E+02  0.00000000000E+00 0.  1.
         11    1    3    3    0    0  0.23701904108E+01 -0.52079049493E+01 -0.65190858928E+00  0.57589114956E+01  0.51100000000E-03 0. -1.
        -11    1    3    3    0    0  0.13148953811E+02  0.43022261360E+01 -0.75966626336E+01  0.15783327262E+02  0.51100000000E-03 0.  1.
        -12    1    3    3    0    0  0.24384591259E+02 -0.17883372041E+01  0.15569768831E+02  0.28986620056E+02  0.00000000000E+00 0.  1.
</event>
<event>
 7    1  0.5138511E-013  0.5052887E+02  0.7816164E-02  0.1300439E+00
        -11   -1    0    0    0    0  0.00000000000E+00  0.00000000000E+00  0.45593999997E+02  0.45594000000E+02  0.51100000000E-03 0.  1.
         11   -1    0    0    0    0 -0.00000000000E+00 -0.00000000000E+00 -0.45593999997E+02  0.45594000000E+02  0.51100000000E-03 0. -1.
    9900012    2    1    2    0    0  0.26583431451E+02 -0.26575530055E+02 -0.15499278313E+02  0.50528865065E+02  0.30000015852E+02 0.  0.
        -12    1    1    2    0    0 -0.26583431451E+02  0.26575530055E+02  0.15499278313E+02  0.40659134935E+02  0.00000000000E+00 0.  1.
         11    1    3    3    0    0 -0.31033153027E+01 -0.24688071892E+01  0.34669083977E+01  0.52673550198E+01  0.51100000000E-03 0. -1.
        -11    1    3    3    0    0  0.49979862582E+01  0.16900351498E+01 -0.36065634954E+01  0.63908830339E+01  0.51100000000E-03 0.  1.
         12    1    3    3    0    0  0.24688760496E+02 -0.25796758016E+02 -0.15359623215E+02  0.38870627011E+02  0.00000000000E+00 0. -1.
</event>
<event>
 7    1  0.5138511E-013  0.5052886E+02  0.7816164E-02  0.1300439E+00
        -11   -1    0    0    0    0  0.00000000000E+00  0.00000000000E+00  0.45593999997E+02  0.45594000000E+02  0.51100000000E-03 0.  1.
         11   -1    0    0    0    0 -0.00000000000E+00 -0.00000000000E+00 -0.45593999997E+02  0.45594000000E+02  0.51100000000E-03 0. -1.
    9900012    2    1    2    0    0 -0.22384398484E+02 -0.23204835066E+02 -0.24771758791E+02  0.50528859581E+02  0.29999999184E+02 0.  0.
        -12    1    1    2    0    0  0.22384398484E+02  0.23204835066E+02  0.24771758791E+02  0.40659140419E+02  0.00000000000E+00 0.  1.
         11    1    3    3    0    0  0.32663317406E+01 -0.24682552239E+01 -0.54504099929E+01  0.68167570180E+01  0.51100000000E-03 0.  1.
        -11    1    3    3    0    0 -0.15878251651E+02 -0.23170984794E+02 -0.18442569665E+02  0.33602705069E+02  0.51100000000E-03 0. -1.
        -12    1    3    3    0    0 -0.97724785740E+01  0.24344049513E+01 -0.87877913320E+00  0.10109397495E+02  0.00000000000E+00 0.  1.
</event>
<event>
 7    1  0.5138511E-013  0.5052888E+02  0.7816164E-02  0.1300439E+00
        -11   -1    0    0    0    0  0.00000000000E+00  0.00000000000E+00  0.45593999997E+02  0.45594000000E+02  0.51100000000E-03 0.  1.
         11   -1    0    0    0    0 -0.00000000000E+00 -0.00000000000E+00 -0.45593999997E+02  0.45594000000E+02  0.51100000000E-03 0. -1.
    9900012    2    1    2    0    0 -0.10578330273E+02  0.18891309798E+02 -0.34414845757E+02  0.50528877214E+02  0.30000052779E+02 0.  0.
        -12    1    1    2    0    0  0.10578330273E+02 -0.18891309798E+02  0.34414845757E+02  0.40659122786E+02  0.00000000000E+00 0.  1.
         11    1    3    3    0    0 -0.24016502879E+01  0.31773302716E+01 -0.85922950430E+01  0.94705272360E+01  0.51100000000E-03 0. -1.
        -11    1    3    3    0    0  0.91034529885E+01  0.16279502480E+01 -0.48159227530E+01  0.10426705642E+02  0.51100000000E-03 0.  1.
        -12    1    3    3    0    0 -0.17280132973E+02  0.14086029279E+02 -0.21006627961E+02  0.30631644336E+02  0.00000000000E+00 0.  1.
</event>
<event>
 7    1  0.5138511E-013  0.5052882E+02  0.7816164E-02  0.1300439E+00
        -11   -1    0    0    0    0  0.00000000000E+00  0.00000000000E+00  0.45593999997E+02  0.45594000000E+02  0.51100000000E-03 0.  1.
         11   -1    0    0    0    0 -0.00000000000E+00 -0.00000000000E+00 -0.45593999997E+02  0.45594000000E+02  0.51100000000E-03 0. -1.
    9900012    2    1    2    0    0 -0.11501968170E+01  0.64231942278E+01 -0.40132133491E+02  0.50528824955E+02  0.29999893934E+02 0.  0.
        -12    1    1    2    0    0  0.11501968170E+01 -0.64231942278E+01  0.40132133491E+02  0.40659175045E+02  0.00000000000E+00 0.  1.
         11    1    3    3    0    0 -0.26495516403E+01  0.66353357446E+01 -0.17177758299E+02  0.18604386171E+02  0.51100000000E-03 0. -1.
        -11    1    3    3    0    0 -0.88409938395E+01  0.47494639940E+01 -0.68395603535E+01  0.12144964652E+02  0.51100000000E-03 0.  1.
         12    1    3    3    0    0  0.10340348663E+02 -0.49616055107E+01 -0.16114814838E+02  0.19779474133E+02  0.00000000000E+00 0. -1.
</event>
<event>
 7    1  0.5138511E-013  0.5052886E+02  0.7816164E-02  0.1300439E+00
        -11   -1    0    0    0    0  0.00000000000E+00  0.00000000000E+00  0.45593999997E+02  0.45594000000E+02  0.51100000000E-03 0.  1.
         11   -1    0    0    0    0 -0.00000000000E+00 -0.00000000000E+00 -0.45593999997E+02  0.45594000000E+02  0.51100000000E-03 0. -1.
    9900012    2    1    2    0    0 -0.10879177697E+02  0.25671281178E+02 -0.29593818940E+02  0.50528864444E+02  0.30000013965E+02 0.  0.
        -12    1    1    2    0    0  0.10879177697E+02 -0.25671281178E+02  0.29593818940E+02  0.40659135556E+02  0.00000000000E+00 0.  1.
         11    1    3    3    0    0 -0.15473266220E+01  0.20914712756E+02 -0.15474483991E+02  0.26062983029E+02  0.51100000000E-03 0. -1.
        -11    1    3    3    0    0 -0.22947887359E+01  0.33986826135E+01  0.35337996424E+01  0.54133944086E+01  0.51100000000E-03 0.  1.
         12    1    3    3    0    0 -0.70370623394E+01  0.13578858089E+01 -0.17653134591E+02  0.19052487006E+02  0.00000000000E+00 0. -1.
</event>
<event>
 7    1  0.5138511E-013  0.5052886E+02  0.7816164E-02  0.1300439E+00
        -11   -1    0    0    0    0  0.00000000000E+00  0.00000000000E+00  0.45593999997E+02  0.45594000000E+02  0.51100000000E-03 0. -1.
         11   -1    0    0    0    0 -0.00000000000E+00 -0.00000000000E+00 -0.45593999997E+02  0.45594000000E+02  0.51100000000E-03 0.  1.
    9900012    2    1    2    0    0  0.38820254200E+02 -0.11693894761E+02 -0.30669143667E+01  0.50528864808E+02  0.30000015070E+02 0.  0.
        -12    1    1    2    0    0 -0.38820254200E+02  0.11693894761E+02  0.30669143667E+01  0.40659135192E+02  0.00000000000E+00 0.  1.
         11    1    3    3    0    0 -0.37082302695E+01  0.55389805191E+00 -0.14899923697E+01  0.40345820486E+01  0.51100000000E-03 0.  1.
        -11    1    3    3    0    0  0.17498109180E+02 -0.80514421288E+01  0.57083292859E+01  0.20089663231E+02  0.51100000000E-03 0. -1.
         12    1    3    3    0    0  0.25030375290E+02 -0.41963506837E+01 -0.72852512829E+01  0.26404619529E+02  0.00000000000E+00 0. -1.
</event>
<event>
 7    1  0.5138511E-013  0.5052885E+02  0.7816164E-02  0.1300439E+00
        -11   -1    0    0    0    0  0.00000000000E+00  0.00000000000E+00  0.45593999997E+02  0.45594000000E+02  0.51100000000E-03 0. -1.
         11   -1    0    0    0    0 -0.00000000000E+00 -0.00000000000E+00 -0.45593999997E+02  0.45594000000E+02  0.51100000000E-03 0.  1.
    9900012    2    1    2    0    0  0.18174917932E+02  0.97283816749E+01  0.35045644709E+02  0.50528852629E+02  0.29999978052E+02 0.  0.
        -12    1    1    2    0    0 -0.18174917932E+02 -0.97283816749E+01 -0.35045644709E+02  0.40659147371E+02  0.00000000000E+00 0.  1.
         11    1    3    3    0    0 -0.15996858735E+01  0.30993323615E+01  0.58472618871E+01  0.68084747057E+01  0.51100000000E-03 0. -1.
        -11    1    3    3    0    0  0.17965241479E+02 -0.66011926197E+01  0.18360641817E+02  0.26522420960E+02  0.51100000000E-03 0.  1.
        -12    1    3    3    0    0  0.18093623272E+01  0.13230241933E+02  0.10837741005E+02  0.17197956964E+02  0.00000000000E+00 0.  1.
</event>
<event>
 7    1  0.5138511E-013  0.5052892E+02  0.7816164E-02  0.1300439E+00
        -11   -1    0    0    0    0  0.00000000000E+00  0.00000000000E+00  0.45593999997E+02  0.45594000000E+02  0.51100000000E-03 0. -1.
         11   -1    0    0    0    0 -0.00000000000E+00 -0.00000000000E+00 -0.45593999997E+02  0.45594000000E+02  0.51100000000E-03 0.  1.
    9900012    2    1    2    0    0  0.88217875727E+01  0.10835087293E+02  0.38182955572E+02  0.50528915543E+02  0.30000169285E+02 0.  0.
        -12    1    1    2    0    0 -0.88217875727E+01 -0.10835087293E+02 -0.38182955572E+02  0.40659084457E+02  0.00000000000E+00 0.  1.
         11    1    3    3    0    0  0.11863873615E+02  0.58497986526E+01  0.96669434101E+01  0.16383572156E+02  0.51100000000E-03 0. -1.
        -11    1    3    3    0    0 -0.46502315215E+01 -0.32804233475E+01  0.15543714471E+01  0.58993136380E+01  0.51100000000E-03 0.  1.
         12    1    3    3    0    0  0.16081454792E+01  0.82657119883E+01  0.26961640715E+02  0.28246029749E+02  0.00000000000E+00 0. -1.
</event>
<event>
 7    1  0.5446046E-013  0.5052885E+02  0.7816164E-02  0.1300439E+00
        -11   -1    0    0    0    0  0.00000000000E+00  0.00000000000E+00  0.45593999997E+02  0.45594000000E+02  0.51100000000E-03 0. -1.
         11   -1    0    0    0    0 -0.00000000000E+00 -0.00000000000E+00 -0.45593999997E+02  0.45594000000E+02  0.51100000000E-03 0.  1.
    9900012    2    1    2    0    0 -0.38596541295E+02 -0.82498788242E+01  0.97679681081E+01  0.50528847260E+02  0.29999961733E+02 0.  0.
        -12    1    1    2    0    0  0.38596541295E+02  0.82498788242E+01 -0.97679681081E+01  0.40659152740E+02  0.00000000000E+00 0.  1.
         11    1    3    3    0    0 -0.18872091900E+02 -0.14676952145E+01  0.86207807190E+01  0.20799707748E+02  0.51100000000E-03 0. -1.
        -11    1    3    3    0    0 -0.23581197235E+02 -0.33882847925E+01 -0.16484176785E+01  0.23880339570E+02  0.51100000000E-03 0.  1.
        -12    1    3    3    0    0  0.38567478397E+01 -0.33938988172E+01  0.27956050676E+01  0.58487999431E+01  0.00000000000E+00 0.  1.
</event>
<event>
 7    1  0.5138511E-013  0.5052891E+02  0.7816164E-02  0.1300439E+00
        -11   -1    0    0    0    0  0.00000000000E+00  0.00000000000E+00  0.45593999997E+02  0.45594000000E+02  0.51100000000E-03 0. -1.
         11   -1    0    0    0    0 -0.00000000000E+00 -0.00000000000E+00 -0.45593999997E+02  0.45594000000E+02  0.51100000000E-03 0.  1.
    9900012    2    1    2    0    0  0.80643704288E+01 -0.25181945535E+00  0.39850519055E+02  0.50528913041E+02  0.30000161678E+02 0.  0.
        -12    1    1    2    0    0 -0.80643704288E+01  0.25181945535E+00 -0.39850519055E+02  0.40659086959E+02  0.00000000000E+00 0.  1.
         11    1    3    3    0    0  0.47820968626E+01 -0.11180070522E+01  0.64123414753E+01  0.80769123822E+01  0.51100000000E-03 0. -1.
        -11    1    3    3    0    0  0.47917145183E+01  0.12597040496E+02  0.23094358308E+02  0.26739396837E+02  0.51100000000E-03 0.  1.
        -12    1    3    3    0    0 -0.15094409521E+01 -0.11730852899E+02  0.10343819271E+02  0.15712603821E+02  0.00000000000E+00 0.  1.
</event>
<event>
 7    1  0.5138511E-013  0.5052886E+02  0.7816164E-02  0.1300439E+00
        -11   -1    0    0    0    0  0.00000000000E+00  0.00000000000E+00  0.45593999997E+02  0.45594000000E+02  0.51100000000E-03 0. -1.
         11   -1    0    0    0    0 -0.00000000000E+00 -0.00000000000E+00 -0.45593999997E+02  0.45594000000E+02  0.51100000000E-03 0.  1.
    9900012    2    1    2    0    0  0.84067973400E+00 -0.28880125966E+02  0.28607647349E+02  0.50528857055E+02  0.29999991503E+02 0.  0.
        -12    1    1    2    0    0 -0.84067973400E+00  0.28880125966E+02 -0.28607647349E+02  0.40659142945E+02  0.00000000000E+00 0.  1.
         11    1    3    3    0    0 -0.12664363137E+00 -0.44724301248E+01 -0.20518537788E+01  0.49222732575E+01  0.51100000000E-03 0. -1.
        -11    1    3    3    0    0 -0.87210908675E+01 -0.55317272001E+01  0.18405546761E+02  0.21105013233E+02  0.51100000000E-03 0.  1.
         12    1    3    3    0    0  0.96884142329E+01 -0.18875968641E+02  0.12253954367E+02  0.24501570564E+02  0.00000000000E+00 0. -1.
</event>
<event>
 7    1  0.5138511E-013  0.5052887E+02  0.7816164E-02  0.1300439E+00
        -11   -1    0    0    0    0  0.00000000000E+00  0.00000000000E+00  0.45593999997E+02  0.45594000000E+02  0.51100000000E-03 0.  1.
         11   -1    0    0    0    0 -0.00000000000E+00 -0.00000000000E+00 -0.45593999997E+02  0.45594000000E+02  0.51100000000E-03 0. -1.
    9900012    2    1    2    0    0  0.23484035742E+01  0.32669489522E+02 -0.24090542948E+02  0.50528870589E+02  0.30000032642E+02 0.  0.
        -12    1    1    2    0    0 -0.23484035742E+01 -0.32669489522E+02  0.24090542948E+02  0.40659129411E+02  0.00000000000E+00 0.  1.
         11    1    3    3    0    0  0.97865956575E+01  0.14806156704E+02 -0.10084484633E+02  0.20413146781E+02  0.51100000000E-03 0. -1.
        -11    1    3    3    0    0 -0.37271806167E-01  0.14561219493E+02 -0.75239397137E+00  0.14580692688E+02  0.51100000000E-03 0.  1.
        -12    1    3    3    0    0 -0.74009202771E+01  0.33021133237E+01 -0.13253664344E+02  0.15535031120E+02  0.00000000000E+00 0.  1.
</event>
<event>
 7    1  0.5138511E-013  0.5052885E+02  0.7816164E-02  0.1300439E+00
        -11   -1    0    0    0    0  0.00000000000E+00  0.00000000000E+00  0.45593999997E+02  0.45594000000E+02  0.51100000000E-03 0.  1.
         11   -1    0    0    0    0 -0.00000000000E+00 -0.00000000000E+00 -0.45593999997E+02  0.45594000000E+02  0.51100000000E-03 0. -1.
    9900012    2    1    2    0    0 -0.65647327733E+01 -0.14474767341E+01 -0.40099566495E+02  0.50528854186E+02  0.29999982784E+02 0.  0.
        -12    1    1    2    0    0  0.65647327733E+01  0.14474767341E+01  0.40099566495E+02  0.40659145814E+02  0.00000000000E+00 0.  1.
         11    1    3    3    0    0 -0.12562172180E+01 -0.91456173520E+01 -0.25152823118E+02  0.26793374359E+02  0.51100000000E-03 0. -1.
        -11    1    3    3    0    0 -0.81967493375E+01 -0.12185259116E+01 -0.36453892349E+01  0.90531965644E+01  0.51100000000E-03 0.  1.
         12    1    3    3    0    0  0.28882337823E+01  0.89166665295E+01 -0.11301354141E+02  0.14682283263E+02  0.00000000000E+00 0. -1.
</event>
<event>
 7    1  0.5138511E-013  0.5052886E+02  0.7816164E-02  0.1300439E+00
        -11   -1    0    0    0    0  0.00000000000E+00  0.00000000000E+00  0.45593999997E+02  0.45594000000E+02  0.51100000000E-03 0.  1.
         11   -1    0    0    0    0 -0.00000000000E+00 -0.00000000000E+00 -0.45593999997E+02  0.45594000000E+02  0.51100000000E-03 0. -1.
    9900012    2    1    2    0    0 -0.32446354471E+02  0.17938378214E+02 -0.16691734826E+02  0.50528863967E+02  0.30000012515E+02 0.  0.
        -12    1    1    2    0    0  0.32446354471E+02 -0.17938378214E+02  0.16691734826E+02  0.40659136033E+02  0.00000000000E+00 0.  1.
         11    1    3    3    0    0 -0.19921981786E+02  0.14280426957E+02 -0.45062514088E+01  0.24922324417E+02  0.51100000000E-03 0.  1.
        -11    1    3    3    0    0 -0.10835678617E+02  0.45600111215E+01 -0.16860684005E+02  0.20554520133E+02  0.51100000000E-03 0. -1.
        -12    1    3    3    0    0 -0.16886940676E+01 -0.90205986401E+00  0.46752005878E+01  0.50520194169E+01  0.00000000000E+00 0.  1.
</event>
<event>
 7    1  0.5138511E-013  0.5052887E+02  0.7816164E-02  0.1300439E+00
        -11   -1    0    0    0    0  0.00000000000E+00  0.00000000000E+00  0.45593999997E+02  0.45594000000E+02  0.51100000000E-03 0. -1.
         11   -1    0    0    0    0 -0.00000000000E+00 -0.00000000000E+00 -0.45593999997E+02  0.45594000000E+02  0.51100000000E-03 0.  1.
    9900012    2    1    2    0    0 -0.24120218569E+02 -0.18431113966E+02  0.27049467355E+02  0.50528873226E+02  0.30000040657E+02 0.  0.
        -12    1    1    2    0    0  0.24120218569E+02  0.18431113966E+02 -0.27049467355E+02  0.40659126774E+02  0.00000000000E+00 0.  1.
         11    1    3    3    0    0 -0.97196786288E+01 -0.23771771193E+02  0.16902044728E+02  0.30744891844E+02  0.51100000000E-03 0. -1.
        -11    1    3    3    0    0 -0.47470910865E+01  0.39706125480E+01  0.74147107502E+01  0.96580833275E+01  0.51100000000E-03 0.  1.
        -12    1    3    3    0    0 -0.96534488539E+01  0.13700446790E+01  0.27327118772E+01  0.10125898054E+02  0.00000000000E+00 0.  1.
</event>
<event>
 7    1  0.5138511E-013  0.5052888E+02  0.7816164E-02  0.1300439E+00
        -11   -1    0    0    0    0  0.00000000000E+00  0.00000000000E+00  0.45593999997E+02  0.45594000000E+02  0.51100000000E-03 0.  1.
         11   -1    0    0    0    0 -0.00000000000E+00 -0.00000000000E+00 -0.45593999997E+02  0.45594000000E+02  0.51100000000E-03 0. -1.
    9900012    2    1    2    0    0 -0.26154933427E+02  0.30722614036E+02 -0.50203716107E+01  0.50528884332E+02  0.30000074417E+02 0.  0.
        -12    1    1    2    0    0  0.26154933427E+02 -0.30722614036E+02  0.50203716107E+01  0.40659115668E+02  0.00000000000E+00 0.  1.
         11    1    3    3    0    0 -0.82199212012E+01  0.93651742083E+01 -0.86526439390E+01  0.15170426490E+02  0.51100000000E-03 0. -1.
        -11    1    3    3    0    0 -0.14363397771E+02  0.88831414371E+00  0.12934393790E+01  0.14448850585E+02  0.51100000000E-03 0.  1.
        -12    1    3    3    0    0 -0.35716144548E+01  0.20469125684E+02  0.23388329494E+01  0.20909607257E+02  0.00000000000E+00 0.  1.
</event>
<event>
 7    1  0.5138511E-013  0.5052887E+02  0.7816164E-02  0.1300439E+00
        -11   -1    0    0    0    0  0.00000000000E+00  0.00000000000E+00  0.45593999997E+02  0.45594000000E+02  0.51100000000E-03 0.  1.
         11   -1    0    0    0    0 -0.00000000000E+00 -0.00000000000E+00 -0.45593999997E+02  0.45594000000E+02  0.51100000000E-03 0. -1.
    9900012    2    1    2    0    0 -0.89976308682E+01  0.39589376271E+02 -0.22110084883E+01  0.50528872694E+02  0.30000039040E+02 0.  0.
        -12    1    1    2    0    0  0.89976308682E+01 -0.39589376271E+02  0.22110084883E+01  0.40659127306E+02  0.00000000000E+00 0.  1.
         11    1    3    3    0    0 -0.22000125960E+01  0.20992168118E+02 -0.37807441476E+00  0.21110521506E+02  0.51100000000E-03 0. -1.
        -11    1    3    3    0    0  0.72341428142E+01  0.11308616387E+02 -0.21928154878E+01  0.13602428712E+02  0.51100000000E-03 0.  1.
         12    1    3    3    0    0 -0.14031761086E+02  0.72885917655E+01  0.35988141425E+00  0.15815922475E+02  0.00000000000E+00 0. -1.
</event>
<event>
 7    1  0.5138511E-013  0.5052886E+02  0.7816164E-02  0.1300439E+00
        -11   -1    0    0    0    0  0.00000000000E+00  0.00000000000E+00  0.45593999997E+02  0.45594000000E+02  0.51100000000E-03 0. -1.
         11   -1    0    0    0    0 -0.00000000000E+00 -0.00000000000E+00 -0.45593999997E+02  0.45594000000E+02  0.51100000000E-03 0.  1.
    9900012    2    1    2    0    0  0.58578777058E+01 -0.86632663002E+01  0.39291203467E+02  0.50528861001E+02  0.30000003500E+02 0.  0.
        -12    1    1    2    0    0 -0.58578777058E+01  0.86632663002E+01 -0.39291203467E+02  0.40659138999E+02  0.00000000000E+00 0.  1.
         11    1    3    3    0    0  0.43667383002E+01 -0.13654615129E+02  0.25947786304E+02  0.29644637492E+02  0.51100000000E-03 0. -1.
        -11    1    3    3    0    0  0.82236897182E+01  0.17131514157E+01  0.85901152133E+01  0.12014742610E+02  0.51100000000E-03 0.  1.
         12    1    3    3    0    0 -0.67325503126E+01  0.32781974130E+01  0.47533019500E+01  0.88694808990E+01  0.00000000000E+00 0. -1.
</event>
<event>
 7    1  0.5737190E-013  0.5052885E+02  0.7816164E-02  0.1300439E+00
        -11   -1    0    0    0    0  0.00000000000E+00  0.00000000000E+00  0.45593999997E+02  0.45594000000E+02  0.51100000000E-03 0. -1.
         11   -1    0    0    0    0 -0.00000000000E+00 -0.00000000000E+00 -0.45593999997E+02  0.45594000000E+02  0.51100000000E-03 0.  1.
    9900012    2    1    2    0    0  0.16333350355E+02 -0.32097936127E+02  0.18870890621E+02  0.50528851579E+02  0.29999974860E+02 0.  0.
        -12    1    1    2    0    0 -0.16333350355E+02  0.32097936127E+02 -0.18870890621E+02  0.40659148421E+02  0.00000000000E+00 0.  1.
         11    1    3    3    0    0  0.13410132815E+02 -0.19383176193E+02  0.20137773871E+02  0.31001114790E+02  0.51100000000E-03 0. -1.
        -11    1    3    3    0    0 -0.44296455859E+01 -0.28020590877E+00  0.17485719326E+01  0.47705114435E+01  0.51100000000E-03 0.  1.
        -12    1    3    3    0    0  0.73528631257E+01 -0.12434554025E+02 -0.30154551825E+01  0.14757225346E+02  0.00000000000E+00 0.  1.
</event>
<event>
 7    1  0.5796815E-013  0.5052882E+02  0.7816164E-02  0.1300439E+00
        -11   -1    0    0    0    0  0.00000000000E+00  0.00000000000E+00  0.45593999997E+02  0.45594000000E+02  0.51100000000E-03 0. -1.
         11   -1    0    0    0    0 -0.00000000000E+00 -0.00000000000E+00 -0.45593999997E+02  0.45594000000E+02  0.51100000000E-03 0.  1.
    9900012    2    1    2    0    0  0.24119082534E+02 -0.32395921937E+02  0.46843235239E+01  0.50528821610E+02  0.29999883766E+02 0.  0.
        -12    1    1    2    0    0 -0.24119082534E+02  0.32395921937E+02 -0.46843235239E+01  0.40659178390E+02  0.00000000000E+00 0.  1.
         11    1    3    3    0    0  0.19728915818E+02 -0.29920362720E+02  0.69591479168E+01  0.36508738196E+02  0.51100000000E-03 0. -1.
        -11    1    3    3    0    0 -0.32375219108E+01 -0.47563113983E+01 -0.18643807844E+01  0.60481370860E+01  0.51100000000E-03 0.  1.
        -12    1    3    3    0    0  0.76276886275E+01  0.22807521815E+01 -0.41044360849E+00  0.79719463286E+01  0.00000000000E+00 0.  1.
</event>
<event>
 7    1  0.5138511E-013  0.5052886E+02  0.7816164E-02  0.1300439E+00
        -11   -1    0    0    0    0  0.00000000000E+00  0.00000000000E+00  0.45593999997E+02  0.45594000000E+02  0.51100000000E-03 0.  1.
         11   -1    0    0    0    0 -0.00000000000E+00 -0.00000000000E+00 -0.45593999997E+02  0.45594000000E+02  0.51100000000E-03 0. -1.
    9900012    2    1    2    0    0 -0.13512880028E+02 -0.38140628218E+02 -0.39825395943E+01  0.50528855037E+02  0.29999985370E+02 0.  0.
        -12    1    1    2    0    0  0.13512880028E+02  0.38140628218E+02  0.39825395943E+01  0.40659144963E+02  0.00000000000E+00 0.  1.
         11    1    3    3    0    0  0.80026516776E+00 -0.54924616977E+01 -0.49665113250E+01  0.74480732302E+01  0.51100000000E-03 0. -1.
        -11    1    3    3    0    0  0.35775506409E+01 -0.42487488665E+00  0.48281277482E+01  0.60241352136E+01  0.51100000000E-03 0.  1.
        -12    1    3    3    0    0 -0.17890695836E+02 -0.32223291634E+02 -0.38441560176E+01  0.37056646593E+02  0.00000000000E+00 0.  1.
</event>
<event>
 7    1  0.5138511E-013  0.5052886E+02  0.7816164E-02  0.1300439E+00
        -11   -1    0    0    0    0  0.00000000000E+00  0.00000000000E+00  0.45593999997E+02  0.45594000000E+02  0.51100000000E-03 0.  1.
         11   -1    0    0    0    0 -0.00000000000E+00 -0.00000000000E+00 -0.45593999997E+02  0.45594000000E+02  0.51100000000E-03 0. -1.
    9900012    2    1    2    0    0 -0.26736055465E+02 -0.22919412192E+02  0.20323618411E+02  0.50528861023E+02  0.30000003564E+02 0.  0.
        -12    1    1    2    0    0  0.26736055465E+02  0.22919412192E+02 -0.20323618411E+02  0.40659138977E+02  0.00000000000E+00 0.  1.
         11    1    3    3    0    0 -0.11321761447E+02 -0.10829978273E+02 -0.24664844619E+01  0.15860462084E+02  0.51100000000E-03 0. -1.
        -11    1    3    3    0    0 -0.35147643846E+01 -0.13391450062E+02  0.95503350515E+01  0.16819435285E+02  0.51100000000E-03 0.  1.
         12    1    3    3    0    0 -0.11899529634E+02  0.13020161432E+01  0.13239767821E+02  0.17848963654E+02  0.00000000000E+00 0. -1.
</event>
<event>
 7    1  0.5138511E-013  0.5052888E+02  0.7816164E-02  0.1300439E+00
        -11   -1    0    0    0    0  0.00000000000E+00  0.00000000000E+00  0.45593999997E+02  0.45594000000E+02  0.51100000000E-03 0.  1.
         11   -1    0    0    0    0 -0.00000000000E+00 -0.00000000000E+00 -0.45593999997E+02  0.45594000000E+02  0.51100000000E-03 0. -1.
    9900012    2    1    2    0    0 -0.36584356430E+02  0.72758705910E+01  0.16180572632E+02  0.50528876068E+02  0.30000049295E+02 0.  0.
        -12    1    1    2    0    0  0.36584356430E+02 -0.72758705910E+01 -0.16180572632E+02  0.40659123932E+02  0.00000000000E+00 0.  1.
         11    1    3    3    0    0 -0.83826126753E+01 -0.66059659720E+01  0.33945734184E+01  0.11199558502E+02  0.51100000000E-03 0. -1.
        -11    1    3    3    0    0 -0.14631533010E+02  0.74963250847E+01  0.17102668080E+02  0.23722940453E+02  0.51100000000E-03 0.  1.
        -12    1    3    3    0    0 -0.13570210744E+02  0.63855114783E+01 -0.43166688667E+01  0.15606377113E+02  0.00000000000E+00 0.  1.
</event>
<event>
 7    1  0.5138511E-013  0.5052886E+02  0.7816164E-02  0.1300439E+00
        -11   -1    0    0    0    0  0.00000000000E+00  0.00000000000E+00  0.45593999997E+02  0.45594000000E+02  0.51100000000E-03 0.  1.
         11   -1    0    0    0    0 -0.00000000000E+00 -0.00000000000E+00 -0.45593999997E+02  0.45594000000E+02  0.51100000000E-03 0. -1.
    9900012    2    1    2    0    0 -0.16237061061E+02 -0.25158296434E+02 -0.27506058277E+02  0.50528864823E+02  0.30000015116E+02 0.  0.
        -12    1    1    2    0    0  0.16237061061E+02  0.25158296434E+02  0.27506058277E+02  0.40659135177E+02  0.00000000000E+00 0.  1.
         11    1    3    3    0    0 -0.40993338519E+00 -0.64911001049E+01 -0.10406007581E+02  0.12271406602E+02  0.51100000000E-03 0. -1.
        -11    1    3    3    0    0 -0.21708239404E+02 -0.13637929767E+02 -0.93035701937E+01  0.27272645727E+02  0.51100000000E-03 0.  1.
         12    1    3    3    0    0  0.58811117276E+01 -0.50292665625E+01 -0.77964805028E+01  0.10984812495E+02  0.00000000000E+00 0. -1.
</event>
<event>
 7    1  0.5138511E-013  0.5052875E+02  0.7816164E-02  0.1300439E+00
        -11   -1    0    0    0    0  0.00000000000E+00  0.00000000000E+00  0.45593999997E+02  0.45594000000E+02  0.51100000000E-03 0. -1.
         11   -1    0    0    0    0 -0.00000000000E+00 -0.00000000000E+00 -0.45593999997E+02  0.45594000000E+02  0.51100000000E-03 0.  1.
    9900012    2    1    2    0    0  0.33580722276E+02 -0.27265150516E+01  0.22761286420E+02  0.50528745797E+02  0.29999653322E+02 0.  0.
        -12    1    1    2    0    0 -0.33580722276E+02  0.27265150516E+01 -0.22761286420E+02  0.40659254203E+02  0.00000000000E+00 0.  1.
         11    1    3    3    0    0  0.51290502422E+01  0.82143787429E+01  0.14223777240E+02  0.17207527822E+02  0.51100000000E-03 0. -1.
        -11    1    3    3    0    0  0.12924696454E+00 -0.26115598730E+01  0.97234205877E-01  0.26165634906E+01  0.51100000000E-03 0.  1.
         12    1    3    3    0    0  0.28322425069E+02 -0.83293339215E+01  0.84402749741E+01  0.30704654484E+02  0.00000000000E+00 0. -1.
</event>
<event>
 7    1  0.5138511E-013  0.5052886E+02  0.7816164E-02  0.1300439E+00
        -11   -1    0    0    0    0  0.00000000000E+00  0.00000000000E+00  0.45593999997E+02  0.45594000000E+02  0.51100000000E-03 0. -1.
         11   -1    0    0    0    0 -0.00000000000E+00 -0.00000000000E+00 -0.45593999997E+02  0.45594000000E+02  0.51100000000E-03 0.  1.
    9900012    2    1    2    0    0  0.40489738714E+02  0.36358296601E+01  0.72639017761E+00  0.50528857840E+02  0.29999993891E+02 0.  0.
        -12    1    1    2    0    0 -0.40489738714E+02 -0.36358296601E+01 -0.72639017761E+00  0.40659142160E+02  0.00000000000E+00 0.  1.
         11    1    3    3    0    0  0.16560976877E+02 -0.28009189253E+01  0.35779486746E+01  0.17173025911E+02  0.51100000000E-03 0. -1.
        -11    1    3    3    0    0  0.53625128174E+01 -0.76466153295E+01 -0.36783529381E+01  0.10037806051E+02  0.51100000000E-03 0.  1.
        -12    1    3    3    0    0  0.18566249020E+02  0.14083363915E+02  0.82679444114E+00  0.23318025878E+02  0.00000000000E+00 0.  1.
</event>
<event>
 7    1  0.5138511E-013  0.5052887E+02  0.7816164E-02  0.1300439E+00
        -11   -1    0    0    0    0  0.00000000000E+00  0.00000000000E+00  0.45593999997E+02  0.45594000000E+02  0.51100000000E-03 0.  1.
         11   -1    0    0    0    0 -0.00000000000E+00 -0.00000000000E+00 -0.45593999997E+02  0.45594000000E+02  0.51100000000E-03 0. -1.
    9900012    2    1    2    0    0  0.34161991404E+02 -0.72280885875E+01 -0.20829744284E+02  0.50528866116E+02  0.30000019045E+02 0.  0.
        -12    1    1    2    0    0 -0.34161991404E+02  0.72280885875E+01  0.20829744284E+02  0.40659133884E+02  0.00000000000E+00 0.  1.
         11    1    3    3    0    0  0.37167342671E+01 -0.64803784809E+01  0.40926872620E+01  0.85181869053E+01  0.51100000000E-03 0.  1.
        -11    1    3    3    0    0  0.25261167197E+02  0.44022226715E+00 -0.11866362865E+02  0.27912916933E+02  0.51100000000E-03 0. -1.
        -12    1    3    3    0    0  0.51840899396E+01 -0.11879323737E+01 -0.13056068681E+02  0.14097762278E+02  0.00000000000E+00 0.  1.
</event>
<event>
 7    1  0.7881257E-013  0.5052885E+02  0.7816164E-02  0.1300439E+00
        -11   -1    0    0    0    0  0.00000000000E+00  0.00000000000E+00  0.45593999997E+02  0.45594000000E+02  0.51100000000E-03 0. -1.
         11   -1    0    0    0    0 -0.00000000000E+00 -0.00000000000E+00 -0.45593999997E+02  0.45594000000E+02  0.51100000000E-03 0.  1.
    9900012    2    1    2    0    0 -0.11993287369E+02 -0.35209031926E+02  0.16421072082E+02  0.50528849991E+02  0.29999970033E+02 0.  0.
        -12    1    1    2    0    0  0.11993287369E+02  0.35209031926E+02 -0.16421072082E+02  0.40659150009E+02  0.00000000000E+00 0.  1.
         11    1    3    3    0    0 -0.76588095738E+01 -0.20219278730E+02  0.76181581850E+01  0.22924068811E+02  0.51100000000E-03 0. -1.
        -11    1    3    3    0    0 -0.12621776366E+02 -0.64003171548E+01  0.58221631616E+01  0.15302642990E+02  0.51100000000E-03 0.  1.
        -12    1    3    3    0    0  0.82872985712E+01 -0.85894360417E+01  0.29807507357E+01  0.12302138191E+02  0.00000000000E+00 0.  1.
</event>
<event>
 7    1  0.5138511E-013  0.5052886E+02  0.7816164E-02  0.1300439E+00
        -11   -1    0    0    0    0  0.00000000000E+00  0.00000000000E+00  0.45593999997E+02  0.45594000000E+02  0.51100000000E-03 0. -1.
         11   -1    0    0    0    0 -0.00000000000E+00 -0.00000000000E+00 -0.45593999997E+02  0.45594000000E+02  0.51100000000E-03 0.  1.
    9900012    2    1    2    0    0  0.95716764748E-01  0.39156126583E+02  0.10952363758E+02  0.50528859790E+02  0.29999999819E+02 0.  0.
        -12    1    1    2    0    0 -0.95716764748E-01 -0.39156126583E+02 -0.10952363758E+02  0.40659140210E+02  0.00000000000E+00 0.  1.
         11    1    3    3    0    0  0.27041484520E+01  0.68198143043E+01  0.13735883539E+02  0.15572308206E+02  0.51100000000E-03 0. -1.
        -11    1    3    3    0    0  0.46718192274E+01  0.65201040079E+01 -0.77166392639E+00  0.80581087511E+01  0.51100000000E-03 0.  1.
         12    1    3    3    0    0 -0.72802509147E+01  0.25816208271E+02 -0.20118558551E+01  0.26898442833E+02  0.00000000000E+00 0. -1.
</event>
<event>
 7    1  0.5138511E-013  0.5052886E+02  0.7816164E-02  0.1300439E+00
        -11   -1    0    0    0    0  0.00000000000E+00  0.00000000000E+00  0.45593999997E+02  0.45594000000E+02  0.51100000000E-03 0.  1.
         11   -1    0    0    0    0 -0.00000000000E+00 -0.00000000000E+00 -0.45593999997E+02  0.45594000000E+02  0.51100000000E-03 0. -1.
    9900012    2    1    2    0    0  0.80641275880E+01  0.38875248819E+02  0.87664557198E+01  0.50528857481E+02  0.29999992799E+02 0.  0.
        -12    1    1    2    0    0 -0.80641275880E+01 -0.38875248819E+02 -0.87664557198E+01  0.40659142519E+02  0.00000000000E+00 0.  1.
         11    1    3    3    0    0  0.78421440772E+01  0.91398156100E+01  0.41298928703E+01  0.12731514776E+02  0.51100000000E-03 0. -1.
        -11    1    3    3    0    0  0.71041849890E+01  0.26830474120E+01  0.62521488066E+01  0.98365417060E+01  0.51100000000E-03 0.  1.
        -12    1    3    3    0    0 -0.68822014781E+01  0.27052385797E+02 -0.16155859571E+01  0.27960800999E+02  0.00000000000E+00 0.  1.
</event>
<event>
 7    1  0.5138511E-013  0.5052886E+02  0.7816164E-02  0.1300439E+00
        -11   -1    0    0    0    0  0.00000000000E+00  0.00000000000E+00  0.45593999997E+02  0.45594000000E+02  0.51100000000E-03 0.  1.
         11   -1    0    0    0    0 -0.00000000000E+00 -0.00000000000E+00 -0.45593999997E+02  0.45594000000E+02  0.51100000000E-03 0. -1.
    9900012    2    1    2    0    0  0.40518452257E+02 -0.19729220659E+01  0.27438346092E+01  0.50528855602E+02  0.29999987089E+02 0.  0.
        -12    1    1    2    0    0 -0.40518452257E+02  0.19729220659E+01 -0.27438346092E+01  0.40659144398E+02  0.00000000000E+00 0.  1.
         11    1    3    3    0    0  0.25862968533E+02 -0.30520943632E+01 -0.14603034138E+01  0.26083345408E+02  0.51100000000E-03 0. -1.
        -11    1    3    3    0    0  0.33850191008E+01 -0.85043924999E+01  0.36160743053E+00  0.91604479312E+01  0.51100000000E-03 0.  1.
        -12    1    3    3    0    0  0.11270464623E+02  0.95835647972E+01  0.38425305925E+01  0.15285062263E+02  0.00000000000E+00 0.  1.
</event>
<event>
 7    1  0.5138511E-013  0.5052886E+02  0.7816164E-02  0.1300439E+00
        -11   -1    0    0    0    0  0.00000000000E+00  0.00000000000E+00  0.45593999997E+02  0.45594000000E+02  0.51100000000E-03 0. -1.
         11   -1    0    0    0    0 -0.00000000000E+00 -0.00000000000E+00 -0.45593999997E+02  0.45594000000E+02  0.51100000000E-03 0.  1.
    9900012    2    1    2    0    0 -0.22556595673E+02  0.14492107166E+02  0.30567045976E+02  0.50528862304E+02  0.30000007458E+02 0.  0.
        -12    1    1    2    0    0  0.22556595673E+02 -0.14492107166E+02 -0.30567045976E+02  0.40659137696E+02  0.00000000000E+00 0.  1.
         11    1    3    3    0    0 -0.11356502318E+02  0.17111420818E+01  0.11881020569E+02  0.16524430464E+02  0.51100000000E-03 0. -1.
        -11    1    3    3    0    0  0.37966060554E+01  0.26380519534E+01  0.14775959271E+02  0.15482328904E+02  0.51100000000E-03 0.  1.
         12    1    3    3    0    0 -0.14996699411E+02  0.10142913131E+02  0.39100661368E+01  0.18522102936E+02  0.00000000000E+00 0. -1.
</event>
<event>
 7    1  0.5138511E-013  0.5052886E+02  0.7816164E-02  0.1300439E+00
        -11   -1    0    0    0    0  0.00000000000E+00  0.00000000000E+00  0.45593999997E+02  0.45594000000E+02  0.51100000000E-03 0.  1.
         11   -1    0    0    0    0 -0.00000000000E+00 -0.00000000000E+00 -0.45593999997E+02  0.45594000000E+02  0.51100000000E-03 0. -1.
    9900012    2    1    2    0    0  0.30802362024E+02 -0.13502976522E+02 -0.22848410909E+02  0.50528858811E+02  0.29999996842E+02 0.  0.
        -12    1    1    2    0    0 -0.30802362024E+02  0.13502976522E+02  0.22848410909E+02  0.40659141189E+02  0.00000000000E+00 0.  1.
         11    1    3    3    0    0  0.13935979943E+02 -0.95149581276E+01 -0.24920173403E+02  0.30095863634E+02  0.51100000000E-03 0. -1.
        -11    1    3    3    0    0 -0.16268949852E+00 -0.32373680233E+01  0.80777573904E+00  0.33405869988E+01  0.51100000000E-03 0.  1.
        -12    1    3    3    0    0  0.17029071579E+02 -0.75065037093E+00  0.12639867556E+01  0.17092408178E+02  0.00000000000E+00 0.  1.
</event>
<event>
 7    1  0.5138511E-013  0.5052888E+02  0.7816164E-02  0.1300439E+00
        -11   -1    0    0    0    0  0.00000000000E+00  0.00000000000E+00  0.45593999997E+02  0.45594000000E+02  0.51100000000E-03 0.  1.
         11   -1    0    0    0    0 -0.00000000000E+00 -0.00000000000E+00 -0.45593999997E+02  0.45594000000E+02  0.51100000000E-03 0. -1.
    9900012    2    1    2    0    0 -0.37864792125E+02 -0.10853847698E+02 -0.10080444779E+02  0.50528882210E+02  0.30000067966E+02 0.  0.
        -12    1    1    2    0    0  0.37864792125E+02  0.10853847698E+02  0.10080444779E+02  0.40659117790E+02  0.00000000000E+00 0.  1.
         11    1    3    3    0    0 -0.11612168271E+02 -0.53928645253E+01 -0.45048185792E+01  0.13572723767E+02  0.51100000000E-03 0. -1.
        -11    1    3    3    0    0 -0.14393138715E+02  0.89436106627E+01  0.14758227517E+01  0.17009663924E+02  0.51100000000E-03 0.  1.
        -12    1    3    3    0    0 -0.11859485138E+02 -0.14404593835E+02 -0.70514489519E+01  0.19946494520E+02  0.00000000000E+00 0.  1.
</event>
<event>
 7    1  0.5138511E-013  0.5052886E+02  0.7816164E-02  0.1300439E+00
        -11   -1    0    0    0    0  0.00000000000E+00  0.00000000000E+00  0.45593999997E+02  0.45594000000E+02  0.51100000000E-03 0. -1.
         11   -1    0    0    0    0 -0.00000000000E+00 -0.00000000000E+00 -0.45593999997E+02  0.45594000000E+02  0.51100000000E-03 0.  1.
    9900012    2    1    2    0    0 -0.97368176175E+01  0.52301749857E+01  0.39128061847E+02  0.50528861155E+02  0.30000003968E+02 0.  0.
        -12    1    1    2    0    0  0.97368176175E+01 -0.52301749857E+01 -0.39128061847E+02  0.40659138845E+02  0.00000000000E+00 0.  1.
         11    1    3    3    0    0 -0.18488517268E+00  0.72345141849E+01  0.18351721868E+02  0.19727089846E+02  0.51100000000E-03 0. -1.
        -11    1    3    3    0    0 -0.44498666743E+01 -0.58031860711E+01  0.22944272683E+02  0.24081485237E+02  0.51100000000E-03 0.  1.
         12    1    3    3    0    0 -0.51020657705E+01  0.37988468720E+01 -0.21679327042E+01  0.67202860723E+01  0.00000000000E+00 0. -1.
</event>
<event>
 7    1  0.5138511E-013  0.5052886E+02  0.7816164E-02  0.1300439E+00
        -11   -1    0    0    0    0  0.00000000000E+00  0.00000000000E+00  0.45593999997E+02  0.45594000000E+02  0.51100000000E-03 0.  1.
         11   -1    0    0    0    0 -0.00000000000E+00 -0.00000000000E+00 -0.45593999997E+02  0.45594000000E+02  0.51100000000E-03 0. -1.
    9900012    2    1    2    0    0 -0.25999083842E+02  0.31247873836E+02 -0.88513725781E+00  0.50528862677E+02  0.30000008592E+02 0.  0.
        -12    1    1    2    0    0  0.25999083842E+02 -0.31247873836E+02  0.88513725781E+00  0.40659137323E+02  0.00000000000E+00 0.  1.
         11    1    3    3    0    0 -0.90543296042E+01  0.14604281236E+01 -0.18717938790E+01  0.93604138515E+01  0.51100000000E-03 0. -1.
        -11    1    3    3    0    0 -0.21062446074E+02  0.24906874591E+02  0.58533892963E+01  0.33139722434E+02  0.51100000000E-03 0.  1.
         12    1    3    3    0    0  0.41176918357E+01  0.48805711213E+01 -0.48667326751E+01  0.80287263906E+01  0.00000000000E+00 0. -1.
</event>
<event>
 7    1  0.5138511E-013  0.5052888E+02  0.7816164E-02  0.1300439E+00
        -11   -1    0    0    0    0  0.00000000000E+00  0.00000000000E+00  0.45593999997E+02  0.45594000000E+02  0.51100000000E-03 0. -1.
         11   -1    0    0    0    0 -0.00000000000E+00 -0.00000000000E+00 -0.45593999997E+02  0.45594000000E+02  0.51100000000E-03 0.  1.
    9900012    2    1    2    0    0  0.32605309428E+02  0.18937002150E+01 -0.24217179243E+02  0.50528879573E+02  0.30000059949E+02 0.  0.
        -12    1    1    2    0    0 -0.32605309428E+02 -0.18937002150E+01  0.24217179243E+02  0.40659120427E+02  0.00000000000E+00 0.  1.
         11    1    3    3    0    0 -0.36933867767E+01 -0.20305614026E+01 -0.37009912149E+00  0.42309879594E+01  0.51100000000E-03 0. -1.
        -11    1    3    3    0    0  0.53008265920E+01  0.25231923550E+01  0.16922350650E+01  0.61097399286E+01  0.51100000000E-03 0.  1.
        -12    1    3    3    0    0  0.30997869613E+02  0.14010692626E+01 -0.25539315187E+02  0.40188151685E+02  0.00000000000E+00 0.  1.
</event>
<event>
 7    1  0.5138511E-013  0.5052886E+02  0.7816164E-02  0.1300439E+00
        -11   -1    0    0    0    0  0.00000000000E+00  0.00000000000E+00  0.45593999997E+02  0.45594000000E+02  0.51100000000E-03 0. -1.
         11   -1    0    0    0    0 -0.00000000000E+00 -0.00000000000E+00 -0.45593999997E+02  0.45594000000E+02  0.51100000000E-03 0.  1.
    9900012    2    1    2    0    0 -0.13317382807E+02  0.18589318564E+02  0.33619192820E+02  0.50528861109E+02  0.30000003827E+02 0.  0.
        -12    1    1    2    0    0  0.13317382807E+02 -0.18589318564E+02 -0.33619192820E+02  0.40659138891E+02  0.00000000000E+00 0.  1.
         11    1    3    3    0    0 -0.12849985277E+02  0.12576570435E+02  0.14781488079E+02  0.23276267648E+02  0.51100000000E-03 0. -1.
        -11    1    3    3    0    0 -0.26119108935E+01  0.19229161282E+01 -0.33066754766E+01  0.46318233904E+01  0.51100000000E-03 0.  1.
        -12    1    3    3    0    0  0.21445133641E+01  0.40898320009E+01  0.22144380218E+02  0.22620770071E+02  0.00000000000E+00 0.  1.
</event>
<event>
 7    1  0.5138511E-013  0.5052886E+02  0.7816164E-02  0.1300439E+00
        -11   -1    0    0    0    0  0.00000000000E+00  0.00000000000E+00  0.45593999997E+02  0.45594000000E+02  0.51100000000E-03 0.  1.
         11   -1    0    0    0    0 -0.00000000000E+00 -0.00000000000E+00 -0.45593999997E+02  0.45594000000E+02  0.51100000000E-03 0. -1.
    9900012    2    1    2    0    0  0.15547379034E+02  0.34694527863E+02  0.14413001031E+02  0.50528857644E+02  0.29999993294E+02 0.  0.
        -12    1    1    2    0    0 -0.15547379034E+02 -0.34694527863E+02 -0.14413001031E+02  0.40659142356E+02  0.00000000000E+00 0.  1.
         11    1    3    3    0    0  0.15810099207E+02  0.14937698169E+02  0.70037712513E+01  0.22850533375E+02  0.51100000000E-03 0. -1.
        -11    1    3    3    0    0  0.79500823826E+01  0.62844647152E+01  0.61402172818E+01  0.11849074866E+02  0.51100000000E-03 0.  1.
        -12    1    3    3    0    0 -0.82128025559E+01  0.13472364979E+02  0.12690124974E+01  0.15829249403E+02  0.00000000000E+00 0.  1.
</event>
<event>
 7    1  0.5138511E-013  0.5052886E+02  0.7816164E-02  0.1300439E+00
        -11   -1    0    0    0    0  0.00000000000E+00  0.00000000000E+00  0.45593999997E+02  0.45594000000E+02  0.51100000000E-03 0.  1.
         11   -1    0    0    0    0 -0.00000000000E+00 -0.00000000000E+00 -0.45593999997E+02  0.45594000000E+02  0.51100000000E-03 0. -1.
    9900012    2    1    2    0    0  0.15948082120E+02 -0.16559587360E+02 -0.33535122851E+02  0.50528859312E+02  0.29999998365E+02 0.  0.
        -12    1    1    2    0    0 -0.15948082120E+02  0.16559587360E+02  0.33535122851E+02  0.40659140688E+02  0.00000000000E+00 0.  1.
         11    1    3    3    0    0 -0.16813287403E+01 -0.61670290670E+01 -0.43343386188E+01  0.77230567374E+01  0.51100000000E-03 0. -1.
        -11    1    3    3    0    0 -0.11986432541E+01  0.36883502791E+01  0.14812716184E+01  0.41514863965E+01  0.51100000000E-03 0.  1.
         12    1    3    3    0    0  0.18828054115E+02 -0.14080908572E+02 -0.30682055851E+02  0.38654316178E+02  0.00000000000E+00 0. -1.
</event>
<event>
 7    1  0.5138511E-013  0.5052886E+02  0.7816164E-02  0.1300439E+00
        -11   -1    0    0    0    0  0.00000000000E+00  0.00000000000E+00  0.45593999997E+02  0.45594000000E+02  0.51100000000E-03 0. -1.
         11   -1    0    0    0    0 -0.00000000000E+00 -0.00000000000E+00 -0.45593999997E+02  0.45594000000E+02  0.51100000000E-03 0.  1.
    9900012    2    1    2    0    0 -0.36422655348E+02  0.14800050470E+02 -0.10368907388E+02  0.50528861335E+02  0.30000004514E+02 0.  0.
        -12    1    1    2    0    0  0.36422655348E+02 -0.14800050470E+02  0.10368907388E+02  0.40659138665E+02  0.00000000000E+00 0.  1.
         11    1    3    3    0    0 -0.15394075953E+02  0.24141017810E+01  0.43145818794E+01  0.16168521234E+02  0.51100000000E-03 0. -1.
        -11    1    3    3    0    0 -0.17646871980E+02  0.78426443590E+01 -0.19112913531E+02  0.27170252577E+02  0.51100000000E-03 0.  1.
         12    1    3    3    0    0 -0.33817074160E+01  0.45433043301E+01  0.44294242641E+01  0.71900875234E+01  0.00000000000E+00 0. -1.
</event>
<event>
 7    1  0.5138511E-013  0.5052889E+02  0.7816164E-02  0.1300439E+00
        -11   -1    0    0    0    0  0.00000000000E+00  0.00000000000E+00  0.45593999997E+02  0.45594000000E+02  0.51100000000E-03 0.  1.
         11   -1    0    0    0    0 -0.00000000000E+00 -0.00000000000E+00 -0.45593999997E+02  0.45594000000E+02  0.51100000000E-03 0. -1.
    9900012    2    1    2    0    0 -0.11042245600E+02 -0.26304319618E+02 -0.28970927855E+02  0.50528891805E+02  0.30000097131E+02 0.  0.
        -12    1    1    2    0    0  0.11042245600E+02  0.26304319618E+02  0.28970927855E+02  0.40659108195E+02  0.00000000000E+00 0.  1.
         11    1    3    3    0    0 -0.11974374658E+02 -0.25214396311E+02 -0.17700352036E+02  0.33052290272E+02  0.51100000000E-03 0. -1.
        -11    1    3    3    0    0  0.44300720458E+01 -0.54592709589E+01 -0.33757074231E+01  0.77990113862E+01  0.51100000000E-03 0.  1.
         12    1    3    3    0    0 -0.34979429878E+01  0.43693476528E+01 -0.78948683958E+01  0.96775901465E+01  0.00000000000E+00 0. -1.
</event>
<event>
 7    1  0.5138511E-013  0.5052886E+02  0.7816164E-02  0.1300439E+00
        -11   -1    0    0    0    0  0.00000000000E+00  0.00000000000E+00  0.45593999997E+02  0.45594000000E+02  0.51100000000E-03 0. -1.
         11   -1    0    0    0    0 -0.00000000000E+00 -0.00000000000E+00 -0.45593999997E+02  0.45594000000E+02  0.51100000000E-03 0.  1.
    9900012    2    1    2    0    0  0.17651644212E+02 -0.22137278599E+02 -0.29180912523E+02  0.50528864460E+02  0.30000014014E+02 0.  0.
        -12    1    1    2    0    0 -0.17651644212E+02  0.22137278599E+02  0.29180912523E+02  0.40659135540E+02  0.00000000000E+00 0.  1.
         11    1    3    3    0    0  0.16014487792E+02 -0.70674242915E+01 -0.77076289717E+01  0.19126417594E+02  0.51100000000E-03 0. -1.
        -11    1    3    3    0    0  0.40178761075E+01 -0.11363068752E+02 -0.30124903843E+01  0.12423274868E+02  0.51100000000E-03 0.  1.
        -12    1    3    3    0    0 -0.23807196872E+01 -0.37067855554E+01 -0.18460793167E+02  0.18979171998E+02  0.00000000000E+00 0.  1.
</event>
<event>
 7    1  0.5138511E-013  0.5052886E+02  0.7816164E-02  0.1300439E+00
        -11   -1    0    0    0    0  0.00000000000E+00  0.00000000000E+00  0.45593999997E+02  0.45594000000E+02  0.51100000000E-03 0.  1.
         11   -1    0    0    0    0 -0.00000000000E+00 -0.00000000000E+00 -0.45593999997E+02  0.45594000000E+02  0.51100000000E-03 0. -1.
    9900012    2    1    2    0    0  0.32727906352E+02 -0.17959865751E+02 -0.16108791047E+02  0.50528858580E+02  0.29999996140E+02 0.  0.
        -12    1    1    2    0    0 -0.32727906352E+02  0.17959865751E+02  0.16108791047E+02  0.40659141420E+02  0.00000000000E+00 0.  1.
         11    1    3    3    0    0  0.23740868645E+02  0.12311677533E+01 -0.10414064681E+02  0.25953754285E+02  0.51100000000E-03 0. -1.
        -11    1    3    3    0    0 -0.44906742711E+00 -0.18454554212E+01  0.25476940489E+01  0.31777527426E+01  0.51100000000E-03 0.  1.
        -12    1    3    3    0    0  0.94361051344E+01 -0.17345578083E+02 -0.82424204148E+01  0.21397351552E+02  0.00000000000E+00 0.  1.
</event>
<event>
 7    1  0.5138511E-013  0.5052886E+02  0.7816164E-02  0.1300439E+00
        -11   -1    0    0    0    0  0.00000000000E+00  0.00000000000E+00  0.45593999997E+02  0.45594000000E+02  0.51100000000E-03 0.  1.
         11   -1    0    0    0    0 -0.00000000000E+00 -0.00000000000E+00 -0.45593999997E+02  0.45594000000E+02  0.51100000000E-03 0. -1.
    9900012    2    1    2    0    0  0.20730852743E+02 -0.10534583078E+02 -0.33352959505E+02  0.50528860759E+02  0.30000002764E+02 0.  0.
        -12    1    1    2    0    0 -0.20730852743E+02  0.10534583078E+02  0.33352959505E+02  0.40659139241E+02  0.00000000000E+00 0.  1.
         11    1    3    3    0    0  0.11461605523E+02 -0.10332915103E+02 -0.73814938397E+01  0.17106255793E+02  0.51100000000E-03 0. -1.
        -11    1    3    3    0    0  0.33458670347E+01  0.38157873388E+01  0.12907624801E+01  0.52365186212E+01  0.51100000000E-03 0.  1.
         12    1    3    3    0    0  0.59233801849E+01 -0.40174553148E+01 -0.27262228145E+02  0.28186086345E+02  0.00000000000E+00 0. -1.
</event>
<event>
 7    1  0.5138511E-013  0.5052885E+02  0.7816164E-02  0.1300439E+00
        -11   -1    0    0    0    0  0.00000000000E+00  0.00000000000E+00  0.45593999997E+02  0.45594000000E+02  0.51100000000E-03 0. -1.
         11   -1    0    0    0    0 -0.00000000000E+00 -0.00000000000E+00 -0.45593999997E+02  0.45594000000E+02  0.51100000000E-03 0.  1.
    9900012    2    1    2    0    0  0.34756629183E+02 -0.71002315840E+01  0.19867806719E+02  0.50528852142E+02  0.29999976571E+02 0.  0.
        -12    1    1    2    0    0 -0.34756629183E+02  0.71002315840E+01 -0.19867806719E+02  0.40659147858E+02  0.00000000000E+00 0.  1.
         11    1    3    3    0    0  0.36604539143E+01 -0.31486288594E+01  0.14602754188E+02  0.15380286625E+02  0.51100000000E-03 0. -1.
        -11    1    3    3    0    0  0.18247285459E+01  0.30282824411E+01 -0.21741267979E+01  0.41505368814E+01  0.51100000000E-03 0.  1.
         12    1    3    3    0    0  0.29271446723E+02 -0.69798851657E+01  0.74391793295E+01  0.30998028635E+02  0.00000000000E+00 0. -1.
</event>
<event>
 7    1  0.5138511E-013  0.5052888E+02  0.7816164E-02  0.1300439E+00
        -11   -1    0    0    0    0  0.00000000000E+00  0.00000000000E+00  0.45593999997E+02  0.45594000000E+02  0.51100000000E-03 0.  1.
         11   -1    0    0    0    0 -0.00000000000E+00 -0.00000000000E+00 -0.45593999997E+02  0.45594000000E+02  0.51100000000E-03 0. -1.
    9900012    2    1    2    0    0 -0.29746864509E+02  0.22641868725E+01 -0.27625385403E+02  0.50528875452E+02  0.30000047425E+02 0.  0.
        -12    1    1    2    0    0  0.29746864509E+02 -0.22641868725E+01  0.27625385403E+02  0.40659124548E+02  0.00000000000E+00 0.  1.
         11    1    3    3    0    0 -0.55831318961E+01  0.82630874401E+01 -0.12373940713E+02  0.15892274376E+02  0.51100000000E-03 0. -1.
        -11    1    3    3    0    0 -0.93382153443E+01 -0.22163196259E+01 -0.16706507658E+02  0.19267115427E+02  0.51100000000E-03 0.  1.
         12    1    3    3    0    0 -0.14825517269E+02 -0.37825809417E+01  0.14550629682E+01  0.15369485649E+02  0.00000000000E+00 0. -1.
</event>
<event>
 7    1  0.5138511E-013  0.5052886E+02  0.7816164E-02  0.1300439E+00
        -11   -1    0    0    0    0  0.00000000000E+00  0.00000000000E+00  0.45593999997E+02  0.45594000000E+02  0.51100000000E-03 0.  1.
         11   -1    0    0    0    0 -0.00000000000E+00 -0.00000000000E+00 -0.45593999997E+02  0.45594000000E+02  0.51100000000E-03 0. -1.
    9900012    2    1    2    0    0  0.17887115706E+01 -0.20239657261E+02 -0.35218212290E+02  0.50528859674E+02  0.29999999465E+02 0.  0.
        -12    1    1    2    0    0 -0.17887115706E+01  0.20239657261E+02  0.35218212290E+02  0.40659140326E+02  0.00000000000E+00 0.  1.
         11    1    3    3    0    0  0.22699103164E+01 -0.96007483534E+01 -0.27752788535E+02  0.29454102151E+02  0.51100000000E-03 0. -1.
        -11    1    3    3    0    0  0.70231838742E+01 -0.16816783731E+01 -0.58181946534E+01  0.92738634434E+01  0.51100000000E-03 0.  1.
        -12    1    3    3    0    0 -0.75043826201E+01 -0.89572305350E+01 -0.16472291021E+01  0.11800894080E+02  0.00000000000E+00 0.  1.
</event>
<event>
 7    1  0.5138511E-013  0.5052886E+02  0.7816164E-02  0.1300439E+00
        -11   -1    0    0    0    0  0.00000000000E+00  0.00000000000E+00  0.45593999997E+02  0.45594000000E+02  0.51100000000E-03 0.  1.
         11   -1    0    0    0    0 -0.00000000000E+00 -0.00000000000E+00 -0.45593999997E+02  0.45594000000E+02  0.51100000000E-03 0. -1.
    9900012    2    1    2    0    0 -0.10211602208E+02  0.37320723233E+02 -0.12492103742E+02  0.50528857631E+02  0.29999993254E+02 0.  0.
        -12    1    1    2    0    0  0.10211602208E+02 -0.37320723233E+02  0.12492103742E+02  0.40659142369E+02  0.00000000000E+00 0.  1.
         11    1    3    3    0    0 -0.11811543408E+02  0.98925060309E+01 -0.53659737697E+00  0.15416295607E+02  0.51100000000E-03 0. -1.
        -11    1    3    3    0    0 -0.31438105783E+01  0.32136184552E+01 -0.92565475073E+01  0.10290508274E+02  0.51100000000E-03 0.  1.
        -12    1    3    3    0    0  0.47437517775E+01  0.24214598747E+02 -0.26989588581E+01  0.24822053749E+02  0.00000000000E+00 0.  1.
</event>
<event>
 7    1  0.5138511E-013  0.5052884E+02  0.7816164E-02  0.1300439E+00
        -11   -1    0    0    0    0  0.00000000000E+00  0.00000000000E+00  0.45593999997E+02  0.45594000000E+02  0.51100000000E-03 0.  1.
         11   -1    0    0    0    0 -0.00000000000E+00 -0.00000000000E+00 -0.45593999997E+02  0.45594000000E+02  0.51100000000E-03 0. -1.
    9900012    2    1    2    0    0  0.11258235304E+02 -0.17317763961E+02 -0.35021628412E+02  0.50528840301E+02  0.29999940578E+02 0.  0.
        -12    1    1    2    0    0 -0.11258235304E+02  0.17317763961E+02  0.35021628412E+02  0.40659159699E+02  0.00000000000E+00 0.  1.
         11    1    3    3    0    0 -0.37163265794E+00  0.62839934778E+01 -0.45851678569E+01  0.77878398417E+01  0.51100000000E-03 0.  1.
        -11    1    3    3    0    0 -0.26907503476E+01 -0.76566555276E+01 -0.11906174127E+02  0.14409076789E+02  0.51100000000E-03 0. -1.
         12    1    3    3    0    0  0.14320618310E+02 -0.15945101911E+02 -0.18530286428E+02  0.28331923670E+02  0.00000000000E+00 0. -1.
</event>
<event>
 7    1  0.5138511E-013  0.5052886E+02  0.7816164E-02  0.1300439E+00
        -11   -1    0    0    0    0  0.00000000000E+00  0.00000000000E+00  0.45593999997E+02  0.45594000000E+02  0.51100000000E-03 0. -1.
         11   -1    0    0    0    0 -0.00000000000E+00 -0.00000000000E+00 -0.45593999997E+02  0.45594000000E+02  0.51100000000E-03 0.  1.
    9900012    2    1    2    0    0  0.46526789682E+01 -0.39544413159E+02 -0.82315196838E+01  0.50528856502E+02  0.29999989824E+02 0.  0.
        -12    1    1    2    0    0 -0.46526789682E+01  0.39544413159E+02  0.82315196838E+01  0.40659143498E+02  0.00000000000E+00 0.  1.
         11    1    3    3    0    0  0.15535416785E+02 -0.21045829083E+02 -0.70376026695E+00  0.26168136641E+02  0.51100000000E-03 0. -1.
        -11    1    3    3    0    0 -0.19728278132E+01 -0.27702434583E+00  0.11486732470E+01  0.22996179157E+01  0.51100000000E-03 0.  1.
        -12    1    3    3    0    0 -0.89099100039E+01 -0.18221559730E+02 -0.86764326638E+01  0.22061101945E+02  0.00000000000E+00 0.  1.
</event>
<event>
 7    1  0.5138511E-013  0.5052888E+02  0.7816164E-02  0.1300439E+00
        -11   -1    0    0    0    0  0.00000000000E+00  0.00000000000E+00  0.45593999997E+02  0.45594000000E+02  0.51100000000E-03 0.  1.
         11   -1    0    0    0    0 -0.00000000000E+00 -0.00000000000E+00 -0.45593999997E+02  0.45594000000E+02  0.51100000000E-03 0. -1.
    9900012    2    1    2    0    0 -0.22229513506E+02  0.32777964076E+02 -0.91987860309E+01  0.50528882152E+02  0.30000067790E+02 0.  0.
        -12    1    1    2    0    0  0.22229513506E+02 -0.32777964076E+02  0.91987860309E+01  0.40659117848E+02  0.00000000000E+00 0.  1.
         11    1    3    3    0    0 -0.11010335928E+02  0.16757614290E+02 -0.64535202272E+01  0.21064022824E+02  0.51100000000E-03 0. -1.
        -11    1    3    3    0    0 -0.12110023806E+02  0.18372900088E+02  0.39104034804E+01  0.22349661964E+02  0.51100000000E-03 0.  1.
        -12    1    3    3    0    0  0.89084622806E+00 -0.23525503020E+01 -0.66556692840E+01  0.71151973650E+01  0.00000000000E+00 0.  1.
</event>
<event>
 7    1  0.5138511E-013  0.5052886E+02  0.7816164E-02  0.1300439E+00
        -11   -1    0    0    0    0  0.00000000000E+00  0.00000000000E+00  0.45593999997E+02  0.45594000000E+02  0.51100000000E-03 0.  1.
         11   -1    0    0    0    0 -0.00000000000E+00 -0.00000000000E+00 -0.45593999997E+02  0.45594000000E+02  0.51100000000E-03 0. -1.
    9900012    2    1    2    0    0 -0.73289213706E+01 -0.39851600811E+02  0.33619379629E+01  0.50528858316E+02  0.29999995337E+02 0.  0.
        -12    1    1    2    0    0  0.73289213706E+01  0.39851600811E+02 -0.33619379629E+01  0.40659141684E+02  0.00000000000E+00 0.  1.
         11    1    3    3    0    0 -0.90244321065E+01 -0.13147474745E+02  0.38301131296E+01  0.16400190055E+02  0.51100000000E-03 0. -1.
        -11    1    3    3    0    0  0.87760870293E+00 -0.13059112751E+02  0.10358026129E+02  0.16691294989E+02  0.51100000000E-03 0.  1.
         12    1    3    3    0    0  0.81790203293E+00 -0.13645013315E+02 -0.10826201295E+02  0.17437373271E+02  0.00000000000E+00 0. -1.
</event>
<event>
 7    1  0.5138511E-013  0.5052887E+02  0.7816164E-02  0.1300439E+00
        -11   -1    0    0    0    0  0.00000000000E+00  0.00000000000E+00  0.45593999997E+02  0.45594000000E+02  0.51100000000E-03 0. -1.
         11   -1    0    0    0    0 -0.00000000000E+00 -0.00000000000E+00 -0.45593999997E+02  0.45594000000E+02  0.51100000000E-03 0.  1.
    9900012    2    1    2    0    0  0.23192715371E+01  0.27646418919E+02  0.29723078517E+02  0.50528869463E+02  0.30000029218E+02 0.  0.
        -12    1    1    2    0    0 -0.23192715371E+01 -0.27646418919E+02 -0.29723078517E+02  0.40659130537E+02  0.00000000000E+00 0.  1.
         11    1    3    3    0    0 -0.81433272432E+00  0.15143286198E+02  0.21430653881E+02  0.26253669852E+02  0.51100000000E-03 0. -1.
        -11    1    3    3    0    0  0.60667796962E+01 -0.30846519066E+01  0.37765127759E+01  0.77835044983E+01  0.51100000000E-03 0.  1.
        -12    1    3    3    0    0 -0.29331754348E+01  0.15587784628E+02  0.45159118596E+01  0.16491695112E+02  0.00000000000E+00 0.  1.
</event>
<event>
 7    1  0.5138511E-013  0.5052886E+02  0.7816164E-02  0.1300439E+00
        -11   -1    0    0    0    0  0.00000000000E+00  0.00000000000E+00  0.45593999997E+02  0.45594000000E+02  0.51100000000E-03 0.  1.
         11   -1    0    0    0    0 -0.00000000000E+00 -0.00000000000E+00 -0.45593999997E+02  0.45594000000E+02  0.51100000000E-03 0. -1.
    9900012    2    1    2    0    0  0.19156183976E+02 -0.18437915302E+02 -0.30761166409E+02  0.50528862477E+02  0.30000007986E+02 0.  0.
        -12    1    1    2    0    0 -0.19156183976E+02  0.18437915302E+02  0.30761166409E+02  0.40659137523E+02  0.00000000000E+00 0.  1.
         11    1    3    3    0    0  0.16998751280E+02 -0.10977219371E+02 -0.43344989951E+01  0.20694075770E+02  0.51100000000E-03 0. -1.
        -11    1    3    3    0    0  0.38819759947E+01 -0.79616320184E+01 -0.10200453335E+02  0.13509499270E+02  0.51100000000E-03 0.  1.
        -12    1    3    3    0    0 -0.17245432982E+01  0.50093608712E+00 -0.16226214079E+02  0.16325287437E+02  0.00000000000E+00 0.  1.
</event>
<event>
 7    1  0.5138511E-013  0.5052889E+02  0.7816164E-02  0.1300439E+00
        -11   -1    0    0    0    0  0.00000000000E+00  0.00000000000E+00  0.45593999997E+02  0.45594000000E+02  0.51100000000E-03 0.  1.
         11   -1    0    0    0    0 -0.00000000000E+00 -0.00000000000E+00 -0.45593999997E+02  0.45594000000E+02  0.51100000000E-03 0. -1.
    9900012    2    1    2    0    0  0.29099323964E+02  0.87456233366E+01  0.27016790098E+02  0.50528886263E+02  0.30000080284E+02 0.  0.
        -12    1    1    2    0    0 -0.29099323964E+02 -0.87456233366E+01 -0.27016790098E+02  0.40659113737E+02  0.00000000000E+00 0.  1.
         11    1    3    3    0    0  0.17437265293E+02  0.23977452037E+01  0.23794933806E+02  0.29597403232E+02  0.51100000000E-03 0. -1.
        -11    1    3    3    0    0  0.15172858839E+02  0.31191250211E+01  0.62985712623E+00  0.15502945092E+02  0.51100000000E-03 0.  1.
        -12    1    3    3    0    0 -0.35108001687E+01  0.32287531118E+01  0.25919991658E+01  0.54285379392E+01  0.00000000000E+00 0.  1.
</event>
<event>
 7    1  0.5138511E-013  0.5052897E+02  0.7816164E-02  0.1300438E+00
        -11   -1    0    0    0    0  0.00000000000E+00  0.00000000000E+00  0.45593999997E+02  0.45594000000E+02  0.51100000000E-03 0.  1.
         11   -1    0    0    0    0 -0.00000000000E+00 -0.00000000000E+00 -0.45593999997E+02  0.45594000000E+02  0.51100000000E-03 0. -1.
    9900012    2    1    2    0    0  0.26405705746E+02 -0.28106089728E+02 -0.12881899041E+02  0.50528967810E+02  0.30000328154E+02 0.  0.
        -12    1    1    2    0    0 -0.26405705746E+02  0.28106089728E+02  0.12881899041E+02  0.40659032190E+02  0.00000000000E+00 0.  1.
         11    1    3    3    0    0  0.59452162989E+01 -0.10154966511E+02 -0.10578885448E+02  0.15823455984E+02  0.51100000000E-03 0. -1.
        -11    1    3    3    0    0  0.94927617218E+01 -0.20966734825E+02  0.37962944122E+00  0.23018701377E+02  0.51100000000E-03 0.  1.
         12    1    3    3    0    0  0.10967727725E+02  0.30156116085E+01 -0.26826430342E+01  0.11686810449E+02  0.00000000000E+00 0. -1.
</event>
<event>
 7    1  0.5138511E-013  0.5052886E+02  0.7816164E-02  0.1300439E+00
        -11   -1    0    0    0    0  0.00000000000E+00  0.00000000000E+00  0.45593999997E+02  0.45594000000E+02  0.51100000000E-03 0.  1.
         11   -1    0    0    0    0 -0.00000000000E+00 -0.00000000000E+00 -0.45593999997E+02  0.45594000000E+02  0.51100000000E-03 0. -1.
    9900012    2    1    2    0    0  0.13874697740E+02 -0.21709873677E+02 -0.31453776629E+02  0.50528856911E+02  0.29999991068E+02 0.  0.
        -12    1    1    2    0    0 -0.13874697740E+02  0.21709873677E+02  0.31453776629E+02  0.40659143089E+02  0.00000000000E+00 0.  1.
         11    1    3    3    0    0  0.45603991430E+01 -0.19843605556E+02 -0.28627854184E+02  0.35130043513E+02  0.51100000000E-03 0. -1.
        -11    1    3    3    0    0  0.65762034033E+01 -0.38492648351E+00 -0.73736337406E+01  0.98876232939E+01  0.51100000000E-03 0.  1.
         12    1    3    3    0    0  0.27380951935E+01 -0.14813416378E+01  0.45477112955E+01  0.55111901041E+01  0.00000000000E+00 0. -1.
</event>
<event>
 7    1  0.5138511E-013  0.5052886E+02  0.7816164E-02  0.1300439E+00
        -11   -1    0    0    0    0  0.00000000000E+00  0.00000000000E+00  0.45593999997E+02  0.45594000000E+02  0.51100000000E-03 0.  1.
         11   -1    0    0    0    0 -0.00000000000E+00 -0.00000000000E+00 -0.45593999997E+02  0.45594000000E+02  0.51100000000E-03 0. -1.
    9900012    2    1    2    0    0  0.31562353835E+02  0.25105664251E+02 -0.51661658858E+01  0.50528858014E+02  0.29999994418E+02 0.  0.
        -12    1    1    2    0    0 -0.31562353835E+02 -0.25105664251E+02  0.51661658858E+01  0.40659141986E+02  0.00000000000E+00 0.  1.
         11    1    3    3    0    0  0.20334579705E+02  0.25995278607E+02 -0.92288058378E+01  0.34269819070E+02  0.51100000000E-03 0. -1.
        -11    1    3    3    0    0  0.75762696005E+01  0.96322904612E+00 -0.29100983802E+01  0.81729030398E+01  0.51100000000E-03 0.  1.
        -12    1    3    3    0    0  0.36515045301E+01 -0.18528434021E+01  0.69727383323E+01  0.80861359039E+01  0.00000000000E+00 0.  1.
</event>
<event>
 7    1  0.5138511E-013  0.5052888E+02  0.7816164E-02  0.1300439E+00
        -11   -1    0    0    0    0  0.00000000000E+00  0.00000000000E+00  0.45593999997E+02  0.45594000000E+02  0.51100000000E-03 0.  1.
         11   -1    0    0    0    0 -0.00000000000E+00 -0.00000000000E+00 -0.45593999997E+02  0.45594000000E+02  0.51100000000E-03 0. -1.
    9900012    2    1    2    0    0  0.12894964155E+02  0.38168686688E+02 -0.54804443336E+01  0.50528880308E+02  0.30000062185E+02 0.  0.
        -12    1    1    2    0    0 -0.12894964155E+02 -0.38168686688E+02  0.54804443336E+01  0.40659119692E+02  0.00000000000E+00 0.  1.
         11    1    3    3    0    0  0.11158884144E+01  0.17609484188E+02 -0.65693857358E+01  0.18828063350E+02  0.51100000000E-03 0. -1.
        -11    1    3    3    0    0 -0.29586594124E+01  0.11996043223E+02  0.63109074753E+01  0.13873942192E+02  0.51100000000E-03 0.  1.
        -12    1    3    3    0    0  0.14737735153E+02  0.85631592769E+01 -0.52219660731E+01  0.17826874766E+02  0.00000000000E+00 0.  1.
</event>
<event>
 7    1  0.5138511E-013  0.5052886E+02  0.7816164E-02  0.1300439E+00
        -11   -1    0    0    0    0  0.00000000000E+00  0.00000000000E+00  0.45593999997E+02  0.45594000000E+02  0.51100000000E-03 0.  1.
         11   -1    0    0    0    0 -0.00000000000E+00 -0.00000000000E+00 -0.45593999997E+02  0.45594000000E+02  0.51100000000E-03 0. -1.
    9900012    2    1    2    0    0  0.17099982880E+01 -0.77163120130E+01 -0.39883584570E+02  0.50528857321E+02  0.29999992313E+02 0.  0.
        -12    1    1    2    0    0 -0.17099982880E+01  0.77163120130E+01  0.39883584570E+02  0.40659142679E+02  0.00000000000E+00 0.  1.
         11    1    3    3    0    0  0.29516210058E+01 -0.29159471410E+01 -0.34563801386E+00  0.41634457110E+01  0.51100000000E-03 0. -1.
        -11    1    3    3    0    0  0.60475519261E+01  0.39973075425E+01 -0.31680330392E+02  0.32499149003E+02  0.51100000000E-03 0.  1.
         12    1    3    3    0    0 -0.72891746439E+01 -0.87976724145E+01 -0.78576161642E+01  0.13866262607E+02  0.00000000000E+00 0. -1.
</event>
<event>
 7    1  0.5138511E-013  0.5052879E+02  0.7816164E-02  0.1300439E+00
        -11   -1    0    0    0    0  0.00000000000E+00  0.00000000000E+00  0.45593999997E+02  0.45594000000E+02  0.51100000000E-03 0. -1.
         11   -1    0    0    0    0 -0.00000000000E+00 -0.00000000000E+00 -0.45593999997E+02  0.45594000000E+02  0.51100000000E-03 0.  1.
    9900012    2    1    2    0    0  0.30070232920E+02 -0.21318902715E+02 -0.17159750222E+02  0.50528787655E+02  0.29999780554E+02 0.  0.
        -12    1    1    2    0    0 -0.30070232920E+02  0.21318902715E+02  0.17159750222E+02  0.40659212345E+02  0.00000000000E+00 0.  1.
         11    1    3    3    0    0 -0.11959920839E+01 -0.76506917702E+00  0.13337187116E+01  0.19479563068E+01  0.51100000000E-03 0. -1.
        -11    1    3    3    0    0  0.97620515409E+01 -0.83631923741E+01 -0.20045311896E+02  0.23812920154E+02  0.51100000000E-03 0.  1.
         12    1    3    3    0    0  0.21504173463E+02 -0.12190641164E+02  0.15518429624E+01  0.24767911194E+02  0.00000000000E+00 0. -1.
</event>
<event>
 7    1  0.5138511E-013  0.5052884E+02  0.7816164E-02  0.1300439E+00
        -11   -1    0    0    0    0  0.00000000000E+00  0.00000000000E+00  0.45593999997E+02  0.45594000000E+02  0.51100000000E-03 0.  1.
         11   -1    0    0    0    0 -0.00000000000E+00 -0.00000000000E+00 -0.45593999997E+02  0.45594000000E+02  0.51100000000E-03 0. -1.
    9900012    2    1    2    0    0 -0.82389909655E+01  0.13445152039E+02 -0.37476848325E+02  0.50528840566E+02  0.29999941386E+02 0.  0.
        -12    1    1    2    0    0  0.82389909655E+01 -0.13445152039E+02  0.37476848325E+02  0.40659159434E+02  0.00000000000E+00 0.  1.
         11    1    3    3    0    0  0.29714367616E+01  0.67009107996E+01 -0.17487119753E+02  0.18961302685E+02  0.51100000000E-03 0. -1.
        -11    1    3    3    0    0 -0.38778063744E+01  0.11768204347E+02 -0.35673169132E+01  0.12893942998E+02  0.51100000000E-03 0.  1.
         12    1    3    3    0    0 -0.73326213527E+01 -0.50239631069E+01 -0.16422411658E+02  0.18673594883E+02  0.00000000000E+00 0. -1.
</event>
<event>
 7    1  0.5138511E-013  0.5052886E+02  0.7816164E-02  0.1300439E+00
        -11   -1    0    0    0    0  0.00000000000E+00  0.00000000000E+00  0.45593999997E+02  0.45594000000E+02  0.51100000000E-03 0.  1.
         11   -1    0    0    0    0 -0.00000000000E+00 -0.00000000000E+00 -0.45593999997E+02  0.45594000000E+02  0.51100000000E-03 0. -1.
    9900012    2    1    2    0    0  0.30183559988E+01 -0.40541545229E+02 -0.66177385625E+00  0.50528864408E+02  0.30000013854E+02 0.  0.
        -12    1    1    2    0    0 -0.30183559988E+01  0.40541545229E+02  0.66177385625E+00  0.40659135592E+02  0.00000000000E+00 0.  1.
         11    1    3    3    0    0 -0.49085120743E+01  0.20922388033E+01 -0.48030548097E-01  0.53360342192E+01  0.51100000000E-03 0. -1.
        -11    1    3    3    0    0 -0.21627476091E+01 -0.11659671692E+02  0.34848608062E+01  0.12360003086E+02  0.51100000000E-03 0.  1.
         12    1    3    3    0    0  0.10089615682E+02 -0.30974112340E+02 -0.40986041143E+01  0.32832827103E+02  0.00000000000E+00 0. -1.
</event>
<event>
 7    1  0.5138511E-013  0.5052884E+02  0.7816164E-02  0.1300439E+00
        -11   -1    0    0    0    0  0.00000000000E+00  0.00000000000E+00  0.45593999997E+02  0.45594000000E+02  0.51100000000E-03 0.  1.
         11   -1    0    0    0    0 -0.00000000000E+00 -0.00000000000E+00 -0.45593999997E+02  0.45594000000E+02  0.51100000000E-03 0. -1.
    9900012    2    1    2    0    0 -0.13868510499E+01  0.37710335768E+02 -0.15138522790E+02  0.50528835573E+02  0.29999926208E+02 0.  0.
        -12    1    1    2    0    0  0.13868510499E+01 -0.37710335768E+02  0.15138522790E+02  0.40659164427E+02  0.00000000000E+00 0.  1.
         11    1    3    3    0    0  0.11515394541E+02  0.12624133682E+02 -0.26136346126E+01  0.17285952354E+02  0.51100000000E-03 0. -1.
        -11    1    3    3    0    0 -0.67457076477E+00 -0.14322194488E+01 -0.81708755501E+00  0.17815528620E+01  0.51100000000E-03 0.  1.
         12    1    3    3    0    0 -0.12227674826E+02  0.26518421536E+02 -0.11707800623E+02  0.31461330357E+02  0.00000000000E+00 0. -1.
</event>
<event>
 7    1  0.5138511E-013  0.5052886E+02  0.7816164E-02  0.1300439E+00
        -11   -1    0    0    0    0  0.00000000000E+00  0.00000000000E+00  0.45593999997E+02  0.45594000000E+02  0.51100000000E-03 0.  1.
         11   -1    0    0    0    0 -0.00000000000E+00 -0.00000000000E+00 -0.45593999997E+02  0.45594000000E+02  0.51100000000E-03 0. -1.
    9900012    2    1    2    0    0  0.21436899912E+02 -0.33009797612E+02  0.10196961707E+02  0.50528862721E+02  0.30000008727E+02 0.  0.
        -12    1    1    2    0    0 -0.21436899912E+02  0.33009797612E+02 -0.10196961707E+02  0.40659137279E+02  0.00000000000E+00 0.  1.
         11    1    3    3    0    0 -0.22965607095E+01 -0.13629218453E+02  0.53156375744E+01  0.14808301382E+02  0.51100000000E-03 0. -1.
        -11    1    3    3    0    0  0.40122119599E+01  0.33296641436E+01  0.16541500804E+01  0.54699836261E+01  0.51100000000E-03 0.  1.
        -12    1    3    3    0    0  0.19721248661E+02 -0.22710243303E+02  0.32271740521E+01  0.30250577714E+02  0.00000000000E+00 0.  1.
</event>
<event>
 7    1  0.5138511E-013  0.5052887E+02  0.7816164E-02  0.1300439E+00
        -11   -1    0    0    0    0  0.00000000000E+00  0.00000000000E+00  0.45593999997E+02  0.45594000000E+02  0.51100000000E-03 0.  1.
         11   -1    0    0    0    0 -0.00000000000E+00 -0.00000000000E+00 -0.45593999997E+02  0.45594000000E+02  0.51100000000E-03 0. -1.
    9900012    2    1    2    0    0 -0.22731443415E+02  0.29759261180E+02 -0.15837707798E+02  0.50528866537E+02  0.30000020325E+02 0.  0.
        -12    1    1    2    0    0  0.22731443415E+02 -0.29759261180E+02  0.15837707798E+02  0.40659133463E+02  0.00000000000E+00 0.  1.
         11    1    3    3    0    0 -0.10000553232E+02  0.97591776208E+01 -0.12656813837E+02  0.18853316672E+02  0.51100000000E-03 0. -1.
        -11    1    3    3    0    0  0.47459674039E+01  0.84664208765E+01 -0.44919739649E+01  0.10694967013E+02  0.51100000000E-03 0.  1.
        -12    1    3    3    0    0 -0.17476857587E+02  0.11533662683E+02  0.13110800038E+01  0.20980582851E+02  0.00000000000E+00 0.  1.
</event>
<event>
 7    1  0.5138511E-013  0.5052886E+02  0.7816164E-02  0.1300439E+00
        -11   -1    0    0    0    0  0.00000000000E+00  0.00000000000E+00  0.45593999997E+02  0.45594000000E+02  0.51100000000E-03 0.  1.
         11   -1    0    0    0    0 -0.00000000000E+00 -0.00000000000E+00 -0.45593999997E+02  0.45594000000E+02  0.51100000000E-03 0. -1.
    9900012    2    1    2    0    0 -0.39246528162E+02  0.10599610251E+02  0.72383237568E+00  0.50528860270E+02  0.30000001278E+02 0.  0.
        -12    1    1    2    0    0  0.39246528162E+02 -0.10599610251E+02 -0.72383237568E+00  0.40659139730E+02  0.00000000000E+00 0.  1.
         11    1    3    3    0    0 -0.18555708015E+02 -0.68811671548E+01 -0.44910600904E+00  0.19795617136E+02  0.51100000000E-03 0. -1.
        -11    1    3    3    0    0  0.18937338029E+00  0.45723893223E+00 -0.33755193668E+01  0.34116068026E+01  0.51100000000E-03 0.  1.
         12    1    3    3    0    0 -0.20880193528E+02  0.17023538474E+02  0.45484577516E+01  0.27321636332E+02  0.00000000000E+00 0. -1.
</event>
<event>
 7    1  0.5138511E-013  0.5052887E+02  0.7816164E-02  0.1300439E+00
        -11   -1    0    0    0    0  0.00000000000E+00  0.00000000000E+00  0.45593999997E+02  0.45594000000E+02  0.51100000000E-03 0.  1.
         11   -1    0    0    0    0 -0.00000000000E+00 -0.00000000000E+00 -0.45593999997E+02  0.45594000000E+02  0.51100000000E-03 0. -1.
    9900012    2    1    2    0    0 -0.15373284950E+01  0.89417745640E+01 -0.39633905281E+02  0.50528866228E+02  0.30000019388E+02 0.  0.
        -12    1    1    2    0    0  0.15373284950E+01 -0.89417745640E+01  0.39633905281E+02  0.40659133772E+02  0.00000000000E+00 0.  1.
         11    1    3    3    0    0  0.10373953275E+02  0.34956293624E+01 -0.21935709251E+02  0.24515580185E+02  0.51100000000E-03 0. -1.
        -11    1    3    3    0    0  0.13782627894E+00  0.65428558636E+01 -0.37259020694E+01  0.75306245044E+01  0.51100000000E-03 0.  1.
         12    1    3    3    0    0 -0.12049108049E+02 -0.10967106620E+01 -0.13972293960E+02  0.18482661539E+02  0.00000000000E+00 0. -1.
</event>
<event>
 7    1  0.5138511E-013  0.5052886E+02  0.7816164E-02  0.1300439E+00
        -11   -1    0    0    0    0  0.00000000000E+00  0.00000000000E+00  0.45593999997E+02  0.45594000000E+02  0.51100000000E-03 0. -1.
         11   -1    0    0    0    0 -0.00000000000E+00 -0.00000000000E+00 -0.45593999997E+02  0.45594000000E+02  0.51100000000E-03 0.  1.
    9900012    2    1    2    0    0 -0.30893300654E+02 -0.22221487748E+02 -0.14316959706E+02  0.50528857384E+02  0.29999992506E+02 0.  0.
        -12    1    1    2    0    0  0.30893300654E+02  0.22221487748E+02  0.14316959706E+02  0.40659142616E+02  0.00000000000E+00 0.  1.
         11    1    3    3    0    0  0.29211958190E+01 -0.17222740149E+01  0.13502284791E+01  0.36500315070E+01  0.51100000000E-03 0. -1.
        -11    1    3    3    0    0 -0.11010200034E+02 -0.74330409507E+01  0.41999044438E+01  0.13932472866E+02  0.51100000000E-03 0.  1.
         12    1    3    3    0    0 -0.22804296439E+02 -0.13066172782E+02 -0.19867092629E+02  0.32946353012E+02  0.00000000000E+00 0. -1.
</event>
<event>
 7    1  0.5138511E-013  0.5052889E+02  0.7816164E-02  0.1300439E+00
        -11   -1    0    0    0    0  0.00000000000E+00  0.00000000000E+00  0.45593999997E+02  0.45594000000E+02  0.51100000000E-03 0. -1.
         11   -1    0    0    0    0 -0.00000000000E+00 -0.00000000000E+00 -0.45593999997E+02  0.45594000000E+02  0.51100000000E-03 0.  1.
    9900012    2    1    2    0    0 -0.24165293266E+02 -0.32698307638E+02  0.14939954294E+00  0.50528892272E+02  0.30000098549E+02 0.  0.
        -12    1    1    2    0    0  0.24165293266E+02  0.32698307638E+02 -0.14939954294E+00  0.40659107728E+02  0.00000000000E+00 0.  1.
         11    1    3    3    0    0 -0.68175153783E+01 -0.55465559383E+01 -0.88454762774E+01  0.12469372460E+02  0.51100000000E-03 0. -1.
        -11    1    3    3    0    0  0.34968846687E+01 -0.14411951890E+01  0.17954525580E+01  0.41867524536E+01  0.51100000000E-03 0.  1.
        -12    1    3    3    0    0 -0.20844662557E+02 -0.25710556511E+02  0.71994232624E+01  0.33872767358E+02  0.00000000000E+00 0.  1.
</event>
<event>
 7    1  0.5138511E-013  0.5052885E+02  0.7816164E-02  0.1300439E+00
        -11   -1    0    0    0    0  0.00000000000E+00  0.00000000000E+00  0.45593999997E+02  0.45594000000E+02  0.51100000000E-03 0.  1.
         11   -1    0    0    0    0 -0.00000000000E+00 -0.00000000000E+00 -0.45593999997E+02  0.45594000000E+02  0.51100000000E-03 0. -1.
    9900012    2    1    2    0    0  0.46621077521E-01  0.12840615725E+01 -0.40638838929E+02  0.50528853217E+02  0.29999979838E+02 0.  0.
        -12    1    1    2    0    0 -0.46621077521E-01 -0.12840615725E+01  0.40638838929E+02  0.40659146783E+02  0.00000000000E+00 0.  1.
         11    1    3    3    0    0 -0.83119015421E+01 -0.37163139900E+01 -0.13286498832E+02  0.16106823039E+02  0.51100000000E-03 0. -1.
        -11    1    3    3    0    0 -0.12596625594E+01  0.67986660189E+01 -0.19255494739E+01  0.71774891458E+01  0.51100000000E-03 0.  1.
         12    1    3    3    0    0  0.96181851790E+01 -0.17982904564E+01 -0.25426790623E+02  0.27244541033E+02  0.00000000000E+00 0. -1.
</event>
<event>
 7    1  0.6366088E-013  0.5052886E+02  0.7816164E-02  0.1300439E+00
        -11   -1    0    0    0    0  0.00000000000E+00  0.00000000000E+00  0.45593999997E+02  0.45594000000E+02  0.51100000000E-03 0. -1.
         11   -1    0    0    0    0 -0.00000000000E+00 -0.00000000000E+00 -0.45593999997E+02  0.45594000000E+02  0.51100000000E-03 0.  1.
    9900012    2    1    2    0    0 -0.10382456341E+02 -0.35826486091E+02  0.16181257774E+02  0.50528860702E+02  0.30000002591E+02 0.  0.
        -12    1    1    2    0    0  0.10382456341E+02  0.35826486091E+02 -0.16181257774E+02  0.40659139298E+02  0.00000000000E+00 0.  1.
         11    1    3    3    0    0  0.26410024807E+01 -0.21678320653E+02  0.75268221531E+01  0.23099297228E+02  0.51100000000E-03 0. -1.
        -11    1    3    3    0    0  0.11876624400E+01 -0.45157332575E+01  0.91302967666E+01  0.10254984555E+02  0.51100000000E-03 0.  1.
        -12    1    3    3    0    0 -0.14211121262E+02 -0.96324321806E+01 -0.47586114582E+00  0.17174578919E+02  0.00000000000E+00 0.  1.
</event>
<event>
 7    1  0.5138511E-013  0.5052886E+02  0.7816164E-02  0.1300439E+00
        -11   -1    0    0    0    0  0.00000000000E+00  0.00000000000E+00  0.45593999997E+02  0.45594000000E+02  0.51100000000E-03 0. -1.
         11   -1    0    0    0    0 -0.00000000000E+00 -0.00000000000E+00 -0.45593999997E+02  0.45594000000E+02  0.51100000000E-03 0.  1.
    9900012    2    1    2    0    0 -0.14031780403E+02 -0.35988590981E+02  0.12692373846E+02  0.50528857167E+02  0.29999991845E+02 0.  0.
        -12    1    1    2    0    0  0.14031780403E+02  0.35988590981E+02 -0.12692373846E+02  0.40659142833E+02  0.00000000000E+00 0.  1.
         11    1    3    3    0    0 -0.83573211442E+00 -0.13420112813E+01 -0.42410501346E+01  0.45261406243E+01  0.51100000000E-03 0.  1.
        -11    1    3    3    0    0 -0.76241647666E+01 -0.25166229179E+02  0.58770787077E+00  0.26302326519E+02  0.51100000000E-03 0. -1.
         12    1    3    3    0    0 -0.55718835224E+01 -0.94803505199E+01  0.16345716110E+02  0.19700390024E+02  0.00000000000E+00 0. -1.
</event>
<event>
 7    1  0.5138511E-013  0.5052886E+02  0.7816164E-02  0.1300439E+00
        -11   -1    0    0    0    0  0.00000000000E+00  0.00000000000E+00  0.45593999997E+02  0.45594000000E+02  0.51100000000E-03 0.  1.
         11   -1    0    0    0    0 -0.00000000000E+00 -0.00000000000E+00 -0.45593999997E+02  0.45594000000E+02  0.51100000000E-03 0. -1.
    9900012    2    1    2    0    0 -0.11182146210E+01 -0.32395952544E+02 -0.24544189359E+02  0.50528863555E+02  0.30000011262E+02 0.  0.
        -12    1    1    2    0    0  0.11182146210E+01  0.32395952544E+02  0.24544189359E+02  0.40659136445E+02  0.00000000000E+00 0.  1.
         11    1    3    3    0    0  0.13624050609E+01 -0.28957622218E+02 -0.27719035414E+02  0.40109163001E+02  0.51100000000E-03 0.  1.
        -11    1    3    3    0    0 -0.32966995744E+01 -0.23435215315E+01 -0.23843494456E+01  0.46952575853E+01  0.51100000000E-03 0. -1.
        -12    1    3    3    0    0  0.81607989247E+00 -0.10948087939E+01  0.55591955009E+01  0.57244429688E+01  0.00000000000E+00 0.  1.
</event>
<event>
 7    1  0.5138511E-013  0.5052886E+02  0.7816164E-02  0.1300439E+00
        -11   -1    0    0    0    0  0.00000000000E+00  0.00000000000E+00  0.45593999997E+02  0.45594000000E+02  0.51100000000E-03 0.  1.
         11   -1    0    0    0    0 -0.00000000000E+00 -0.00000000000E+00 -0.45593999997E+02  0.45594000000E+02  0.51100000000E-03 0. -1.
    9900012    2    1    2    0    0 -0.12948722072E+02 -0.38140611480E+02 -0.55489012948E+01  0.50528856465E+02  0.29999989711E+02 0.  0.
        -12    1    1    2    0    0  0.12948722072E+02  0.38140611480E+02  0.55489012948E+01  0.40659143535E+02  0.00000000000E+00 0.  1.
         11    1    3    3    0    0  0.35767388004E+01  0.11709409980E+01 -0.24032085752E+01  0.44653751224E+01  0.51100000000E-03 0. -1.
        -11    1    3    3    0    0 -0.23005550280E+01 -0.10401858510E+02  0.64393332145E+01  0.12448141484E+02  0.51100000000E-03 0.  1.
        -12    1    3    3    0    0 -0.14224905845E+02 -0.28909693969E+02 -0.95850259341E+01  0.33615339859E+02  0.00000000000E+00 0.  1.
</event>
<event>
 7    1  0.5138511E-013  0.5052885E+02  0.7816164E-02  0.1300439E+00
        -11   -1    0    0    0    0  0.00000000000E+00  0.00000000000E+00  0.45593999997E+02  0.45594000000E+02  0.51100000000E-03 0.  1.
         11   -1    0    0    0    0 -0.00000000000E+00 -0.00000000000E+00 -0.45593999997E+02  0.45594000000E+02  0.51100000000E-03 0. -1.
    9900012    2    1    2    0    0  0.15924001215E+02 -0.52532176198E+01 -0.37040470689E+02  0.50528848768E+02  0.29999966315E+02 0.  0.
        -12    1    1    2    0    0 -0.15924001215E+02  0.52532176198E+01  0.37040470689E+02  0.40659151232E+02  0.00000000000E+00 0.  1.
         11    1    3    3    0    0  0.82828281499E+01  0.77601619663E+01 -0.16726427633E+02  0.20213825405E+02  0.51100000000E-03 0. -1.
        -11    1    3    3    0    0  0.86015985268E+01 -0.34561533057E+01 -0.18280785395E+02  0.20496819456E+02  0.51100000000E-03 0.  1.
        -12    1    3    3    0    0 -0.96042546166E+00 -0.95572262803E+01 -0.20332576613E+01  0.98182039069E+01  0.00000000000E+00 0.  1.
</event>
<event>
 7    1  0.5138511E-013  0.5052886E+02  0.7816164E-02  0.1300439E+00
        -11   -1    0    0    0    0  0.00000000000E+00  0.00000000000E+00  0.45593999997E+02  0.45594000000E+02  0.51100000000E-03 0. -1.
         11   -1    0    0    0    0 -0.00000000000E+00 -0.00000000000E+00 -0.45593999997E+02  0.45594000000E+02  0.51100000000E-03 0.  1.
    9900012    2    1    2    0    0  0.20748065391E+02 -0.32563530768E+02  0.12739699175E+02  0.50528859716E+02  0.29999999594E+02 0.  0.
        -12    1    1    2    0    0 -0.20748065391E+02  0.32563530768E+02 -0.12739699175E+02  0.40659140284E+02  0.00000000000E+00 0.  1.
         11    1    3    3    0    0  0.33338459837E+01  0.41713682537E+01  0.56429059299E+00  0.53696616547E+01  0.51100000000E-03 0. -1.
        -11    1    3    3    0    0 -0.15818480339E+01 -0.10914322693E+02  0.58562853578E+01  0.12486823516E+02  0.51100000000E-03 0.  1.
        -12    1    3    3    0    0  0.18996067441E+02 -0.25820576328E+02  0.63191232241E+01  0.32672374546E+02  0.00000000000E+00 0.  1.
</event>
<event>
 7    1  0.5138511E-013  0.5052887E+02  0.7816164E-02  0.1300439E+00
        -11   -1    0    0    0    0  0.00000000000E+00  0.00000000000E+00  0.45593999997E+02  0.45594000000E+02  0.51100000000E-03 0. -1.
         11   -1    0    0    0    0 -0.00000000000E+00 -0.00000000000E+00 -0.45593999997E+02  0.45594000000E+02  0.51100000000E-03 0.  1.
    9900012    2    1    2    0    0 -0.29153505281E+02  0.78786692610E+01  0.27224341961E+02  0.50528867019E+02  0.30000021792E+02 0.  0.
        -12    1    1    2    0    0  0.29153505281E+02 -0.78786692610E+01 -0.27224341961E+02  0.40659132981E+02  0.00000000000E+00 0.  1.
         11    1    3    3    0    0 -0.37201210946E+01 -0.54566011979E+01  0.10760842437E+01  0.66911699389E+01  0.51100000000E-03 0. -1.
        -11    1    3    3    0    0 -0.21305455637E+01  0.58293170645E+01  0.16313594403E+02  0.17454326811E+02  0.51100000000E-03 0.  1.
         12    1    3    3    0    0 -0.23302838623E+02  0.75059533943E+01  0.98346633148E+01  0.26383370269E+02  0.00000000000E+00 0. -1.
</event>
<event>
 7    1  0.5138511E-013  0.5052885E+02  0.7816164E-02  0.1300439E+00
        -11   -1    0    0    0    0  0.00000000000E+00  0.00000000000E+00  0.45593999997E+02  0.45594000000E+02  0.51100000000E-03 0. -1.
         11   -1    0    0    0    0 -0.00000000000E+00 -0.00000000000E+00 -0.45593999997E+02  0.45594000000E+02  0.51100000000E-03 0.  1.
    9900012    2    1    2    0    0 -0.65539049885E+01  0.30254853474E+02  0.26360132380E+02  0.50528850865E+02  0.29999972688E+02 0.  0.
        -12    1    1    2    0    0  0.65539049885E+01 -0.30254853474E+02 -0.26360132380E+02  0.40659149135E+02  0.00000000000E+00 0.  1.
         11    1    3    3    0    0  0.16307316620E+00  0.14204383429E+02  0.80936252947E+01  0.16349246837E+02  0.51100000000E-03 0. -1.
        -11    1    3    3    0    0  0.49618357314E+01  0.52363103310E+01  0.16693381415E+02  0.18185371677E+02  0.51100000000E-03 0.  1.
        -12    1    3    3    0    0 -0.11678813886E+02  0.10814159714E+02  0.15731256700E+01  0.15994232350E+02  0.00000000000E+00 0.  1.
</event>
<event>
 7    1  0.7710701E-013  0.5052885E+02  0.7816164E-02  0.1300439E+00
        -11   -1    0    0    0    0  0.00000000000E+00  0.00000000000E+00  0.45593999997E+02  0.45594000000E+02  0.51100000000E-03 0. -1.
         11   -1    0    0    0    0 -0.00000000000E+00 -0.00000000000E+00 -0.45593999997E+02  0.45594000000E+02  0.51100000000E-03 0.  1.
    9900012    2    1    2    0    0 -0.37595776869E+02 -0.16462098317E+01  0.15395272859E+02  0.50528845169E+02  0.29999955375E+02 0.  0.
        -12    1    1    2    0    0  0.37595776869E+02  0.16462098317E+01 -0.15395272859E+02  0.40659154831E+02  0.00000000000E+00 0.  1.
         11    1    3    3    0    0 -0.51595668897E+01 -0.62984013555E+01  0.10785725681E+01  0.82130572365E+01  0.51100000000E-03 0. -1.
        -11    1    3    3    0    0  0.30325607496E+00  0.23417937087E+01 -0.40627261142E+01  0.46991175513E+01  0.51100000000E-03 0.  1.
         12    1    3    3    0    0 -0.32739466054E+02  0.23103978150E+01  0.18379426405E+02  0.37616670381E+02  0.00000000000E+00 0. -1.
</event>
<event>
 7    1  0.5138511E-013  0.5052886E+02  0.7816164E-02  0.1300439E+00
        -11   -1    0    0    0    0  0.00000000000E+00  0.00000000000E+00  0.45593999997E+02  0.45594000000E+02  0.51100000000E-03 0.  1.
         11   -1    0    0    0    0 -0.00000000000E+00 -0.00000000000E+00 -0.45593999997E+02  0.45594000000E+02  0.51100000000E-03 0. -1.
    9900012    2    1    2    0    0 -0.17032699243E+02  0.33703971400E+02 -0.15069666813E+02  0.50528863395E+02  0.30000010776E+02 0.  0.
        -12    1    1    2    0    0  0.17032699243E+02 -0.33703971400E+02  0.15069666813E+02  0.40659136605E+02  0.00000000000E+00 0.  1.
         11    1    3    3    0    0  0.37944092493E+01  0.16931870498E+01 -0.68534278071E+01  0.80146052245E+01  0.51100000000E-03 0. -1.
        -11    1    3    3    0    0 -0.44685248791E+01  0.37708371146E+01  0.46127611577E+01  0.74474487510E+01  0.51100000000E-03 0.  1.
         12    1    3    3    0    0 -0.16358583613E+02  0.28239947235E+02 -0.12829000163E+02  0.35066809420E+02  0.00000000000E+00 0. -1.
</event>
<event>
 7    1  0.5138511E-013  0.5052885E+02  0.7816164E-02  0.1300439E+00
        -11   -1    0    0    0    0  0.00000000000E+00  0.00000000000E+00  0.45593999997E+02  0.45594000000E+02  0.51100000000E-03 0.  1.
         11   -1    0    0    0    0 -0.00000000000E+00 -0.00000000000E+00 -0.45593999997E+02  0.45594000000E+02  0.51100000000E-03 0. -1.
    9900012    2    1    2    0    0  0.30601786762E+02 -0.25762456739E+02  0.72796067340E+01  0.50528853372E+02  0.29999980310E+02 0.  0.
        -12    1    1    2    0    0 -0.30601786762E+02  0.25762456739E+02 -0.72796067340E+01  0.40659146628E+02  0.00000000000E+00 0.  1.
         11    1    3    3    0    0  0.35021986829E+01 -0.58389378140E+00 -0.22620823215E+01  0.42099102429E+01  0.51100000000E-03 0. -1.
        -11    1    3    3    0    0 -0.19165761026E+01 -0.71655321896E+01  0.96434235559E+01  0.12166089497E+02  0.51100000000E-03 0.  1.
         12    1    3    3    0    0  0.29016164182E+02 -0.18013030768E+02 -0.10173450034E+00  0.34152853632E+02  0.00000000000E+00 0. -1.
</event>
<event>
 7    1  0.5138511E-013  0.5052887E+02  0.7816164E-02  0.1300439E+00
        -11   -1    0    0    0    0  0.00000000000E+00  0.00000000000E+00  0.45593999997E+02  0.45594000000E+02  0.51100000000E-03 0.  1.
         11   -1    0    0    0    0 -0.00000000000E+00 -0.00000000000E+00 -0.45593999997E+02  0.45594000000E+02  0.51100000000E-03 0. -1.
    9900012    2    1    2    0    0  0.31814118839E+02 -0.22532049568E+02  0.11547023684E+02  0.50528866079E+02  0.30000018934E+02 0.  0.
        -12    1    1    2    0    0 -0.31814118839E+02  0.22532049568E+02 -0.11547023684E+02  0.40659133921E+02  0.00000000000E+00 0.  1.
         11    1    3    3    0    0  0.66852608681E+01 -0.49064212718E+01 -0.29548887112E+00  0.82977705744E+01  0.51100000000E-03 0. -1.
        -11    1    3    3    0    0  0.12096965013E+02 -0.19311729661E+02  0.16667559724E+02  0.28232729455E+02  0.51100000000E-03 0.  1.
        -12    1    3    3    0    0  0.13031892958E+02  0.16861013649E+01 -0.48250471695E+01  0.13998366050E+02  0.00000000000E+00 0.  1.
</event>
<event>
 7    1  0.5138511E-013  0.5052885E+02  0.7816164E-02  0.1300439E+00
        -11   -1    0    0    0    0  0.00000000000E+00  0.00000000000E+00  0.45593999997E+02  0.45594000000E+02  0.51100000000E-03 0.  1.
         11   -1    0    0    0    0 -0.00000000000E+00 -0.00000000000E+00 -0.45593999997E+02  0.45594000000E+02  0.51100000000E-03 0. -1.
    9900012    2    1    2    0    0  0.38721664342E+01 -0.32400287045E+02  0.24256837487E+02  0.50528850496E+02  0.29999971569E+02 0.  0.
        -12    1    1    2    0    0 -0.38721664342E+01  0.32400287045E+02 -0.24256837487E+02  0.40659149504E+02  0.00000000000E+00 0.  1.
         11    1    3    3    0    0 -0.30008090839E+01  0.11523582602E+01 -0.13033294102E+01  0.34686384260E+01  0.51100000000E-03 0. -1.
        -11    1    3    3    0    0  0.89381525412E+01 -0.51516251737E+01  0.10988749934E+02  0.15072572380E+02  0.51100000000E-03 0.  1.
        -12    1    3    3    0    0 -0.20651770231E+01 -0.28401020131E+02  0.14571416964E+02  0.31987639690E+02  0.00000000000E+00 0.  1.
</event>
<event>
 7    1  0.5138511E-013  0.5052885E+02  0.7816164E-02  0.1300439E+00
        -11   -1    0    0    0    0  0.00000000000E+00  0.00000000000E+00  0.45593999997E+02  0.45594000000E+02  0.51100000000E-03 0.  1.
         11   -1    0    0    0    0 -0.00000000000E+00 -0.00000000000E+00 -0.45593999997E+02  0.45594000000E+02  0.51100000000E-03 0. -1.
    9900012    2    1    2    0    0  0.21358152798E+02  0.16520751067E+02 -0.30398359719E+02  0.50528853669E+02  0.29999981213E+02 0.  0.
        -12    1    1    2    0    0 -0.21358152798E+02 -0.16520751067E+02  0.30398359719E+02  0.40659146331E+02  0.00000000000E+00 0.  1.
         11    1    3    3    0    0  0.25293695713E+02  0.13451830789E+02 -0.17688474874E+02  0.33669050150E+02  0.51100000000E-03 0. -1.
        -11    1    3    3    0    0  0.28101059530E+01  0.32377886725E+01 -0.42287636018E+01  0.60218280295E+01  0.51100000000E-03 0.  1.
        -12    1    3    3    0    0 -0.67456488675E+01 -0.16886839458E+00 -0.84811212428E+01  0.10837975490E+02  0.00000000000E+00 0.  1.
</event>
<event>
 7    1  0.5138511E-013  0.5052886E+02  0.7816164E-02  0.1300439E+00
        -11   -1    0    0    0    0  0.00000000000E+00  0.00000000000E+00  0.45593999997E+02  0.45594000000E+02  0.51100000000E-03 0.  1.
         11   -1    0    0    0    0 -0.00000000000E+00 -0.00000000000E+00 -0.45593999997E+02  0.45594000000E+02  0.51100000000E-03 0. -1.
    9900012    2    1    2    0    0 -0.34276000958E+02  0.20305164900E+02 -0.81253937994E+01  0.50528856039E+02  0.29999988415E+02 0.  0.
        -12    1    1    2    0    0  0.34276000958E+02 -0.20305164900E+02  0.81253937994E+01  0.40659143961E+02  0.00000000000E+00 0.  1.
         11    1    3    3    0    0 -0.12274487567E+02  0.27130901457E+00 -0.18183980855E+01  0.12411415127E+02  0.51100000000E-03 0. -1.
        -11    1    3    3    0    0 -0.13660154551E+02  0.64570677862E+01 -0.13841900596E+02  0.20491260554E+02  0.51100000000E-03 0.  1.
        -12    1    3    3    0    0 -0.83413588400E+01  0.13576788099E+02  0.75349048818E+01  0.17626180357E+02  0.00000000000E+00 0.  1.
</event>
<event>
 7    1  0.5138511E-013  0.5052889E+02  0.7816164E-02  0.1300439E+00
        -11   -1    0    0    0    0  0.00000000000E+00  0.00000000000E+00  0.45593999997E+02  0.45594000000E+02  0.51100000000E-03 0.  1.
         11   -1    0    0    0    0 -0.00000000000E+00 -0.00000000000E+00 -0.45593999997E+02  0.45594000000E+02  0.51100000000E-03 0. -1.
    9900012    2    1    2    0    0  0.46921261323E+01 -0.25776853780E+02 -0.31091809955E+02  0.50528894197E+02  0.30000104402E+02 0.  0.
        -12    1    1    2    0    0 -0.46921261323E+01  0.25776853780E+02  0.31091809955E+02  0.40659105803E+02  0.00000000000E+00 0.  1.
         11    1    3    3    0    0 -0.18268263467E+01  0.21515089395E+01 -0.91923649429E+01  0.96159169465E+01  0.51100000000E-03 0. -1.
        -11    1    3    3    0    0  0.25927235090E+01 -0.24668899915E+00  0.26429535407E+01  0.37105625363E+01  0.51100000000E-03 0.  1.
         12    1    3    3    0    0  0.39262289699E+01 -0.27681673720E+02 -0.24542398553E+02  0.37202414714E+02  0.00000000000E+00 0. -1.
</event>
<event>
 7    1  0.5138511E-013  0.5052887E+02  0.7816164E-02  0.1300439E+00
        -11   -1    0    0    0    0  0.00000000000E+00  0.00000000000E+00  0.45593999997E+02  0.45594000000E+02  0.51100000000E-03 0.  1.
         11   -1    0    0    0    0 -0.00000000000E+00 -0.00000000000E+00 -0.45593999997E+02  0.45594000000E+02  0.51100000000E-03 0. -1.
    9900012    2    1    2    0    0 -0.31627419841E+02  0.94475783079E+01 -0.23740561654E+02  0.50528872005E+02  0.30000036947E+02 0.  0.
        -12    1    1    2    0    0  0.31627419841E+02 -0.94475783079E+01  0.23740561654E+02  0.40659127995E+02  0.00000000000E+00 0.  1.
         11    1    3    3    0    0 -0.77177293079E+01 -0.26338841556E+01 -0.15109320712E+02  0.17169515545E+02  0.51100000000E-03 0. -1.
        -11    1    3    3    0    0 -0.60619624358E+00 -0.32818560980E+01  0.15086521456E+01  0.36625243878E+01  0.51100000000E-03 0.  1.
         12    1    3    3    0    0 -0.23303494289E+02  0.15363318562E+02 -0.10139893088E+02  0.29696832073E+02  0.00000000000E+00 0. -1.
</event>
<event>
 7    1  0.5138511E-013  0.5052886E+02  0.7816164E-02  0.1300439E+00
        -11   -1    0    0    0    0  0.00000000000E+00  0.00000000000E+00  0.45593999997E+02  0.45594000000E+02  0.51100000000E-03 0.  1.
         11   -1    0    0    0    0 -0.00000000000E+00 -0.00000000000E+00 -0.45593999997E+02  0.45594000000E+02  0.51100000000E-03 0. -1.
    9900012    2    1    2    0    0 -0.11219660005E+02 -0.32488751417E+02 -0.21720178391E+02  0.50528857257E+02  0.29999992118E+02 0.  0.
        -12    1    1    2    0    0  0.11219660005E+02  0.32488751417E+02  0.21720178391E+02  0.40659142743E+02  0.00000000000E+00 0.  1.
         11    1    3    3    0    0 -0.17063318555E+01 -0.71213852067E+01 -0.58626539970E+01  0.93806400535E+01  0.51100000000E-03 0. -1.
        -11    1    3    3    0    0  0.65945274909E+01 -0.12040024847E+02  0.17190255043E+01  0.13834921037E+02  0.51100000000E-03 0.  1.
         12    1    3    3    0    0 -0.16107855640E+02 -0.13327341363E+02 -0.17576549899E+02  0.27313296166E+02  0.00000000000E+00 0. -1.
</event>
<event>
 7    1  0.5138511E-013  0.5052884E+02  0.7816164E-02  0.1300439E+00
        -11   -1    0    0    0    0  0.00000000000E+00  0.00000000000E+00  0.45593999997E+02  0.45594000000E+02  0.51100000000E-03 0. -1.
         11   -1    0    0    0    0 -0.00000000000E+00 -0.00000000000E+00 -0.45593999997E+02  0.45594000000E+02  0.51100000000E-03 0.  1.
    9900012    2    1    2    0    0  0.26869607902E+01 -0.34673593281E+02  0.21063931191E+02  0.50528843264E+02  0.29999949584E+02 0.  0.
        -12    1    1    2    0    0 -0.26869607902E+01  0.34673593281E+02 -0.21063931191E+02  0.40659156736E+02  0.00000000000E+00 0.  1.
         11    1    3    3    0    0  0.71231106949E+01 -0.24633580012E+02  0.81879681163E+01  0.26918298466E+02  0.51100000000E-03 0. -1.
        -11    1    3    3    0    0  0.46276896762E+01 -0.24067943806E+01 -0.10546716038E+01  0.53217011737E+01  0.51100000000E-03 0.  1.
         12    1    3    3    0    0 -0.90638395808E+01 -0.76332188884E+01  0.13930634679E+02  0.18288843624E+02  0.00000000000E+00 0. -1.
</event>
<event>
 7    1  0.5138511E-013  0.5052886E+02  0.7816164E-02  0.1300439E+00
        -11   -1    0    0    0    0  0.00000000000E+00  0.00000000000E+00  0.45593999997E+02  0.45594000000E+02  0.51100000000E-03 0.  1.
         11   -1    0    0    0    0 -0.00000000000E+00 -0.00000000000E+00 -0.45593999997E+02  0.45594000000E+02  0.51100000000E-03 0. -1.
    9900012    2    1    2    0    0  0.33576053882E+02  0.19619559938E+02 -0.11869580770E+02  0.50528862355E+02  0.30000007614E+02 0.  0.
        -12    1    1    2    0    0 -0.33576053882E+02 -0.19619559938E+02  0.11869580770E+02  0.40659137645E+02  0.00000000000E+00 0.  1.
         11    1    3    3    0    0  0.15054243692E+02  0.12251409058E+02 -0.63017789945E+01  0.20406854138E+02  0.51100000000E-03 0. -1.
        -11    1    3    3    0    0  0.50143508983E+00  0.79759838101E+01  0.48006556633E+01  0.93227705081E+01  0.51100000000E-03 0.  1.
         12    1    3    3    0    0  0.18020375100E+02 -0.60783293095E+00 -0.10368457438E+02  0.20799237709E+02  0.00000000000E+00 0. -1.
</event>
<event>
 7    1  0.5138511E-013  0.5052887E+02  0.7816164E-02  0.1300439E+00
        -11   -1    0    0    0    0  0.00000000000E+00  0.00000000000E+00  0.45593999997E+02  0.45594000000E+02  0.51100000000E-03 0. -1.
         11   -1    0    0    0    0 -0.00000000000E+00 -0.00000000000E+00 -0.45593999997E+02  0.45594000000E+02  0.51100000000E-03 0.  1.
    9900012    2    1    2    0    0  0.81826527095E+01 -0.13609397710E+02  0.37429846911E+02  0.50528868785E+02  0.30000027158E+02 0.  0.
        -12    1    1    2    0    0 -0.81826527095E+01  0.13609397710E+02 -0.37429846911E+02  0.40659131215E+02  0.00000000000E+00 0.  1.
         11    1    3    3    0    0 -0.20639484555E+01 -0.13618327314E+02  0.15680439066E+02  0.20870910177E+02  0.51100000000E-03 0. -1.
        -11    1    3    3    0    0  0.40141191039E+01 -0.40703839051E+01 -0.92525839436E+00  0.57911381155E+01  0.51100000000E-03 0.  1.
         12    1    3    3    0    0  0.62324820611E+01  0.40793135089E+01  0.22674666239E+02  0.23866820492E+02  0.00000000000E+00 0. -1.
</event>
<event>
 7    1  0.5138511E-013  0.5052886E+02  0.7816164E-02  0.1300439E+00
        -11   -1    0    0    0    0  0.00000000000E+00  0.00000000000E+00  0.45593999997E+02  0.45594000000E+02  0.51100000000E-03 0.  1.
         11   -1    0    0    0    0 -0.00000000000E+00 -0.00000000000E+00 -0.45593999997E+02  0.45594000000E+02  0.51100000000E-03 0. -1.
    9900012    2    1    2    0    0  0.15292237409E+02 -0.72334521035E+01 -0.36972828035E+02  0.50528863669E+02  0.30000011608E+02 0.  0.
        -12    1    1    2    0    0 -0.15292237409E+02  0.72334521035E+01  0.36972828035E+02  0.40659136331E+02  0.00000000000E+00 0.  1.
         11    1    3    3    0    0  0.74797506312E+01 -0.43697675956E+01 -0.20524932853E+01  0.89024865791E+01  0.51100000000E-03 0. -1.
        -11    1    3    3    0    0 -0.45082878030E+00 -0.97770518075E+01 -0.80367270471E+01  0.12664239832E+02  0.51100000000E-03 0.  1.
         12    1    3    3    0    0  0.82633155582E+01  0.69133672996E+01 -0.26883607702E+02  0.28962137258E+02  0.00000000000E+00 0. -1.
</event>
<event>
 7    1  0.5138511E-013  0.5052882E+02  0.7816164E-02  0.1300439E+00
        -11   -1    0    0    0    0  0.00000000000E+00  0.00000000000E+00  0.45593999997E+02  0.45594000000E+02  0.51100000000E-03 0.  1.
         11   -1    0    0    0    0 -0.00000000000E+00 -0.00000000000E+00 -0.45593999997E+02  0.45594000000E+02  0.51100000000E-03 0. -1.
    9900012    2    1    2    0    0 -0.31651520149E+02  0.84175461896E+01 -0.24093465255E+02  0.50528820476E+02  0.29999880317E+02 0.  0.
        -12    1    1    2    0    0  0.31651520149E+02 -0.84175461896E+01  0.24093465255E+02  0.40659179524E+02  0.00000000000E+00 0.  1.
         11    1    3    3    0    0 -0.92202085116E+00  0.35520664654E+00 -0.56644852363E+01  0.57500163013E+01  0.51100000000E-03 0. -1.
        -11    1    3    3    0    0 -0.23825420083E+02  0.93403350951E+00 -0.23634683025E+02  0.33572627283E+02  0.51100000000E-03 0.  1.
        -12    1    3    3    0    0 -0.69040792148E+01  0.71283060335E+01  0.52057030067E+01  0.11206176891E+02  0.00000000000E+00 0.  1.
</event>
<event>
 7    1  0.5138511E-013  0.5052886E+02  0.7816164E-02  0.1300439E+00
        -11   -1    0    0    0    0  0.00000000000E+00  0.00000000000E+00  0.45593999997E+02  0.45594000000E+02  0.51100000000E-03 0. -1.
         11   -1    0    0    0    0 -0.00000000000E+00 -0.00000000000E+00 -0.45593999997E+02  0.45594000000E+02  0.51100000000E-03 0.  1.
    9900012    2    1    2    0    0  0.48474266416E+01 -0.38835613532E+02  0.11021040300E+02  0.50528858927E+02  0.29999997195E+02 0.  0.
        -12    1    1    2    0    0 -0.48474266416E+01  0.38835613532E+02 -0.11021040300E+02  0.40659141073E+02  0.00000000000E+00 0.  1.
         11    1    3    3    0    0  0.43044507107E+01 -0.23284608867E+02  0.24527402842E+01  0.23805823681E+02  0.51100000000E-03 0. -1.
        -11    1    3    3    0    0  0.51770601998E+01  0.16924098488E+01  0.68990229011E+01  0.87899215389E+01  0.51100000000E-03 0.  1.
         12    1    3    3    0    0 -0.46340842690E+01 -0.17243414515E+02  0.16692771144E+01  0.17933113707E+02  0.00000000000E+00 0. -1.
</event>
<event>
 7    1  0.5138511E-013  0.5052886E+02  0.7816164E-02  0.1300439E+00
        -11   -1    0    0    0    0  0.00000000000E+00  0.00000000000E+00  0.45593999997E+02  0.45594000000E+02  0.51100000000E-03 0.  1.
         11   -1    0    0    0    0 -0.00000000000E+00 -0.00000000000E+00 -0.45593999997E+02  0.45594000000E+02  0.51100000000E-03 0. -1.
    9900012    2    1    2    0    0  0.14683043285E+02 -0.91678916078E+00 -0.37904268724E+02  0.50528857732E+02  0.29999993562E+02 0.  0.
        -12    1    1    2    0    0 -0.14683043285E+02  0.91678916078E+00  0.37904268724E+02  0.40659142268E+02  0.00000000000E+00 0.  1.
         11    1    3    3    0    0 -0.44711540762E+01 -0.24259781798E+01 -0.18860207638E+01  0.54252800374E+01  0.51100000000E-03 0. -1.
        -11    1    3    3    0    0  0.72598867361E+01 -0.76388412797E+01 -0.76874664792E+01  0.13044347153E+02  0.51100000000E-03 0.  1.
         12    1    3    3    0    0  0.11894310625E+02  0.91480302987E+01 -0.28330781481E+02  0.32059230542E+02  0.00000000000E+00 0. -1.
</event>
<event>
 7    1  0.5138511E-013  0.5052887E+02  0.7816164E-02  0.1300439E+00
        -11   -1    0    0    0    0  0.00000000000E+00  0.00000000000E+00  0.45593999997E+02  0.45594000000E+02  0.51100000000E-03 0.  1.
         11   -1    0    0    0    0 -0.00000000000E+00 -0.00000000000E+00 -0.45593999997E+02  0.45594000000E+02  0.51100000000E-03 0. -1.
    9900012    2    1    2    0    0 -0.26298150408E+02  0.56958798781E+01 -0.30481621071E+02  0.50528868362E+02  0.30000025872E+02 0.  0.
        -12    1    1    2    0    0  0.26298150408E+02 -0.56958798781E+01  0.30481621071E+02  0.40659131638E+02  0.00000000000E+00 0.  1.
         11    1    3    3    0    0 -0.78728902690E+01 -0.45066601824E+00 -0.68987406398E+01  0.10477505606E+02  0.51100000000E-03 0. -1.
        -11    1    3    3    0    0  0.32889361333E+01  0.63304946540E+01  0.10531876127E+01  0.72112043281E+01  0.51100000000E-03 0.  1.
         12    1    3    3    0    0 -0.21714196272E+02 -0.18394875766E+00 -0.24636068044E+02  0.32840158428E+02  0.00000000000E+00 0. -1.
</event>
<event>
 7    1  0.5138511E-013  0.5052887E+02  0.7816164E-02  0.1300439E+00
        -11   -1    0    0    0    0  0.00000000000E+00  0.00000000000E+00  0.45593999997E+02  0.45594000000E+02  0.51100000000E-03 0.  1.
         11   -1    0    0    0    0 -0.00000000000E+00 -0.00000000000E+00 -0.45593999997E+02  0.45594000000E+02  0.51100000000E-03 0. -1.
    9900012    2    1    2    0    0  0.38926092030E+02 -0.10849757463E+02  0.44952258558E+01  0.50528869005E+02  0.30000027828E+02 0.  0.
        -12    1    1    2    0    0 -0.38926092030E+02  0.10849757463E+02 -0.44952258558E+01  0.40659130995E+02  0.00000000000E+00 0.  1.
         11    1    3    3    0    0  0.20767266134E+02  0.45057639539E+01  0.20194386907E-01  0.21250450809E+02  0.51100000000E-03 0. -1.
        -11    1    3    3    0    0  0.20964752477E+02 -0.13348100259E+02  0.59024907976E+01  0.25544706395E+02  0.51100000000E-03 0.  1.
        -12    1    3    3    0    0 -0.28059265806E+01 -0.20074211580E+01 -0.14274593287E+01  0.37337118015E+01  0.00000000000E+00 0.  1.
</event>
<event>
 7    1  0.5138511E-013  0.5052886E+02  0.7816164E-02  0.1300439E+00
        -11   -1    0    0    0    0  0.00000000000E+00  0.00000000000E+00  0.45593999997E+02  0.45594000000E+02  0.51100000000E-03 0.  1.
         11   -1    0    0    0    0 -0.00000000000E+00 -0.00000000000E+00 -0.45593999997E+02  0.45594000000E+02  0.51100000000E-03 0. -1.
    9900012    2    1    2    0    0  0.77864890343E+01  0.70167122614E+00 -0.39900420221E+02  0.50528864645E+02  0.30000014576E+02 0.  0.
        -12    1    1    2    0    0 -0.77864890343E+01 -0.70167122614E+00  0.39900420221E+02  0.40659135355E+02  0.00000000000E+00 0.  1.
         11    1    3    3    0    0  0.19644465655E+01  0.52085512917E+01 -0.15532666821E+02  0.16500054415E+02  0.51100000000E-03 0. -1.
        -11    1    3    3    0    0  0.42766404959E+01  0.74732903301E+01 -0.23666296388E+01  0.89297625051E+01  0.51100000000E-03 0.  1.
         12    1    3    3    0    0  0.15454019728E+01 -0.11980170396E+02 -0.22001123761E+02  0.25099047726E+02  0.00000000000E+00 0. -1.
</event>
<event>
 7    1  0.5138511E-013  0.5052886E+02  0.7816164E-02  0.1300439E+00
        -11   -1    0    0    0    0  0.00000000000E+00  0.00000000000E+00  0.45593999997E+02  0.45594000000E+02  0.51100000000E-03 0.  1.
         11   -1    0    0    0    0 -0.00000000000E+00 -0.00000000000E+00 -0.45593999997E+02  0.45594000000E+02  0.51100000000E-03 0. -1.
    9900012    2    1    2    0    0 -0.33585975114E+01 -0.14360152524E+02 -0.37890261167E+02  0.50528855284E+02  0.29999986121E+02 0.  0.
        -12    1    1    2    0    0  0.33585975114E+01  0.14360152524E+02  0.37890261167E+02  0.40659144716E+02  0.00000000000E+00 0.  1.
         11    1    3    3    0    0  0.11307202893E+01 -0.11771884637E+02 -0.26428585854E+02  0.28953858927E+02  0.51100000000E-03 0. -1.
        -11    1    3    3    0    0 -0.29605387934E+01 -0.67398982503E+01  0.18138983989E+01  0.75816387433E+01  0.51100000000E-03 0.  1.
         12    1    3    3    0    0 -0.15287790072E+01  0.41516303626E+01 -0.13275573712E+02  0.13993357614E+02  0.00000000000E+00 0. -1.
</event>
<event>
 7    1  0.5677094E-013  0.5052886E+02  0.7816164E-02  0.1300439E+00
        -11   -1    0    0    0    0  0.00000000000E+00  0.00000000000E+00  0.45593999997E+02  0.45594000000E+02  0.51100000000E-03 0. -1.
         11   -1    0    0    0    0 -0.00000000000E+00 -0.00000000000E+00 -0.45593999997E+02  0.45594000000E+02  0.51100000000E-03 0.  1.
    9900012    2    1    2    0    0  0.26183220029E+02 -0.24846059862E+02  0.18715717557E+02  0.50528858526E+02  0.29999995974E+02 0.  0.
        -12    1    1    2    0    0 -0.26183220029E+02  0.24846059862E+02 -0.18715717557E+02  0.40659141474E+02  0.00000000000E+00 0.  1.
         11    1    3    3    0    0  0.12519957865E+02 -0.29050443052E+01  0.13333658140E+02  0.18519586037E+02  0.51100000000E-03 0. -1.
        -11    1    3    3    0    0  0.50025609349E+01 -0.15339621350E+02  0.11220925225E+02  0.19652958104E+02  0.51100000000E-03 0.  1.
        -12    1    3    3    0    0  0.86607012294E+01 -0.66013942069E+01 -0.58388658068E+01  0.12356314385E+02  0.00000000000E+00 0.  1.
</event>
<event>
 7    1  0.5138511E-013  0.5052886E+02  0.7816164E-02  0.1300439E+00
        -11   -1    0    0    0    0  0.00000000000E+00  0.00000000000E+00  0.45593999997E+02  0.45594000000E+02  0.51100000000E-03 0.  1.
         11   -1    0    0    0    0 -0.00000000000E+00 -0.00000000000E+00 -0.45593999997E+02  0.45594000000E+02  0.51100000000E-03 0. -1.
    9900012    2    1    2    0    0  0.62590423516E+01  0.26851451929E+02 -0.29882932059E+02  0.50528859450E+02  0.29999998784E+02 0.  0.
        -12    1    1    2    0    0 -0.62590423516E+01 -0.26851451929E+02  0.29882932059E+02  0.40659140550E+02  0.00000000000E+00 0.  1.
         11    1    3    3    0    0  0.52620932556E+01  0.83205036725E+01 -0.22653446784E+01  0.10102088575E+02  0.51100000000E-03 0. -1.
        -11    1    3    3    0    0 -0.10459632067E+00  0.12750018289E+01 -0.22299769766E+02  0.22336434405E+02  0.51100000000E-03 0.  1.
         12    1    3    3    0    0  0.11015454166E+01  0.17255946427E+02 -0.53178176141E+01  0.18090336470E+02  0.00000000000E+00 0. -1.
</event>
<event>
 7    1  0.5138511E-013  0.5052885E+02  0.7816164E-02  0.1300439E+00
        -11   -1    0    0    0    0  0.00000000000E+00  0.00000000000E+00  0.45593999997E+02  0.45594000000E+02  0.51100000000E-03 0.  1.
         11   -1    0    0    0    0 -0.00000000000E+00 -0.00000000000E+00 -0.45593999997E+02  0.45594000000E+02  0.51100000000E-03 0. -1.
    9900012    2    1    2    0    0  0.27544287424E+02  0.11603509520E+02 -0.27565150243E+02  0.50528847146E+02  0.29999961385E+02 0.  0.
        -12    1    1    2    0    0 -0.27544287424E+02 -0.11603509520E+02  0.27565150243E+02  0.40659152854E+02  0.00000000000E+00 0.  1.
         11    1    3    3    0    0  0.52594099180E+01 -0.13469725409E+01 -0.18739204810E+01  0.57434576644E+01  0.51100000000E-03 0. -1.
        -11    1    3    3    0    0 -0.46484651615E+01 -0.56517197618E+00  0.69195414315E+00  0.47335450265E+01  0.51100000000E-03 0.  1.
         12    1    3    3    0    0  0.26933342668E+02  0.13515654037E+02 -0.26383183905E+02  0.40051844455E+02  0.00000000000E+00 0. -1.
</event>
<event>
 7    1  0.5138511E-013  0.5052885E+02  0.7816164E-02  0.1300439E+00
        -11   -1    0    0    0    0  0.00000000000E+00  0.00000000000E+00  0.45593999997E+02  0.45594000000E+02  0.51100000000E-03 0.  1.
         11   -1    0    0    0    0 -0.00000000000E+00 -0.00000000000E+00 -0.45593999997E+02  0.45594000000E+02  0.51100000000E-03 0. -1.
    9900012    2    1    2    0    0  0.13374078290E+02  0.56522579426E+00 -0.38392455353E+02  0.50528854924E+02  0.29999985027E+02 0.  0.
        -12    1    1    2    0    0 -0.13374078290E+02 -0.56522579426E+00  0.38392455353E+02  0.40659145076E+02  0.00000000000E+00 0.  1.
         11    1    3    3    0    0  0.38301164202E+01 -0.31032972724E+01 -0.47471228325E+01  0.68436409316E+01  0.51100000000E-03 0. -1.
        -11    1    3    3    0    0  0.45103327042E+01  0.90533626460E+01 -0.93857277168E+00  0.10158119679E+02  0.51100000000E-03 0.  1.
         12    1    3    3    0    0  0.50336291652E+01 -0.53848395794E+01 -0.32706759748E+02  0.33527094314E+02  0.00000000000E+00 0. -1.
</event>
<event>
 7    1  0.5138511E-013  0.5052886E+02  0.7816164E-02  0.1300439E+00
        -11   -1    0    0    0    0  0.00000000000E+00  0.00000000000E+00  0.45593999997E+02  0.45594000000E+02  0.51100000000E-03 0.  1.
         11   -1    0    0    0    0 -0.00000000000E+00 -0.00000000000E+00 -0.45593999997E+02  0.45594000000E+02  0.51100000000E-03 0. -1.
    9900012    2    1    2    0    0 -0.28413071289E+02  0.15752623776E+01 -0.29041038124E+02  0.50528856293E+02  0.29999989188E+02 0.  0.
        -12    1    1    2    0    0  0.28413071289E+02 -0.15752623776E+01  0.29041038124E+02  0.40659143707E+02  0.00000000000E+00 0.  1.
         11    1    3    3    0    0 -0.11303800526E+02  0.33266440846E+01 -0.12222827109E+02  0.16977631460E+02  0.51100000000E-03 0. -1.
        -11    1    3    3    0    0 -0.17851704042E+02  0.33448833071E+01 -0.24983160162E+01  0.18333389341E+02  0.51100000000E-03 0.  1.
        -12    1    3    3    0    0  0.74243327918E+00 -0.50962650141E+01 -0.14319894999E+02  0.15217835492E+02  0.00000000000E+00 0.  1.
</event>
<event>
 7    1  0.5138511E-013  0.5052885E+02  0.7816164E-02  0.1300439E+00
        -11   -1    0    0    0    0  0.00000000000E+00  0.00000000000E+00  0.45593999997E+02  0.45594000000E+02  0.51100000000E-03 0.  1.
         11   -1    0    0    0    0 -0.00000000000E+00 -0.00000000000E+00 -0.45593999997E+02  0.45594000000E+02  0.51100000000E-03 0. -1.
    9900012    2    1    2    0    0  0.72099562507E+00  0.39942545350E+02 -0.75656907573E+01  0.50528850472E+02  0.29999971495E+02 0.  0.
        -12    1    1    2    0    0 -0.72099562507E+00 -0.39942545350E+02  0.75656907573E+01  0.40659149528E+02  0.00000000000E+00 0.  1.
         11    1    3    3    0    0 -0.42196186870E+00  0.26842313965E+02 -0.57810141938E+01  0.27461026860E+02  0.51100000000E-03 0. -1.
        -11    1    3    3    0    0 -0.84607875424E+01  0.58292110737E+01  0.19469887007E+01  0.10457312888E+02  0.51100000000E-03 0.  1.
         12    1    3    3    0    0  0.96037450362E+01  0.72710203107E+01 -0.37316652642E+01  0.12610510724E+02  0.00000000000E+00 0. -1.
</event>
<event>
 7    1  0.5138511E-013  0.5052885E+02  0.7816164E-02  0.1300439E+00
        -11   -1    0    0    0    0  0.00000000000E+00  0.00000000000E+00  0.45593999997E+02  0.45594000000E+02  0.51100000000E-03 0.  1.
         11   -1    0    0    0    0 -0.00000000000E+00 -0.00000000000E+00 -0.45593999997E+02  0.45594000000E+02  0.51100000000E-03 0. -1.
    9900012    2    1    2    0    0 -0.28353755428E+02 -0.25544933691E+02  0.14024527860E+02  0.50528850159E+02  0.29999970542E+02 0.  0.
        -12    1    1    2    0    0  0.28353755428E+02  0.25544933691E+02 -0.14024527860E+02  0.40659149841E+02  0.00000000000E+00 0.  1.
         11    1    3    3    0    0 -0.23053736647E+02 -0.11765111687E+02  0.57328452623E+01  0.26509585841E+02  0.51100000000E-03 0. -1.
        -11    1    3    3    0    0 -0.76688664307E+01 -0.37622542121E+01  0.10454703258E+02  0.13500625525E+02  0.51100000000E-03 0.  1.
        -12    1    3    3    0    0  0.23688476505E+01 -0.10017567793E+02 -0.21630206606E+01  0.10518638793E+02  0.00000000000E+00 0.  1.
</event>
<event>
 7    1  0.5138511E-013  0.5052885E+02  0.7816164E-02  0.1300439E+00
        -11   -1    0    0    0    0  0.00000000000E+00  0.00000000000E+00  0.45593999997E+02  0.45594000000E+02  0.51100000000E-03 0. -1.
         11   -1    0    0    0    0 -0.00000000000E+00 -0.00000000000E+00 -0.45593999997E+02  0.45594000000E+02  0.51100000000E-03 0.  1.
    9900012    2    1    2    0    0  0.35905476471E+02  0.31037278392E+01  0.18823650162E+02  0.50528853765E+02  0.29999981506E+02 0.  0.
        -12    1    1    2    0    0 -0.35905476471E+02 -0.31037278392E+01 -0.18823650162E+02  0.40659146235E+02  0.00000000000E+00 0.  1.
         11    1    3    3    0    0  0.20374627898E+02  0.32788099807E+01 -0.98121078936E+00  0.20660078212E+02  0.51100000000E-03 0. -1.
        -11    1    3    3    0    0  0.13571968963E+02 -0.66996329113E+01  0.10875716343E+02  0.18637720593E+02  0.51100000000E-03 0.  1.
         12    1    3    3    0    0  0.19588796102E+01  0.65245507698E+01  0.89291446085E+01  0.11231054960E+02  0.00000000000E+00 0. -1.
</event>
<event>
 7    1  0.5138511E-013  0.5052885E+02  0.7816164E-02  0.1300439E+00
        -11   -1    0    0    0    0  0.00000000000E+00  0.00000000000E+00  0.45593999997E+02  0.45594000000E+02  0.51100000000E-03 0. -1.
         11   -1    0    0    0    0 -0.00000000000E+00 -0.00000000000E+00 -0.45593999997E+02  0.45594000000E+02  0.51100000000E-03 0.  1.
    9900012    2    1    2    0    0 -0.34058956936E+02 -0.18868845439E+02  0.11709853111E+02  0.50528849300E+02  0.29999967931E+02 0.  0.
        -12    1    1    2    0    0  0.34058956936E+02  0.18868845439E+02 -0.11709853111E+02  0.40659150700E+02  0.00000000000E+00 0.  1.
         11    1    3    3    0    0 -0.61815747466E+01 -0.12741345219E+02  0.50011706720E+01  0.15018836596E+02  0.51100000000E-03 0. -1.
        -11    1    3    3    0    0 -0.49646478787E+01 -0.41121902553E+01 -0.63596881839E+01  0.90555768073E+01  0.51100000000E-03 0.  1.
         12    1    3    3    0    0 -0.22912734311E+02 -0.20153099643E+01  0.13068370623E+02  0.26454435896E+02  0.00000000000E+00 0. -1.
</event>
<event>
 7    1  0.5138511E-013  0.5052887E+02  0.7816164E-02  0.1300439E+00
        -11   -1    0    0    0    0  0.00000000000E+00  0.00000000000E+00  0.45593999997E+02  0.45594000000E+02  0.51100000000E-03 0. -1.
         11   -1    0    0    0    0 -0.00000000000E+00 -0.00000000000E+00 -0.45593999997E+02  0.45594000000E+02  0.51100000000E-03 0.  1.
    9900012    2    1    2    0    0 -0.49838344123E+01 -0.21672692125E+02  0.34038521873E+02  0.50528866208E+02  0.30000019327E+02 0.  0.
        -12    1    1    2    0    0  0.49838344123E+01  0.21672692125E+02 -0.34038521873E+02  0.40659133792E+02  0.00000000000E+00 0.  1.
         11    1    3    3    0    0 -0.16017581806E+02 -0.15950402038E+02  0.18975262420E+02  0.29513367077E+02  0.51100000000E-03 0. -1.
        -11    1    3    3    0    0 -0.80738251491E+00 -0.10103688450E+01  0.37764993473E+01  0.39918240580E+01  0.51100000000E-03 0.  1.
        -12    1    3    3    0    0  0.11841129909E+02 -0.47119212417E+01  0.11286760106E+02  0.17023675073E+02  0.00000000000E+00 0.  1.
</event>
<event>
 7    1  0.5138511E-013  0.5052885E+02  0.7816164E-02  0.1300439E+00
        -11   -1    0    0    0    0  0.00000000000E+00  0.00000000000E+00  0.45593999997E+02  0.45594000000E+02  0.51100000000E-03 0.  1.
         11   -1    0    0    0    0 -0.00000000000E+00 -0.00000000000E+00 -0.45593999997E+02  0.45594000000E+02  0.51100000000E-03 0. -1.
    9900012    2    1    2    0    0 -0.15683410113E+02  0.36189020693E+02 -0.98768179354E+01  0.50528854607E+02  0.29999984065E+02 0.  0.
        -12    1    1    2    0    0  0.15683410113E+02 -0.36189020693E+02  0.98768179354E+01  0.40659145393E+02  0.00000000000E+00 0.  1.
         11    1    3    3    0    0  0.83130389163E+00  0.12403561514E+02  0.20083080059E+01  0.12592565493E+02  0.51100000000E-03 0.  1.
        -11    1    3    3    0    0 -0.57980744313E+01 -0.30378663633E+01  0.37667125378E+00  0.65565372451E+01  0.51100000000E-03 0. -1.
        -12    1    3    3    0    0 -0.10716639573E+02  0.26823325542E+02 -0.12261797195E+02  0.31379751869E+02  0.00000000000E+00 0.  1.
</event>
<event>
 7    1  0.5138511E-013  0.5052886E+02  0.7816164E-02  0.1300439E+00
        -11   -1    0    0    0    0  0.00000000000E+00  0.00000000000E+00  0.45593999997E+02  0.45594000000E+02  0.51100000000E-03 0. -1.
         11   -1    0    0    0    0 -0.00000000000E+00 -0.00000000000E+00 -0.45593999997E+02  0.45594000000E+02  0.51100000000E-03 0.  1.
    9900012    2    1    2    0    0 -0.85300944352E+01  0.39682539018E+02  0.23873418021E+01  0.50528858163E+02  0.29999994873E+02 0.  0.
        -12    1    1    2    0    0  0.85300944352E+01 -0.39682539018E+02 -0.23873418021E+01  0.40659141837E+02  0.00000000000E+00 0.  1.
         11    1    3    3    0    0  0.56334706874E+01  0.12534793840E+02  0.61983243729E+01  0.15075684857E+02  0.51100000000E-03 0. -1.
        -11    1    3    3    0    0 -0.90696061610E+01  0.27685595028E+02 -0.62243912029E+01  0.29790820298E+02  0.51100000000E-03 0.  1.
         12    1    3    3    0    0 -0.50939589616E+01 -0.53784984957E+00  0.24134086320E+01  0.56623530080E+01  0.00000000000E+00 0. -1.
</event>
<event>
 7    1  0.5138511E-013  0.5052884E+02  0.7816164E-02  0.1300439E+00
        -11   -1    0    0    0    0  0.00000000000E+00  0.00000000000E+00  0.45593999997E+02  0.45594000000E+02  0.51100000000E-03 0.  1.
         11   -1    0    0    0    0 -0.00000000000E+00 -0.00000000000E+00 -0.45593999997E+02  0.45594000000E+02  0.51100000000E-03 0. -1.
    9900012    2    1    2    0    0 -0.28564811487E+01 -0.23893650694E+02 -0.32773487636E+02  0.50528837197E+02  0.29999931143E+02 0.  0.
        -12    1    1    2    0    0  0.28564811487E+01  0.23893650694E+02  0.32773487636E+02  0.40659162803E+02  0.00000000000E+00 0.  1.
         11    1    3    3    0    0 -0.78498561468E+01 -0.16471407129E+02 -0.14414085469E+02  0.23252813905E+02  0.51100000000E-03 0. -1.
        -11    1    3    3    0    0  0.10775944009E+01  0.67414607845E+00  0.34544680238E+01  0.36809010061E+01  0.51100000000E-03 0.  1.
         12    1    3    3    0    0  0.39157805972E+01 -0.80963896429E+01 -0.21813870191E+02  0.23595122285E+02  0.00000000000E+00 0. -1.
</event>
<event>
 7    1  0.5138511E-013  0.5052887E+02  0.7816164E-02  0.1300439E+00
        -11   -1    0    0    0    0  0.00000000000E+00  0.00000000000E+00  0.45593999997E+02  0.45594000000E+02  0.51100000000E-03 0. -1.
         11   -1    0    0    0    0 -0.00000000000E+00 -0.00000000000E+00 -0.45593999997E+02  0.45594000000E+02  0.51100000000E-03 0.  1.
    9900012    2    1    2    0    0 -0.39080575084E+02 -0.63633179143E+00 -0.11201273389E+02  0.50528870735E+02  0.30000033086E+02 0.  0.
        -12    1    1    2    0    0  0.39080575084E+02  0.63633179143E+00  0.11201273389E+02  0.40659129265E+02  0.00000000000E+00 0.  1.
         11    1    3    3    0    0 -0.18777660895E+02 -0.30574258431E+01 -0.16512159447E+02  0.25191264584E+02  0.51100000000E-03 0.  1.
        -11    1    3    3    0    0 -0.12034878388E+02 -0.36247867361E+01 -0.20356165599E+01  0.12732678891E+02  0.51100000000E-03 0. -1.
        -12    1    3    3    0    0 -0.82680358015E+01  0.60458807877E+01  0.73465026182E+01  0.12604927260E+02  0.00000000000E+00 0.  1.
</event>
<event>
 7    1  0.5138511E-013  0.5052886E+02  0.7816164E-02  0.1300439E+00
        -11   -1    0    0    0    0  0.00000000000E+00  0.00000000000E+00  0.45593999997E+02  0.45594000000E+02  0.51100000000E-03 0.  1.
         11   -1    0    0    0    0 -0.00000000000E+00 -0.00000000000E+00 -0.45593999997E+02  0.45594000000E+02  0.51100000000E-03 0. -1.
    9900012    2    1    2    0    0 -0.21144533174E+02  0.14367943408E+02 -0.31617027367E+02  0.50528862030E+02  0.30000006626E+02 0.  0.
        -12    1    1    2    0    0  0.21144533174E+02 -0.14367943408E+02  0.31617027367E+02  0.40659137970E+02  0.00000000000E+00 0.  1.
         11    1    3    3    0    0 -0.95069831176E+01 -0.59506333054E+01 -0.12717562491E+02  0.16956684838E+02  0.51100000000E-03 0. -1.
        -11    1    3    3    0    0 -0.28080537895E+00 -0.12179637918E+00  0.21128516735E+01  0.21349071348E+01  0.51100000000E-03 0.  1.
         12    1    3    3    0    0 -0.11356744677E+02  0.20440373093E+02 -0.21012316550E+02  0.31437270057E+02  0.00000000000E+00 0. -1.
</event>
<event>
 7    1  0.5138511E-013  0.5052883E+02  0.7816164E-02  0.1300439E+00
        -11   -1    0    0    0    0  0.00000000000E+00  0.00000000000E+00  0.45593999997E+02  0.45594000000E+02  0.51100000000E-03 0. -1.
         11   -1    0    0    0    0 -0.00000000000E+00 -0.00000000000E+00 -0.45593999997E+02  0.45594000000E+02  0.51100000000E-03 0.  1.
    9900012    2    1    2    0    0  0.25639521224E+01  0.16693673107E+02  0.36985344605E+02  0.50528827753E+02  0.29999902438E+02 0.  0.
        -12    1    1    2    0    0 -0.25639521224E+01 -0.16693673107E+02 -0.36985344605E+02  0.40659172247E+02  0.00000000000E+00 0.  1.
         11    1    3    3    0    0  0.17319362793E+01  0.14864428307E+02  0.19757402914E+02  0.24785193207E+02  0.51100000000E-03 0. -1.
        -11    1    3    3    0    0  0.70154450298E+01 -0.19761845783E+01  0.26629112565E+00  0.72933315898E+01  0.51100000000E-03 0.  1.
         12    1    3    3    0    0 -0.61834291867E+01  0.38054293782E+01  0.16961650565E+02  0.18450302956E+02  0.00000000000E+00 0. -1.
</event>
<event>
 7    1  0.5138511E-013  0.5052887E+02  0.7816164E-02  0.1300439E+00
        -11   -1    0    0    0    0  0.00000000000E+00  0.00000000000E+00  0.45593999997E+02  0.45594000000E+02  0.51100000000E-03 0. -1.
         11   -1    0    0    0    0 -0.00000000000E+00 -0.00000000000E+00 -0.45593999997E+02  0.45594000000E+02  0.51100000000E-03 0.  1.
    9900012    2    1    2    0    0 -0.14905779358E+02  0.37697515522E+02 -0.31432735307E+01  0.50528866915E+02  0.30000021473E+02 0.  0.
        -12    1    1    2    0    0  0.14905779358E+02 -0.37697515522E+02  0.31432735307E+01  0.40659133085E+02  0.00000000000E+00 0.  1.
         11    1    3    3    0    0 -0.70373446808E+01  0.73578393485E+01 -0.31938164708E+01  0.10670636529E+02  0.51100000000E-03 0. -1.
        -11    1    3    3    0    0 -0.11661845074E+02  0.10597459341E+02  0.86695230860E+01  0.17985144031E+02  0.51100000000E-03 0.  1.
        -12    1    3    3    0    0  0.37934103972E+01  0.19742216832E+02 -0.86189801460E+01  0.21873086354E+02  0.00000000000E+00 0.  1.
</event>
<event>
 7    1  0.5138511E-013  0.5052886E+02  0.7816164E-02  0.1300439E+00
        -11   -1    0    0    0    0  0.00000000000E+00  0.00000000000E+00  0.45593999997E+02  0.45594000000E+02  0.51100000000E-03 0.  1.
         11   -1    0    0    0    0 -0.00000000000E+00 -0.00000000000E+00 -0.45593999997E+02  0.45594000000E+02  0.51100000000E-03 0. -1.
    9900012    2    1    2    0    0  0.18225829884E+02  0.16679085835E+02 -0.32292306755E+02  0.50528857672E+02  0.29999993379E+02 0.  0.
        -12    1    1    2    0    0 -0.18225829884E+02 -0.16679085835E+02  0.32292306755E+02  0.40659142328E+02  0.00000000000E+00 0.  1.
         11    1    3    3    0    0  0.18098149876E+02  0.23042999701E+01 -0.15497268448E+02  0.23937797662E+02  0.51100000000E-03 0. -1.
        -11    1    3    3    0    0  0.32489430581E+00 -0.30858801294E+01 -0.18919712637E+01  0.36342493045E+01  0.51100000000E-03 0.  1.
         12    1    3    3    0    0 -0.19721429718E+00  0.17460665995E+02 -0.14903067044E+02  0.22956810705E+02  0.00000000000E+00 0. -1.
</event>
<event>
 7    1  0.5138511E-013  0.5052886E+02  0.7816164E-02  0.1300439E+00
        -11   -1    0    0    0    0  0.00000000000E+00  0.00000000000E+00  0.45593999997E+02  0.45594000000E+02  0.51100000000E-03 0.  1.
         11   -1    0    0    0    0 -0.00000000000E+00 -0.00000000000E+00 -0.45593999997E+02  0.45594000000E+02  0.51100000000E-03 0. -1.
    9900012    2    1    2    0    0 -0.12451799722E+02 -0.22629723392E+02 -0.31400855279E+02  0.50528863151E+02  0.30000010032E+02 0.  0.
        -12    1    1    2    0    0  0.12451799722E+02  0.22629723392E+02  0.31400855279E+02  0.40659136849E+02  0.00000000000E+00 0.  1.
         11    1    3    3    0    0 -0.38920855440E+01  0.13913378017E+01 -0.10735271255E+02  0.11503486425E+02  0.51100000000E-03 0. -1.
        -11    1    3    3    0    0  0.24107164130E+01 -0.17631843195E+02 -0.19307108358E+02  0.26257529995E+02  0.51100000000E-03 0.  1.
         12    1    3    3    0    0 -0.10970430591E+02 -0.63892179993E+01 -0.13584756663E+01  0.12767846730E+02  0.00000000000E+00 0. -1.
</event>
<event>
 7    1  0.5138511E-013  0.5052885E+02  0.7816164E-02  0.1300439E+00
        -11   -1    0    0    0    0  0.00000000000E+00  0.00000000000E+00  0.45593999997E+02  0.45594000000E+02  0.51100000000E-03 0.  1.
         11   -1    0    0    0    0 -0.00000000000E+00 -0.00000000000E+00 -0.45593999997E+02  0.45594000000E+02  0.51100000000E-03 0. -1.
    9900012    2    1    2    0    0  0.34375984747E+02  0.82038024057E+01 -0.20103634149E+02  0.50528845961E+02  0.29999957782E+02 0.  0.
        -12    1    1    2    0    0 -0.34375984747E+02 -0.82038024057E+01  0.20103634149E+02  0.40659154039E+02  0.00000000000E+00 0.  1.
         11    1    3    3    0    0  0.12650472314E+02  0.82824853268E+00 -0.12108729789E+02  0.17531166041E+02  0.51100000000E-03 0. -1.
        -11    1    3    3    0    0  0.65305740666E+01  0.11973076793E+02 -0.10117223465E+02  0.16981200677E+02  0.51100000000E-03 0.  1.
         12    1    3    3    0    0  0.15194938366E+02 -0.45975229199E+01  0.21223191047E+01  0.16016479243E+02  0.00000000000E+00 0. -1.
</event>
<event>
 7    1  0.5138511E-013  0.5052884E+02  0.7816164E-02  0.1300439E+00
        -11   -1    0    0    0    0  0.00000000000E+00  0.00000000000E+00  0.45593999997E+02  0.45594000000E+02  0.51100000000E-03 0.  1.
         11   -1    0    0    0    0 -0.00000000000E+00 -0.00000000000E+00 -0.45593999997E+02  0.45594000000E+02  0.51100000000E-03 0. -1.
    9900012    2    1    2    0    0 -0.96980097441E+01  0.39475084694E+02  0.91292813395E+00  0.50528841839E+02  0.29999945254E+02 0.  0.
        -12    1    1    2    0    0  0.96980097441E+01 -0.39475084694E+02 -0.91292813395E+00  0.40659158161E+02  0.00000000000E+00 0.  1.
         11    1    3    3    0    0 -0.53231154293E+01  0.42319862383E+01 -0.23051895712E+01  0.71804710581E+01  0.51100000000E-03 0. -1.
        -11    1    3    3    0    0 -0.96868506138E+01  0.64401415522E+01 -0.53907051297E+01  0.12820694212E+02  0.51100000000E-03 0.  1.
         12    1    3    3    0    0  0.53119562990E+01  0.28802956903E+02  0.86088228348E+01  0.30527676569E+02  0.00000000000E+00 0. -1.
</event>
<event>
 7    1  0.5138511E-013  0.5052886E+02  0.7816164E-02  0.1300439E+00
        -11   -1    0    0    0    0  0.00000000000E+00  0.00000000000E+00  0.45593999997E+02  0.45594000000E+02  0.51100000000E-03 0.  1.
         11   -1    0    0    0    0 -0.00000000000E+00 -0.00000000000E+00 -0.45593999997E+02  0.45594000000E+02  0.51100000000E-03 0. -1.
    9900012    2    1    2    0    0  0.40467839820E+02  0.39394687733E+01 -0.86843488727E-02  0.50528861429E+02  0.30000004800E+02 0.  0.
        -12    1    1    2    0    0 -0.40467839820E+02 -0.39394687733E+01  0.86843488727E-02  0.40659138571E+02  0.00000000000E+00 0.  1.
         11    1    3    3    0    0  0.51433033077E+01 -0.79156657799E+00  0.76413686282E+01  0.92450344151E+01  0.51100000000E-03 0. -1.
        -11    1    3    3    0    0  0.23965488854E+02  0.63195420342E+00  0.42295637706E+01  0.24344059482E+02  0.51100000000E-03 0.  1.
         12    1    3    3    0    0  0.11359047658E+02  0.40990811479E+01 -0.11879616748E+02  0.16939767532E+02  0.00000000000E+00 0. -1.
</event>
<event>
 7    1  0.5138511E-013  0.5052885E+02  0.7816164E-02  0.1300439E+00
        -11   -1    0    0    0    0  0.00000000000E+00  0.00000000000E+00  0.45593999997E+02  0.45594000000E+02  0.51100000000E-03 0.  1.
         11   -1    0    0    0    0 -0.00000000000E+00 -0.00000000000E+00 -0.45593999997E+02  0.45594000000E+02  0.51100000000E-03 0. -1.
    9900012    2    1    2    0    0  0.40412595723E+02 -0.13289033337E+01 -0.42687962906E+01  0.50528849752E+02  0.29999969306E+02 0.  0.
        -12    1    1    2    0    0 -0.40412595723E+02  0.13289033337E+01  0.42687962906E+01  0.40659150248E+02  0.00000000000E+00 0.  1.
         11    1    3    3    0    0  0.83753023208E+01 -0.35737829593E+01 -0.10589887415E+02  0.13966507414E+02  0.51100000000E-03 0. -1.
        -11    1    3    3    0    0  0.63502113778E+01 -0.53936514476E+01  0.50304452209E+01  0.97325248451E+01  0.51100000000E-03 0.  1.
        -12    1    3    3    0    0  0.25687082024E+02  0.76385310732E+01  0.12906459037E+01  0.26829817493E+02  0.00000000000E+00 0.  1.
</event>
<event>
 7    1  0.5138511E-013  0.5052886E+02  0.7816164E-02  0.1300439E+00
        -11   -1    0    0    0    0  0.00000000000E+00  0.00000000000E+00  0.45593999997E+02  0.45594000000E+02  0.51100000000E-03 0.  1.
         11   -1    0    0    0    0 -0.00000000000E+00 -0.00000000000E+00 -0.45593999997E+02  0.45594000000E+02  0.51100000000E-03 0. -1.
    9900012    2    1    2    0    0 -0.12540036816E+01  0.32105507439E+02 -0.24916457656E+02  0.50528855945E+02  0.29999988130E+02 0.  0.
        -12    1    1    2    0    0  0.12540036816E+01 -0.32105507439E+02  0.24916457656E+02  0.40659144055E+02  0.00000000000E+00 0.  1.
         11    1    3    3    0    0 -0.21897623839E+01 -0.16520579693E+00  0.53233224823E+01  0.57584819844E+01  0.51100000000E-03 0. -1.
        -11    1    3    3    0    0  0.23034660025E+01  0.34955456872E+01 -0.33271375196E+01  0.53473955914E+01  0.51100000000E-03 0.  1.
         12    1    3    3    0    0 -0.13677073002E+01  0.28775167549E+02 -0.26912642619E+02  0.39422978369E+02  0.00000000000E+00 0. -1.
</event>
<event>
 7    1  0.5138511E-013  0.5052885E+02  0.7816164E-02  0.1300439E+00
        -11   -1    0    0    0    0  0.00000000000E+00  0.00000000000E+00  0.45593999997E+02  0.45594000000E+02  0.51100000000E-03 0.  1.
         11   -1    0    0    0    0 -0.00000000000E+00 -0.00000000000E+00 -0.45593999997E+02  0.45594000000E+02  0.51100000000E-03 0. -1.
    9900012    2    1    2    0    0 -0.10747239065E+02  0.21793583313E+02 -0.32599121198E+02  0.50528854362E+02  0.29999983318E+02 0.  0.
        -12    1    1    2    0    0  0.10747239065E+02 -0.21793583313E+02  0.32599121198E+02  0.40659145638E+02  0.00000000000E+00 0.  1.
         11    1    3    3    0    0 -0.62814881988E+01  0.58042900685E+01 -0.93266814299E+01  0.12654400972E+02  0.51100000000E-03 0. -1.
        -11    1    3    3    0    0 -0.28932458959E+01  0.92207575336E+01  0.34514950003E+01  0.10261874064E+02  0.51100000000E-03 0.  1.
         12    1    3    3    0    0 -0.15725049700E+01  0.67685357108E+01 -0.26723934768E+02  0.27612579326E+02  0.00000000000E+00 0. -1.
</event>
<event>
 7    1  0.5138511E-013  0.5052886E+02  0.7816164E-02  0.1300439E+00
        -11   -1    0    0    0    0  0.00000000000E+00  0.00000000000E+00  0.45593999997E+02  0.45594000000E+02  0.51100000000E-03 0.  1.
         11   -1    0    0    0    0 -0.00000000000E+00 -0.00000000000E+00 -0.45593999997E+02  0.45594000000E+02  0.51100000000E-03 0. -1.
    9900012    2    1    2    0    0 -0.31386661073E+02  0.16612756847E+02 -0.19800498547E+02  0.50528856796E+02  0.29999990717E+02 0.  0.
        -12    1    1    2    0    0  0.31386661073E+02 -0.16612756847E+02  0.19800498547E+02  0.40659143204E+02  0.00000000000E+00 0.  1.
         11    1    3    3    0    0 -0.16305338847E+02  0.22271845161E+02 -0.12980352164E+02  0.30502273757E+02  0.51100000000E-03 0. -1.
        -11    1    3    3    0    0 -0.12008116289E+02 -0.55912300741E-01 -0.64364118251E+01  0.13624440555E+02  0.51100000000E-03 0.  1.
        -12    1    3    3    0    0 -0.30732059370E+01 -0.56031760134E+01 -0.38373455839E+00  0.64021424836E+01  0.00000000000E+00 0.  1.
</event>
<event>
 7    1  0.5138511E-013  0.5052886E+02  0.7816164E-02  0.1300439E+00
        -11   -1    0    0    0    0  0.00000000000E+00  0.00000000000E+00  0.45593999997E+02  0.45594000000E+02  0.51100000000E-03 0.  1.
         11   -1    0    0    0    0 -0.00000000000E+00 -0.00000000000E+00 -0.45593999997E+02  0.45594000000E+02  0.51100000000E-03 0. -1.
    9900012    2    1    2    0    0 -0.32555330293E+02 -0.17090428921E+01 -0.24298045903E+02  0.50528863354E+02  0.30000010649E+02 0.  0.
        -12    1    1    2    0    0  0.32555330293E+02  0.17090428921E+01  0.24298045903E+02  0.40659136646E+02  0.00000000000E+00 0.  1.
         11    1    3    3    0    0 -0.35525779044E+01  0.98152894516E+01 -0.34613931457E+01  0.10997361482E+02  0.51100000000E-03 0. -1.
        -11    1    3    3    0    0 -0.11458228059E+02 -0.18411983717E+00 -0.24870248955E+01  0.11726473616E+02  0.51100000000E-03 0.  1.
         12    1    3    3    0    0 -0.17544524330E+02 -0.11340212506E+02 -0.18349627862E+02  0.27805028256E+02  0.00000000000E+00 0. -1.
</event>
<event>
 7    1  0.5138511E-013  0.5052892E+02  0.7816164E-02  0.1300439E+00
        -11   -1    0    0    0    0  0.00000000000E+00  0.00000000000E+00  0.45593999997E+02  0.45594000000E+02  0.51100000000E-03 0.  1.
         11   -1    0    0    0    0 -0.00000000000E+00 -0.00000000000E+00 -0.45593999997E+02  0.45594000000E+02  0.51100000000E-03 0. -1.
    9900012    2    1    2    0    0 -0.30591193706E+02 -0.21821132125E+02 -0.15529909607E+02  0.50528916981E+02  0.30000173655E+02 0.  0.
        -12    1    1    2    0    0  0.30591193706E+02  0.21821132125E+02  0.15529909607E+02  0.40659083019E+02  0.00000000000E+00 0.  1.
         11    1    3    3    0    0 -0.41211622177E+01  0.19376324058E+01 -0.70625918566E+01  0.84034874522E+01  0.51100000000E-03 0. -1.
        -11    1    3    3    0    0 -0.13981894787E+02 -0.77415230015E+01  0.61261782217E+01  0.17115917156E+02  0.51100000000E-03 0.  1.
         12    1    3    3    0    0 -0.12488136701E+02 -0.16017241529E+02 -0.14593495972E+02  0.25009512373E+02  0.00000000000E+00 0. -1.
</event>
<event>
 7    1  0.5138511E-013  0.5052886E+02  0.7816164E-02  0.1300439E+00
        -11   -1    0    0    0    0  0.00000000000E+00  0.00000000000E+00  0.45593999997E+02  0.45594000000E+02  0.51100000000E-03 0.  1.
         11   -1    0    0    0    0 -0.00000000000E+00 -0.00000000000E+00 -0.45593999997E+02  0.45594000000E+02  0.51100000000E-03 0. -1.
    9900012    2    1    2    0    0 -0.34824779013E+01 -0.29603685303E+02 -0.27652490500E+02  0.50528855066E+02  0.29999985460E+02 0.  0.
        -12    1    1    2    0    0  0.34824779013E+01  0.29603685303E+02  0.27652490500E+02  0.40659144934E+02  0.00000000000E+00 0.  1.
         11    1    3    3    0    0 -0.12606990265E+02 -0.17087970696E+02 -0.17454405784E+02  0.27488019710E+02  0.51100000000E-03 0. -1.
        -11    1    3    3    0    0 -0.12907257692E+01  0.61901528256E+00  0.18921941080E+01  0.23726676410E+01  0.51100000000E-03 0.  1.
         12    1    3    3    0    0  0.10415238133E+02 -0.13134729890E+02 -0.12090278825E+02  0.20668167715E+02  0.00000000000E+00 0. -1.
</event>
<event>
 7    1  0.9685455E-013  0.5052886E+02  0.7816164E-02  0.1300439E+00
        -11   -1    0    0    0    0  0.00000000000E+00  0.00000000000E+00  0.45593999997E+02  0.45594000000E+02  0.51100000000E-03 0.  1.
         11   -1    0    0    0    0 -0.00000000000E+00 -0.00000000000E+00 -0.45593999997E+02  0.45594000000E+02  0.51100000000E-03 0. -1.
    9900012    2    1    2    0    0  0.26416153403E+02  0.25754753933E+02 -0.17089329254E+02  0.50528859760E+02  0.29999999725E+02 0.  0.
        -12    1    1    2    0    0 -0.26416153403E+02 -0.25754753933E+02  0.17089329254E+02  0.40659140240E+02  0.00000000000E+00 0.  1.
         11    1    3    3    0    0  0.15724036052E+02  0.74378639757E+01 -0.10427804735E+02  0.20280686432E+02  0.51100000000E-03 0. -1.
        -11    1    3    3    0    0  0.13286206778E+02  0.19945626885E+02 -0.97732781964E+01  0.25881813873E+02  0.51100000000E-03 0.  1.
        -12    1    3    3    0    0 -0.25940894273E+01 -0.16287369280E+01  0.31117536778E+01  0.43663594549E+01  0.00000000000E+00 0.  1.
</event>
<event>
 7    1  0.5138511E-013  0.5052884E+02  0.7816164E-02  0.1300439E+00
        -11   -1    0    0    0    0  0.00000000000E+00  0.00000000000E+00  0.45593999997E+02  0.45594000000E+02  0.51100000000E-03 0. -1.
         11   -1    0    0    0    0 -0.00000000000E+00 -0.00000000000E+00 -0.45593999997E+02  0.45594000000E+02  0.51100000000E-03 0.  1.
    9900012    2    1    2    0    0  0.38379824792E+02  0.12753877301E+02 -0.41827399340E+01  0.50528835589E+02  0.29999926255E+02 0.  0.
        -12    1    1    2    0    0 -0.38379824792E+02 -0.12753877301E+02  0.41827399340E+01  0.40659164411E+02  0.00000000000E+00 0.  1.
         11    1    3    3    0    0  0.39091912673E+01 -0.66770176611E+01 -0.26976826361E+01  0.81940120257E+01  0.51100000000E-03 0. -1.
        -11    1    3    3    0    0  0.17026066089E+02  0.22461111875E+01 -0.42506574642E+01  0.17691806891E+02  0.51100000000E-03 0.  1.
         12    1    3    3    0    0  0.17444567435E+02  0.17184783775E+02  0.27656001663E+01  0.24643016671E+02  0.00000000000E+00 0. -1.
</event>
<event>
 7    1  0.5138511E-013  0.5052886E+02  0.7816164E-02  0.1300439E+00
        -11   -1    0    0    0    0  0.00000000000E+00  0.00000000000E+00  0.45593999997E+02  0.45594000000E+02  0.51100000000E-03 0. -1.
         11   -1    0    0    0    0 -0.00000000000E+00 -0.00000000000E+00 -0.45593999997E+02  0.45594000000E+02  0.51100000000E-03 0.  1.
    9900012    2    1    2    0    0 -0.52952005788E+01 -0.84478548574E+01  0.39417769567E+02  0.50528856398E+02  0.29999989507E+02 0.  0.
        -12    1    1    2    0    0  0.52952005788E+01  0.84478548574E+01 -0.39417769567E+02  0.40659143602E+02  0.00000000000E+00 0.  1.
         11    1    3    3    0    0 -0.40070565361E+01 -0.23253117094E+01 -0.97563858056E+00  0.47344954885E+01  0.51100000000E-03 0.  1.
        -11    1    3    3    0    0 -0.42782831433E+01  0.69037505730E+01  0.13300498876E+02  0.15584246829E+02  0.51100000000E-03 0. -1.
         12    1    3    3    0    0  0.29901391007E+01 -0.13026293721E+02  0.27092909272E+02  0.30210114080E+02  0.00000000000E+00 0. -1.
</event>
<event>
 7    1  0.5138511E-013  0.5052884E+02  0.7816164E-02  0.1300439E+00
        -11   -1    0    0    0    0  0.00000000000E+00  0.00000000000E+00  0.45593999997E+02  0.45594000000E+02  0.51100000000E-03 0.  1.
         11   -1    0    0    0    0 -0.00000000000E+00 -0.00000000000E+00 -0.45593999997E+02  0.45594000000E+02  0.51100000000E-03 0. -1.
    9900012    2    1    2    0    0  0.32414159797E+02  0.15238052713E+02 -0.19242949965E+02  0.50528842001E+02  0.29999945747E+02 0.  0.
        -12    1    1    2    0    0 -0.32414159797E+02 -0.15238052713E+02  0.19242949965E+02  0.40659157999E+02  0.00000000000E+00 0.  1.
         11    1    3    3    0    0  0.75318382326E+01  0.25372249653E+01  0.36199218769E+01  0.87332658463E+01  0.51100000000E-03 0. -1.
        -11    1    3    3    0    0 -0.26808329916E+01  0.60125855032E+01 -0.35245366375E+01  0.74672892493E+01  0.51100000000E-03 0.  1.
         12    1    3    3    0    0  0.27563154556E+02  0.66882422446E+01 -0.19338335205E+02  0.34328286906E+02  0.00000000000E+00 0. -1.
</event>
<event>
 7    1  0.5138511E-013  0.5052885E+02  0.7816164E-02  0.1300439E+00
        -11   -1    0    0    0    0  0.00000000000E+00  0.00000000000E+00  0.45593999997E+02  0.45594000000E+02  0.51100000000E-03 0.  1.
         11   -1    0    0    0    0 -0.00000000000E+00 -0.00000000000E+00 -0.45593999997E+02  0.45594000000E+02  0.51100000000E-03 0. -1.
    9900012    2    1    2    0    0 -0.35237561834E+02 -0.12262937847E+02 -0.16158626505E+02  0.50528848273E+02  0.29999964810E+02 0.  0.
        -12    1    1    2    0    0  0.35237561834E+02  0.12262937847E+02  0.16158626505E+02  0.40659151727E+02  0.00000000000E+00 0.  1.
         11    1    3    3    0    0 -0.86563465373E+00 -0.25746553368E+01  0.31874921684E+01  0.41878729735E+01  0.51100000000E-03 0. -1.
        -11    1    3    3    0    0 -0.11835485738E+01 -0.26450012195E+01 -0.11036638033E+02  0.11410705412E+02  0.51100000000E-03 0.  1.
         12    1    3    3    0    0 -0.33188378607E+02 -0.70432812906E+01 -0.83094806405E+01  0.34930269887E+02  0.00000000000E+00 0. -1.
</event>
<event>
 7    1  0.5138511E-013  0.5052886E+02  0.7816164E-02  0.1300439E+00
        -11   -1    0    0    0    0  0.00000000000E+00  0.00000000000E+00  0.45593999997E+02  0.45594000000E+02  0.51100000000E-03 0.  1.
         11   -1    0    0    0    0 -0.00000000000E+00 -0.00000000000E+00 -0.45593999997E+02  0.45594000000E+02  0.51100000000E-03 0. -1.
    9900012    2    1    2    0    0  0.41576119175E+01  0.20313202944E+02 -0.34975046425E+02  0.50528858062E+02  0.29999994564E+02 0.  0.
        -12    1    1    2    0    0 -0.41576119175E+01 -0.20313202944E+02  0.34975046425E+02  0.40659141938E+02  0.00000000000E+00 0.  1.
         11    1    3    3    0    0  0.81079574391E+01  0.20589414837E+02 -0.18380052389E+02  0.28766113802E+02  0.51100000000E-03 0. -1.
        -11    1    3    3    0    0  0.47027204437E+01 -0.20278709719E+01 -0.75520053486E+01  0.91247260395E+01  0.51100000000E-03 0.  1.
         12    1    3    3    0    0 -0.86530659653E+01  0.17516590789E+01 -0.90429886881E+01  0.12638018220E+02  0.00000000000E+00 0. -1.
</event>
<event>
 7    1  0.5138511E-013  0.5052884E+02  0.7816164E-02  0.1300439E+00
        -11   -1    0    0    0    0  0.00000000000E+00  0.00000000000E+00  0.45593999997E+02  0.45594000000E+02  0.51100000000E-03 0.  1.
         11   -1    0    0    0    0 -0.00000000000E+00 -0.00000000000E+00 -0.45593999997E+02  0.45594000000E+02  0.51100000000E-03 0. -1.
    9900012    2    1    2    0    0  0.26845431222E+02  0.23023229323E+02 -0.20060432290E+02  0.50528841012E+02  0.29999942740E+02 0.  0.
        -12    1    1    2    0    0 -0.26845431222E+02 -0.23023229323E+02  0.20060432290E+02  0.40659158988E+02  0.00000000000E+00 0.  1.
         11    1    3    3    0    0  0.10423297152E+02  0.34583872896E+01  0.28107988345E+01  0.11336055597E+02  0.51100000000E-03 0. -1.
        -11    1    3    3    0    0 -0.39321030857E+01  0.34958701392E+01 -0.11986670781E+01  0.53962344030E+01  0.51100000000E-03 0.  1.
         12    1    3    3    0    0  0.20354237156E+02  0.16068971894E+02 -0.21672564046E+02  0.33796551012E+02  0.00000000000E+00 0. -1.
</event>
<event>
 7    1  0.5138511E-013  0.5052886E+02  0.7816164E-02  0.1300439E+00
        -11   -1    0    0    0    0  0.00000000000E+00  0.00000000000E+00  0.45593999997E+02  0.45594000000E+02  0.51100000000E-03 0.  1.
         11   -1    0    0    0    0 -0.00000000000E+00 -0.00000000000E+00 -0.45593999997E+02  0.45594000000E+02  0.51100000000E-03 0. -1.
    9900012    2    1    2    0    0 -0.35649649901E+02 -0.95736993232E-01 -0.19551450697E+02  0.50528856773E+02  0.29999990647E+02 0.  0.
        -12    1    1    2    0    0  0.35649649901E+02  0.95736993232E-01  0.19551450697E+02  0.40659143227E+02  0.00000000000E+00 0.  1.
         11    1    3    3    0    0 -0.70987872380E+00 -0.38005154346E+01 -0.54603552134E+00  0.39046127110E+01  0.51100000000E-03 0. -1.
        -11    1    3    3    0    0  0.32916370005E+01 -0.11851135267E+01 -0.38678804015E+01  0.52153491997E+01  0.51100000000E-03 0.  1.
         12    1    3    3    0    0 -0.38231408177E+02  0.48898919681E+01 -0.15137534774E+02  0.41408894862E+02  0.00000000000E+00 0. -1.
</event>
<event>
 7    1  0.5138511E-013  0.5052885E+02  0.7816164E-02  0.1300439E+00
        -11   -1    0    0    0    0  0.00000000000E+00  0.00000000000E+00  0.45593999997E+02  0.45594000000E+02  0.51100000000E-03 0.  1.
         11   -1    0    0    0    0 -0.00000000000E+00 -0.00000000000E+00 -0.45593999997E+02  0.45594000000E+02  0.51100000000E-03 0. -1.
    9900012    2    1    2    0    0  0.19395541587E+02  0.14488361264E+01 -0.35705462193E+02  0.50528853551E+02  0.29999980852E+02 0.  0.
        -12    1    1    2    0    0 -0.19395541587E+02 -0.14488361264E+01  0.35705462193E+02  0.40659146449E+02  0.00000000000E+00 0.  1.
         11    1    3    3    0    0  0.74686652190E+01  0.58307571018E+01 -0.33341131022E+02  0.34661357542E+02  0.51100000000E-03 0. -1.
        -11    1    3    3    0    0  0.87231055798E+01  0.15816916999E+01 -0.19991498692E+01  0.90879546682E+01  0.51100000000E-03 0.  1.
        -12    1    3    3    0    0  0.32037707885E+01 -0.59636126753E+01 -0.36518130152E+00  0.67795413406E+01  0.00000000000E+00 0.  1.
</event>
<event>
 7    1  0.5138511E-013  0.5052886E+02  0.7816164E-02  0.1300439E+00
        -11   -1    0    0    0    0  0.00000000000E+00  0.00000000000E+00  0.45593999997E+02  0.45594000000E+02  0.51100000000E-03 0.  1.
         11   -1    0    0    0    0 -0.00000000000E+00 -0.00000000000E+00 -0.45593999997E+02  0.45594000000E+02  0.51100000000E-03 0. -1.
    9900012    2    1    2    0    0 -0.33645512959E+02  0.21620272557E+02 -0.73286547869E+01  0.50528857009E+02  0.29999991365E+02 0.  0.
        -12    1    1    2    0    0  0.33645512959E+02 -0.21620272557E+02  0.73286547869E+01  0.40659142991E+02  0.00000000000E+00 0.  1.
         11    1    3    3    0    0 -0.11135488565E+02 -0.56072834640E+01 -0.11671667549E+01  0.12522100939E+02  0.51100000000E-03 0. -1.
        -11    1    3    3    0    0 -0.66059422535E+01  0.11313590215E+02  0.34397001842E+01  0.13545011415E+02  0.51100000000E-03 0.  1.
        -12    1    3    3    0    0 -0.15904082141E+02  0.15913965806E+02 -0.96011882163E+01  0.24461744655E+02  0.00000000000E+00 0.  1.
</event>
<event>
 7    1  0.5138511E-013  0.5052886E+02  0.7816164E-02  0.1300439E+00
        -11   -1    0    0    0    0  0.00000000000E+00  0.00000000000E+00  0.45593999997E+02  0.45594000000E+02  0.51100000000E-03 0.  1.
         11   -1    0    0    0    0 -0.00000000000E+00 -0.00000000000E+00 -0.45593999997E+02  0.45594000000E+02  0.51100000000E-03 0. -1.
    9900012    2    1    2    0    0  0.13274791814E+02 -0.31348838462E+01 -0.38302978566E+02  0.50528858821E+02  0.29999996872E+02 0.  0.
        -12    1    1    2    0    0 -0.13274791814E+02  0.31348838462E+01  0.38302978566E+02  0.40659141179E+02  0.00000000000E+00 0.  1.
         11    1    3    3    0    0  0.14060658587E+02 -0.11438235153E+02 -0.17421467510E+02  0.25140462879E+02  0.51100000000E-03 0. -1.
        -11    1    3    3    0    0  0.24911997653E+01 -0.40978004884E-02 -0.13711020688E+02  0.13935500767E+02  0.51100000000E-03 0.  1.
        -12    1    3    3    0    0 -0.32770665384E+01  0.83074491071E+01 -0.71704903672E+01  0.11452895174E+02  0.00000000000E+00 0.  1.
</event>
<event>
 7    1  0.5138511E-013  0.5052886E+02  0.7816164E-02  0.1300439E+00
        -11   -1    0    0    0    0  0.00000000000E+00  0.00000000000E+00  0.45593999997E+02  0.45594000000E+02  0.51100000000E-03 0.  1.
         11   -1    0    0    0    0 -0.00000000000E+00 -0.00000000000E+00 -0.45593999997E+02  0.45594000000E+02  0.51100000000E-03 0. -1.
    9900012    2    1    2    0    0 -0.24763240687E+02  0.57172033799E+01 -0.31737375514E+02  0.50528861934E+02  0.30000006333E+02 0.  0.
        -12    1    1    2    0    0  0.24763240687E+02 -0.57172033799E+01  0.31737375514E+02  0.40659138066E+02  0.00000000000E+00 0.  1.
         11    1    3    3    0    0 -0.20163851121E+02 -0.20836878112E-01 -0.24740808770E+02  0.31916906884E+02  0.51100000000E-03 0. -1.
        -11    1    3    3    0    0 -0.10794231008E+01  0.77827193343E+01 -0.10586971269E+02  0.13184075068E+02  0.51100000000E-03 0.  1.
         12    1    3    3    0    0 -0.35199664658E+01 -0.20446790763E+01  0.35904045254E+01  0.54278799822E+01  0.00000000000E+00 0. -1.
</event>
<event>
 7    1  0.5138511E-013  0.5052886E+02  0.7816164E-02  0.1300439E+00
        -11   -1    0    0    0    0  0.00000000000E+00  0.00000000000E+00  0.45593999997E+02  0.45594000000E+02  0.51100000000E-03 0. -1.
         11   -1    0    0    0    0 -0.00000000000E+00 -0.00000000000E+00 -0.45593999997E+02  0.45594000000E+02  0.51100000000E-03 0.  1.
    9900012    2    1    2    0    0  0.26250409925E+02  0.11133682262E+01  0.31029697946E+02  0.50528858781E+02  0.29999996750E+02 0.  0.
        -12    1    1    2    0    0 -0.26250409925E+02 -0.11133682262E+01 -0.31029697946E+02  0.40659141219E+02  0.00000000000E+00 0.  1.
         11    1    3    3    0    0 -0.19141834809E+01 -0.81070542242E+00  0.22278495603E+01  0.30470732851E+01  0.51100000000E-03 0. -1.
        -11    1    3    3    0    0  0.86418684692E+01  0.84185373853E+01  0.23213995700E+02  0.26161866504E+02  0.51100000000E-03 0.  1.
        -12    1    3    3    0    0  0.19522724937E+02 -0.64944637368E+01  0.55878526861E+01  0.21319918992E+02  0.00000000000E+00 0.  1.
</event>
<event>
 7    1  0.5138511E-013  0.5052887E+02  0.7816164E-02  0.1300439E+00
        -11   -1    0    0    0    0  0.00000000000E+00  0.00000000000E+00  0.45593999997E+02  0.45594000000E+02  0.51100000000E-03 0.  1.
         11   -1    0    0    0    0 -0.00000000000E+00 -0.00000000000E+00 -0.45593999997E+02  0.45594000000E+02  0.51100000000E-03 0. -1.
    9900012    2    1    2    0    0  0.36171237239E+02  0.17921093805E+02  0.48621789808E+01  0.50528870755E+02  0.30000033146E+02 0.  0.
        -12    1    1    2    0    0 -0.36171237239E+02 -0.17921093805E+02 -0.48621789808E+01  0.40659129245E+02  0.00000000000E+00 0.  1.
         11    1    3    3    0    0  0.11985916009E+01 -0.34325944218E+01 -0.34823897570E+01  0.50345173523E+01  0.51100000000E-03 0.  1.
        -11    1    3    3    0    0  0.69777440546E+01  0.21403037739E+01  0.89327623754E+01  0.11535339451E+02  0.51100000000E-03 0. -1.
         12    1    3    3    0    0  0.27994901583E+02  0.19213384453E+02 -0.58819363765E+00  0.33959013951E+02  0.00000000000E+00 0. -1.
</event>
<event>
 7    1  0.5138511E-013  0.5052883E+02  0.7816164E-02  0.1300439E+00
        -11   -1    0    0    0    0  0.00000000000E+00  0.00000000000E+00  0.45593999997E+02  0.45594000000E+02  0.51100000000E-03 0. -1.
         11   -1    0    0    0    0 -0.00000000000E+00 -0.00000000000E+00 -0.45593999997E+02  0.45594000000E+02  0.51100000000E-03 0.  1.
    9900012    2    1    2    0    0  0.14281181035E+02  0.30508854531E+02  0.22768966865E+02  0.50528828973E+02  0.29999906145E+02 0.  0.
        -12    1    1    2    0    0 -0.14281181035E+02 -0.30508854531E+02 -0.22768966865E+02  0.40659171027E+02  0.00000000000E+00 0.  1.
         11    1    3    3    0    0 -0.50016528846E+01  0.54539198081E+01  0.66206207065E+01  0.99294708647E+01  0.51100000000E-03 0. -1.
        -11    1    3    3    0    0  0.15518021864E+02  0.76476064445E+01  0.14750440356E+02  0.22734783435E+02  0.51100000000E-03 0.  1.
         12    1    3    3    0    0  0.37648120555E+01  0.17407328278E+02  0.13979058028E+01  0.17864574673E+02  0.00000000000E+00 0. -1.
</event>
<event>
 7    1  0.5138511E-013  0.5052886E+02  0.7816164E-02  0.1300439E+00
        -11   -1    0    0    0    0  0.00000000000E+00  0.00000000000E+00  0.45593999997E+02  0.45594000000E+02  0.51100000000E-03 0.  1.
         11   -1    0    0    0    0 -0.00000000000E+00 -0.00000000000E+00 -0.45593999997E+02  0.45594000000E+02  0.51100000000E-03 0. -1.
    9900012    2    1    2    0    0  0.43391412460E+01 -0.41340573267E+01 -0.40215015195E+02  0.50528855594E+02  0.29999987063E+02 0.  0.
        -12    1    1    2    0    0 -0.43391412460E+01  0.41340573267E+01  0.40215015195E+02  0.40659144406E+02  0.00000000000E+00 0.  1.
         11    1    3    3    0    0 -0.82399012374E+01  0.56033661895E+00 -0.20529665874E+02  0.22128649545E+02  0.51100000000E-03 0. -1.
        -11    1    3    3    0    0  0.61315263841E+00 -0.68974828339E+01 -0.25387188800E+01  0.73753860519E+01  0.51100000000E-03 0.  1.
         12    1    3    3    0    0  0.11965889845E+02  0.22030888883E+01 -0.17146630441E+02  0.21024819997E+02  0.00000000000E+00 0. -1.
</event>
<event>
 7    1  0.5138511E-013  0.5052886E+02  0.7816164E-02  0.1300439E+00
        -11   -1    0    0    0    0  0.00000000000E+00  0.00000000000E+00  0.45593999997E+02  0.45594000000E+02  0.51100000000E-03 0. -1.
         11   -1    0    0    0    0 -0.00000000000E+00 -0.00000000000E+00 -0.45593999997E+02  0.45594000000E+02  0.51100000000E-03 0.  1.
    9900012    2    1    2    0    0  0.15509473091E+02 -0.37100488003E+02 -0.60145967769E+01  0.50528864003E+02  0.30000012625E+02 0.  0.
        -12    1    1    2    0    0 -0.15509473091E+02  0.37100488003E+02  0.60145967769E+01  0.40659135997E+02  0.00000000000E+00 0.  1.
         11    1    3    3    0    0  0.92670418087E+01 -0.82250759918E+01 -0.16414288059E+01  0.12498969067E+02  0.51100000000E-03 0. -1.
        -11    1    3    3    0    0  0.23130371531E+01 -0.13194176000E+01 -0.93780394488E+01  0.97487757097E+01  0.51100000000E-03 0.  1.
         12    1    3    3    0    0  0.39293941295E+01 -0.27555994411E+02  0.50048714778E+01  0.28281119226E+02  0.00000000000E+00 0. -1.
</event>
<event>
 7    1  0.5138511E-013  0.5052886E+02  0.7816164E-02  0.1300439E+00
        -11   -1    0    0    0    0  0.00000000000E+00  0.00000000000E+00  0.45593999997E+02  0.45594000000E+02  0.51100000000E-03 0. -1.
         11   -1    0    0    0    0 -0.00000000000E+00 -0.00000000000E+00 -0.45593999997E+02  0.45594000000E+02  0.51100000000E-03 0.  1.
    9900012    2    1    2    0    0  0.23522945826E+02  0.14038759812E+02  0.30045797350E+02  0.50528859628E+02  0.29999999326E+02 0.  0.
        -12    1    1    2    0    0 -0.23522945826E+02 -0.14038759812E+02 -0.30045797350E+02  0.40659140372E+02  0.00000000000E+00 0.  1.
         11    1    3    3    0    0  0.72483537373E+01 -0.26756640334E+01  0.80884840401E+01  0.11185767039E+02  0.51100000000E-03 0. -1.
        -11    1    3    3    0    0  0.95778233296E+00 -0.20654058074E+01 -0.35128393696E+01  0.41860827565E+01  0.51100000000E-03 0.  1.
         12    1    3    3    0    0  0.15316809755E+02  0.18779829653E+02  0.25470152679E+02  0.35157009833E+02  0.00000000000E+00 0. -1.
</event>
<event>
 7    1  0.5138511E-013  0.5052886E+02  0.7816164E-02  0.1300439E+00
        -11   -1    0    0    0    0  0.00000000000E+00  0.00000000000E+00  0.45593999997E+02  0.45594000000E+02  0.51100000000E-03 0. -1.
         11   -1    0    0    0    0 -0.00000000000E+00 -0.00000000000E+00 -0.45593999997E+02  0.45594000000E+02  0.51100000000E-03 0.  1.
    9900012    2    1    2    0    0 -0.11663394569E+02  0.25470807943E+02  0.29468096717E+02  0.50528861369E+02  0.30000004616E+02 0.  0.
        -12    1    1    2    0    0  0.11663394569E+02 -0.25470807943E+02 -0.29468096717E+02  0.40659138631E+02  0.00000000000E+00 0.  1.
         11    1    3    3    0    0  0.24714995334E+01  0.12432016610E+01  0.95488488356E+01  0.99415479006E+01  0.51100000000E-03 0.  1.
        -11    1    3    3    0    0 -0.11026241672E+02  0.65876585263E+01  0.18630846662E+02  0.22629266401E+02  0.51100000000E-03 0. -1.
         12    1    3    3    0    0 -0.31086524301E+01  0.17639947755E+02  0.12884012197E+01  0.17958047067E+02  0.00000000000E+00 0. -1.
</event>
<event>
 7    1  0.5138511E-013  0.5052887E+02  0.7816164E-02  0.1300439E+00
        -11   -1    0    0    0    0  0.00000000000E+00  0.00000000000E+00  0.45593999997E+02  0.45594000000E+02  0.51100000000E-03 0. -1.
         11   -1    0    0    0    0 -0.00000000000E+00 -0.00000000000E+00 -0.45593999997E+02  0.45594000000E+02  0.51100000000E-03 0.  1.
    9900012    2    1    2    0    0 -0.34248870932E+02  0.65395586843E+01  0.20914450408E+02  0.50528865433E+02  0.30000016969E+02 0.  0.
        -12    1    1    2    0    0  0.34248870932E+02 -0.65395586843E+01 -0.20914450408E+02  0.40659134567E+02  0.00000000000E+00 0.  1.
         11    1    3    3    0    0 -0.25910096426E+01  0.49315300369E+00  0.78448803015E+01  0.82763928169E+01  0.51100000000E-03 0. -1.
        -11    1    3    3    0    0 -0.18532420052E+02 -0.80691214965E+01  0.10588777560E+02  0.22818490862E+02  0.51100000000E-03 0.  1.
         12    1    3    3    0    0 -0.13125441237E+02  0.14115527177E+02  0.24807925461E+01  0.19433981754E+02  0.00000000000E+00 0. -1.
</event>
<event>
 7    1  0.5138511E-013  0.5052887E+02  0.7816164E-02  0.1300439E+00
        -11   -1    0    0    0    0  0.00000000000E+00  0.00000000000E+00  0.45593999997E+02  0.45594000000E+02  0.51100000000E-03 0. -1.
         11   -1    0    0    0    0 -0.00000000000E+00 -0.00000000000E+00 -0.45593999997E+02  0.45594000000E+02  0.51100000000E-03 0.  1.
    9900012    2    1    2    0    0  0.11259142698E+02  0.31027115507E+02  0.23742675572E+02  0.50528870222E+02  0.30000031526E+02 0.  0.
        -12    1    1    2    0    0 -0.11259142698E+02 -0.31027115507E+02 -0.23742675572E+02  0.40659129778E+02  0.00000000000E+00 0.  1.
         11    1    3    3    0    0  0.88906248990E+01  0.23895915892E+01  0.12035796331E+02  0.15153011339E+02  0.51100000000E-03 0. -1.
        -11    1    3    3    0    0 -0.37494986056E+01  0.26033631446E+01  0.67939228388E+01  0.81849634854E+01  0.51100000000E-03 0.  1.
         12    1    3    3    0    0  0.61180164044E+01  0.26034160774E+02  0.49129564026E+01  0.27190895398E+02  0.00000000000E+00 0. -1.
</event>
<event>
 7    1  0.5138511E-013  0.5052885E+02  0.7816164E-02  0.1300439E+00
        -11   -1    0    0    0    0  0.00000000000E+00  0.00000000000E+00  0.45593999997E+02  0.45594000000E+02  0.51100000000E-03 0. -1.
         11   -1    0    0    0    0 -0.00000000000E+00 -0.00000000000E+00 -0.45593999997E+02  0.45594000000E+02  0.51100000000E-03 0.  1.
    9900012    2    1    2    0    0  0.27239791998E+02 -0.18922141299E+02  0.23518348447E+02  0.50528850807E+02  0.29999972513E+02 0.  0.
        -12    1    1    2    0    0 -0.27239791998E+02  0.18922141299E+02 -0.23518348447E+02  0.40659149193E+02  0.00000000000E+00 0.  1.
         11    1    3    3    0    0  0.24532829088E+02 -0.63649554363E+01  0.12859444146E+02  0.28420725972E+02  0.51100000000E-03 0. -1.
        -11    1    3    3    0    0  0.33721207146E+01 -0.15425585416E+02  0.10848522814E+02  0.19157513697E+02  0.51100000000E-03 0.  1.
        -12    1    3    3    0    0 -0.66515780466E+00  0.28683995537E+01 -0.18961851419E+00  0.29506111377E+01  0.00000000000E+00 0.  1.
</event>
<event>
 7    1  0.5138511E-013  0.5052890E+02  0.7816164E-02  0.1300439E+00
        -11   -1    0    0    0    0  0.00000000000E+00  0.00000000000E+00  0.45593999997E+02  0.45594000000E+02  0.51100000000E-03 0.  1.
         11   -1    0    0    0    0 -0.00000000000E+00 -0.00000000000E+00 -0.45593999997E+02  0.45594000000E+02  0.51100000000E-03 0. -1.
    9900012    2    1    2    0    0 -0.36352086005E+02  0.97132261608E+01 -0.15405884105E+02  0.50528902808E+02  0.30000130576E+02 0.  0.
        -12    1    1    2    0    0  0.36352086005E+02 -0.97132261608E+01  0.15405884105E+02  0.40659097192E+02  0.00000000000E+00 0.  1.
         11    1    3    3    0    0 -0.64541943914E+01  0.10538888045E+02 -0.94466258754E+01  0.15555176861E+02  0.51100000000E-03 0. -1.
        -11    1    3    3    0    0 -0.24312839699E+02  0.38496845534E+01 -0.10086385369E+02  0.26602056602E+02  0.51100000000E-03 0.  1.
        -12    1    3    3    0    0 -0.55850519151E+01 -0.46753464380E+01  0.41271271396E+01  0.83716693459E+01  0.00000000000E+00 0.  1.
</event>
<event>
 7    1  0.5138511E-013  0.5052889E+02  0.7816164E-02  0.1300439E+00
        -11   -1    0    0    0    0  0.00000000000E+00  0.00000000000E+00  0.45593999997E+02  0.45594000000E+02  0.51100000000E-03 0.  1.
         11   -1    0    0    0    0 -0.00000000000E+00 -0.00000000000E+00 -0.45593999997E+02  0.45594000000E+02  0.51100000000E-03 0. -1.
    9900012    2    1    2    0    0  0.19481844804E+02 -0.30711291467E+02 -0.18177944147E+02  0.50528888426E+02  0.30000086861E+02 0.  0.
        -12    1    1    2    0    0 -0.19481844804E+02  0.30711291467E+02  0.18177944147E+02  0.40659111574E+02  0.00000000000E+00 0.  1.
         11    1    3    3    0    0  0.15843596654E+02 -0.10039379286E+02 -0.11757880785E+02  0.22137218710E+02  0.51100000000E-03 0. -1.
        -11    1    3    3    0    0  0.15852447748E+01  0.32621055089E+01 -0.10664280572E+01  0.37804235754E+01  0.51100000000E-03 0.  1.
         12    1    3    3    0    0  0.20530033747E+01 -0.23934017690E+02 -0.53536353049E+01  0.24611246141E+02  0.00000000000E+00 0. -1.
</event>
<event>
 7    1  0.5138511E-013  0.5052886E+02  0.7816164E-02  0.1300439E+00
        -11   -1    0    0    0    0  0.00000000000E+00  0.00000000000E+00  0.45593999997E+02  0.45594000000E+02  0.51100000000E-03 0.  1.
         11   -1    0    0    0    0 -0.00000000000E+00 -0.00000000000E+00 -0.45593999997E+02  0.45594000000E+02  0.51100000000E-03 0. -1.
    9900012    2    1    2    0    0  0.25981408247E+02 -0.11321270289E+02 -0.29154093900E+02  0.50528856789E+02  0.29999990697E+02 0.  0.
        -12    1    1    2    0    0 -0.25981408247E+02  0.11321270289E+02  0.29154093900E+02  0.40659143211E+02  0.00000000000E+00 0.  1.
         11    1    3    3    0    0  0.13619545728E+02 -0.90310797577E+01 -0.26248574657E+02  0.30919898111E+02  0.51100000000E-03 0. -1.
        -11    1    3    3    0    0 -0.21976542327E+01 -0.29447137246E+00 -0.43094222735E+01  0.48463922776E+01  0.51100000000E-03 0.  1.
        -12    1    3    3    0    0  0.14559516752E+02 -0.19957191586E+01  0.14039030299E+01  0.14762566401E+02  0.00000000000E+00 0.  1.
</event>
<event>
 7    1  0.5138511E-013  0.5052885E+02  0.7816164E-02  0.1300439E+00
        -11   -1    0    0    0    0  0.00000000000E+00  0.00000000000E+00  0.45593999997E+02  0.45594000000E+02  0.51100000000E-03 0. -1.
         11   -1    0    0    0    0 -0.00000000000E+00 -0.00000000000E+00 -0.45593999997E+02  0.45594000000E+02  0.51100000000E-03 0.  1.
    9900012    2    1    2    0    0  0.35098322792E+02 -0.16330044234E+02 -0.12433968081E+02  0.50528853800E+02  0.29999981609E+02 0.  0.
        -12    1    1    2    0    0 -0.35098322792E+02  0.16330044234E+02  0.12433968081E+02  0.40659146200E+02  0.00000000000E+00 0.  1.
         11    1    3    3    0    0  0.82691025012E+01 -0.65134507442E+01 -0.11367654667E+02  0.15492794120E+02  0.51100000000E-03 0. -1.
        -11    1    3    3    0    0 -0.13508603387E+01  0.17182299948E+01  0.36194436740E+01  0.42281805472E+01  0.51100000000E-03 0.  1.
         12    1    3    3    0    0  0.28180080630E+02 -0.11534823485E+02 -0.46857570883E+01  0.30807879132E+02  0.00000000000E+00 0. -1.
</event>
<event>
 7    1  0.5138511E-013  0.5052886E+02  0.7816164E-02  0.1300439E+00
        -11   -1    0    0    0    0  0.00000000000E+00  0.00000000000E+00  0.45593999997E+02  0.45594000000E+02  0.51100000000E-03 0. -1.
         11   -1    0    0    0    0 -0.00000000000E+00 -0.00000000000E+00 -0.45593999997E+02  0.45594000000E+02  0.51100000000E-03 0.  1.
    9900012    2    1    2    0    0 -0.40191809867E+01 -0.11414618633E+02  0.38816466594E+02  0.50528863104E+02  0.30000009889E+02 0.  0.
        -12    1    1    2    0    0  0.40191809867E+01  0.11414618633E+02 -0.38816466594E+02  0.40659136896E+02  0.00000000000E+00 0.  1.
         11    1    3    3    0    0 -0.97633419832E+00  0.50270387120E+01  0.70104123108E+01  0.86816028305E+01  0.51100000000E-03 0. -1.
        -11    1    3    3    0    0 -0.75841566699E+01 -0.42618441588E+01  0.14426767848E+01  0.88183935382E+01  0.51100000000E-03 0.  1.
         12    1    3    3    0    0  0.45413098816E+01 -0.12179813186E+02  0.30363377498E+02  0.33028866735E+02  0.00000000000E+00 0. -1.
</event>
<event>
 7    1  0.5138511E-013  0.5052886E+02  0.7816164E-02  0.1300439E+00
        -11   -1    0    0    0    0  0.00000000000E+00  0.00000000000E+00  0.45593999997E+02  0.45594000000E+02  0.51100000000E-03 0.  1.
         11   -1    0    0    0    0 -0.00000000000E+00 -0.00000000000E+00 -0.45593999997E+02  0.45594000000E+02  0.51100000000E-03 0. -1.
    9900012    2    1    2    0    0 -0.36741120794E+02  0.10949966003E+02 -0.13540838580E+02  0.50528855615E+02  0.29999987129E+02 0.  0.
        -12    1    1    2    0    0  0.36741120794E+02 -0.10949966003E+02  0.13540838580E+02  0.40659144385E+02  0.00000000000E+00 0.  1.
         11    1    3    3    0    0 -0.30920147392E+01  0.20533158516E+01 -0.62437487578E+01  0.72636808813E+01  0.51100000000E-03 0. -1.
        -11    1    3    3    0    0 -0.66635238075E+01 -0.32329187241E+01  0.71900991543E+01  0.10322395028E+02  0.51100000000E-03 0.  1.
         12    1    3    3    0    0 -0.26985582247E+02  0.12129568876E+02 -0.14487188976E+02  0.32942779706E+02  0.00000000000E+00 0. -1.
</event>
<event>
 7    1  0.5138511E-013  0.5052885E+02  0.7816164E-02  0.1300439E+00
        -11   -1    0    0    0    0  0.00000000000E+00  0.00000000000E+00  0.45593999997E+02  0.45594000000E+02  0.51100000000E-03 0.  1.
         11   -1    0    0    0    0 -0.00000000000E+00 -0.00000000000E+00 -0.45593999997E+02  0.45594000000E+02  0.51100000000E-03 0. -1.
    9900012    2    1    2    0    0 -0.19213624942E+02  0.35274925871E+02  0.62994129611E+01  0.50528851186E+02  0.29999973664E+02 0.  0.
        -12    1    1    2    0    0  0.19213624942E+02 -0.35274925871E+02 -0.62994129611E+01  0.40659148814E+02  0.00000000000E+00 0.  1.
         11    1    3    3    0    0  0.10352476806E+01  0.71297033409E+01 -0.24439819373E+01  0.76077234084E+01  0.51100000000E-03 0. -1.
        -11    1    3    3    0    0 -0.22967109404E+01 -0.36515486411E+01  0.43785744263E+01  0.61465927871E+01  0.51100000000E-03 0.  1.
         12    1    3    3    0    0 -0.17952161682E+02  0.31796771172E+02  0.43648204720E+01  0.36774534990E+02  0.00000000000E+00 0. -1.
</event>
<event>
 7    1  0.5138511E-013  0.5052885E+02  0.7816164E-02  0.1300439E+00
        -11   -1    0    0    0    0  0.00000000000E+00  0.00000000000E+00  0.45593999997E+02  0.45594000000E+02  0.51100000000E-03 0.  1.
         11   -1    0    0    0    0 -0.00000000000E+00 -0.00000000000E+00 -0.45593999997E+02  0.45594000000E+02  0.51100000000E-03 0. -1.
    9900012    2    1    2    0    0 -0.38239717457E+02  0.10550054299E+02  0.89211478924E+01  0.50528849534E+02  0.29999968642E+02 0.  0.
        -12    1    1    2    0    0  0.38239717457E+02 -0.10550054299E+02 -0.89211478924E+01  0.40659150466E+02  0.00000000000E+00 0.  1.
         11    1    3    3    0    0 -0.16217154366E+02 -0.61104772166E+01  0.34259059312E+00  0.17333533861E+02  0.51100000000E-03 0. -1.
        -11    1    3    3    0    0  0.15888784545E+01 -0.71325413189E+00 -0.13940044795E+01  0.22308103796E+01  0.51100000000E-03 0.  1.
         12    1    3    3    0    0 -0.23611441546E+02  0.17373785647E+02  0.99725617789E+01  0.30964505293E+02  0.00000000000E+00 0. -1.
</event>
<event>
 7    1  0.5138511E-013  0.5052886E+02  0.7816164E-02  0.1300439E+00
        -11   -1    0    0    0    0  0.00000000000E+00  0.00000000000E+00  0.45593999997E+02  0.45594000000E+02  0.51100000000E-03 0. -1.
         11   -1    0    0    0    0 -0.00000000000E+00 -0.00000000000E+00 -0.45593999997E+02  0.45594000000E+02  0.51100000000E-03 0.  1.
    9900012    2    1    2    0    0 -0.21268908228E+02  0.93396276715E+00  0.34639965724E+02  0.50528856268E+02  0.29999989112E+02 0.  0.
        -12    1    1    2    0    0  0.21268908228E+02 -0.93396276715E+00 -0.34639965724E+02  0.40659143732E+02  0.00000000000E+00 0.  1.
         11    1    3    3    0    0 -0.94174015895E+01  0.36790042600E+01  0.81614309404E+01  0.12993516856E+02  0.51100000000E-03 0. -1.
        -11    1    3    3    0    0 -0.34085915307E+01  0.58436726621E+01  0.24391410940E+02  0.25312209195E+02  0.51100000000E-03 0.  1.
        -12    1    3    3    0    0 -0.84429151081E+01 -0.85887141550E+01  0.20871238431E+01  0.12223130217E+02  0.00000000000E+00 0.  1.
</event>
<event>
 7    1  0.5138511E-013  0.5052884E+02  0.7816164E-02  0.1300439E+00
        -11   -1    0    0    0    0  0.00000000000E+00  0.00000000000E+00  0.45593999997E+02  0.45594000000E+02  0.51100000000E-03 0. -1.
         11   -1    0    0    0    0 -0.00000000000E+00 -0.00000000000E+00 -0.45593999997E+02  0.45594000000E+02  0.51100000000E-03 0.  1.
    9900012    2    1    2    0    0  0.13831956134E+02 -0.23391134465E+02  0.30243990325E+02  0.50528841956E+02  0.29999945610E+02 0.  0.
        -12    1    1    2    0    0 -0.13831956134E+02  0.23391134465E+02 -0.30243990325E+02  0.40659158044E+02  0.00000000000E+00 0.  1.
         11    1    3    3    0    0 -0.60041513007E+00 -0.86470949063E+01  0.11771531684E+01  0.87474818371E+01  0.51100000000E-03 0. -1.
        -11    1    3    3    0    0  0.10380898476E+02 -0.14491062601E+02  0.66906260865E+01  0.19039916653E+02  0.51100000000E-03 0.  1.
         12    1    3    3    0    0  0.40514727882E+01 -0.25297695839E+00  0.22376211070E+02  0.22741443466E+02  0.00000000000E+00 0. -1.
</event>
<event>
 7    1  0.5138511E-013  0.5052886E+02  0.7816164E-02  0.1300439E+00
        -11   -1    0    0    0    0  0.00000000000E+00  0.00000000000E+00  0.45593999997E+02  0.45594000000E+02  0.51100000000E-03 0. -1.
         11   -1    0    0    0    0 -0.00000000000E+00 -0.00000000000E+00 -0.45593999997E+02  0.45594000000E+02  0.51100000000E-03 0.  1.
    9900012    2    1    2    0    0 -0.26741866421E+02 -0.29743054326E+02  0.73067935267E+01  0.50528856724E+02  0.29999990497E+02 0.  0.
        -12    1    1    2    0    0  0.26741866421E+02  0.29743054326E+02 -0.73067935267E+01  0.40659143276E+02  0.00000000000E+00 0.  1.
         11    1    3    3    0    0 -0.14076855614E+02 -0.18892547047E+01  0.95872963424E+01  0.17136026340E+02  0.51100000000E-03 0. -1.
        -11    1    3    3    0    0  0.83448536472E+00 -0.68097547077E+01  0.35434097386E+01  0.77217146955E+01  0.51100000000E-03 0.  1.
        -12    1    3    3    0    0 -0.13499496172E+02 -0.21044044913E+02 -0.58239125543E+01  0.25671115688E+02  0.00000000000E+00 0.  1.
</event>
<event>
 7    1  0.5138511E-013  0.5052886E+02  0.7816164E-02  0.1300439E+00
        -11   -1    0    0    0    0  0.00000000000E+00  0.00000000000E+00  0.45593999997E+02  0.45594000000E+02  0.51100000000E-03 0.  1.
         11   -1    0    0    0    0 -0.00000000000E+00 -0.00000000000E+00 -0.45593999997E+02  0.45594000000E+02  0.51100000000E-03 0. -1.
    9900012    2    1    2    0    0  0.47388993598E+01 -0.37025426085E+02 -0.16119132382E+02  0.50528858683E+02  0.29999996451E+02 0.  0.
        -12    1    1    2    0    0 -0.47388993598E+01  0.37025426085E+02  0.16119132382E+02  0.40659141317E+02  0.00000000000E+00 0.  1.
         11    1    3    3    0    0  0.11667252097E+01 -0.78806877989E+01 -0.12119659696E+02  0.14503538854E+02  0.51100000000E-03 0. -1.
        -11    1    3    3    0    0 -0.68983439498E+01 -0.27911535537E+01 -0.10385502985E+01  0.75137390422E+01  0.51100000000E-03 0.  1.
         12    1    3    3    0    0  0.10470518100E+02 -0.26353584733E+02 -0.29609223877E+01  0.28511580786E+02  0.00000000000E+00 0. -1.
</event>
<event>
 7    1  0.5138511E-013  0.5052886E+02  0.7816164E-02  0.1300439E+00
        -11   -1    0    0    0    0  0.00000000000E+00  0.00000000000E+00  0.45593999997E+02  0.45594000000E+02  0.51100000000E-03 0.  1.
         11   -1    0    0    0    0 -0.00000000000E+00 -0.00000000000E+00 -0.45593999997E+02  0.45594000000E+02  0.51100000000E-03 0. -1.
    9900012    2    1    2    0    0 -0.33010374067E+02  0.23591741325E+02 -0.26287515874E+01  0.50528863392E+02  0.30000010767E+02 0.  0.
        -12    1    1    2    0    0  0.33010374067E+02 -0.23591741325E+02  0.26287515874E+01  0.40659136608E+02  0.00000000000E+00 0.  1.
         11    1    3    3    0    0 -0.17755560930E+02  0.12639932556E+01 -0.48479169320E+01  0.18448846082E+02  0.51100000000E-03 0. -1.
        -11    1    3    3    0    0 -0.18564390404E+02  0.14671411179E+02  0.16916249945E+01  0.23722320553E+02  0.51100000000E-03 0.  1.
        -12    1    3    3    0    0  0.33095772673E+01  0.76563368909E+01  0.52754035014E+00  0.83576967578E+01  0.00000000000E+00 0.  1.
</event>
<event>
 7    1  0.5138511E-013  0.5052886E+02  0.7816164E-02  0.1300439E+00
        -11   -1    0    0    0    0  0.00000000000E+00  0.00000000000E+00  0.45593999997E+02  0.45594000000E+02  0.51100000000E-03 0.  1.
         11   -1    0    0    0    0 -0.00000000000E+00 -0.00000000000E+00 -0.45593999997E+02  0.45594000000E+02  0.51100000000E-03 0. -1.
    9900012    2    1    2    0    0 -0.29246958843E+02  0.28152905005E+02 -0.22793174983E+01  0.50528856501E+02  0.29999989822E+02 0.  0.
        -12    1    1    2    0    0  0.29246958843E+02 -0.28152905005E+02  0.22793174983E+01  0.40659143499E+02  0.00000000000E+00 0.  1.
         11    1    3    3    0    0 -0.44717945758E+01  0.80042471141E+01  0.84804052743E+01  0.12489283105E+02  0.51100000000E-03 0. -1.
        -11    1    3    3    0    0 -0.58260238032E+01  0.15678288930E+02 -0.25877727126E+01  0.16924770751E+02  0.51100000000E-03 0.  1.
        -12    1    3    3    0    0 -0.18949140464E+02  0.44703689617E+01 -0.81719500601E+01  0.21114802645E+02  0.00000000000E+00 0.  1.
</event>
<event>
 7    1  0.5138511E-013  0.5052887E+02  0.7816164E-02  0.1300439E+00
        -11   -1    0    0    0    0  0.00000000000E+00  0.00000000000E+00  0.45593999997E+02  0.45594000000E+02  0.51100000000E-03 0. -1.
         11   -1    0    0    0    0 -0.00000000000E+00 -0.00000000000E+00 -0.45593999997E+02  0.45594000000E+02  0.51100000000E-03 0.  1.
    9900012    2    1    2    0    0 -0.24501752202E+01 -0.23431684484E+02  0.33137864007E+02  0.50528865389E+02  0.30000016837E+02 0.  0.
        -12    1    1    2    0    0  0.24501752202E+01  0.23431684484E+02 -0.33137864007E+02  0.40659134611E+02  0.00000000000E+00 0.  1.
         11    1    3    3    0    0 -0.12342848464E+02 -0.11614911511E+02  0.95664045591E+01  0.19461967374E+02  0.51100000000E-03 0. -1.
        -11    1    3    3    0    0  0.35505013482E+01 -0.12688265177E+02  0.11895467658E+02  0.17751064309E+02  0.51100000000E-03 0.  1.
        -12    1    3    3    0    0  0.63421718959E+01  0.87149220461E+00  0.11675991789E+02  0.13315833706E+02  0.00000000000E+00 0.  1.
</event>
<event>
 7    1  0.5138511E-013  0.5052886E+02  0.7816164E-02  0.1300439E+00
        -11   -1    0    0    0    0  0.00000000000E+00  0.00000000000E+00  0.45593999997E+02  0.45594000000E+02  0.51100000000E-03 0. -1.
         11   -1    0    0    0    0 -0.00000000000E+00 -0.00000000000E+00 -0.45593999997E+02  0.45594000000E+02  0.51100000000E-03 0.  1.
    9900012    2    1    2    0    0  0.75929700273E+00 -0.31336754192E+02  0.25895885367E+02  0.50528861124E+02  0.30000003873E+02 0.  0.
        -12    1    1    2    0    0 -0.75929700273E+00  0.31336754192E+02 -0.25895885367E+02  0.40659138876E+02  0.00000000000E+00 0.  1.
         11    1    3    3    0    0 -0.93363913759E+01 -0.15529997771E+02  0.19176518646E+02  0.26383477829E+02  0.51100000000E-03 0. -1.
        -11    1    3    3    0    0  0.61132105968E+01 -0.15251493635E+00  0.50042314135E+01  0.79017046837E+01  0.51100000000E-03 0.  1.
        -12    1    3    3    0    0  0.39824777818E+01 -0.15654241484E+02  0.17151353075E+01  0.16243678612E+02  0.00000000000E+00 0.  1.
</event>
<event>
 7    1  0.5138511E-013  0.5052886E+02  0.7816164E-02  0.1300439E+00
        -11   -1    0    0    0    0  0.00000000000E+00  0.00000000000E+00  0.45593999997E+02  0.45594000000E+02  0.51100000000E-03 0. -1.
         11   -1    0    0    0    0 -0.00000000000E+00 -0.00000000000E+00 -0.45593999997E+02  0.45594000000E+02  0.51100000000E-03 0.  1.
    9900012    2    1    2    0    0 -0.95036418678E+01  0.29323779810E+02  0.26513434774E+02  0.50528862103E+02  0.30000006847E+02 0.  0.
        -12    1    1    2    0    0  0.95036418678E+01 -0.29323779810E+02 -0.26513434774E+02  0.40659137897E+02  0.00000000000E+00 0.  1.
         11    1    3    3    0    0  0.77044740477E+01  0.18763526493E+02  0.20270862122E+02  0.28676413622E+02  0.51100000000E-03 0. -1.
        -11    1    3    3    0    0 -0.44055879613E+01  0.17452654233E+01 -0.76858741172E+00  0.48006128310E+01  0.51100000000E-03 0.  1.
        -12    1    3    3    0    0 -0.12802527954E+02  0.88149878934E+01  0.70111600630E+01  0.17051835649E+02  0.00000000000E+00 0.  1.
</event>
<event>
 7    1  0.5138511E-013  0.5052887E+02  0.7816164E-02  0.1300439E+00
        -11   -1    0    0    0    0  0.00000000000E+00  0.00000000000E+00  0.45593999997E+02  0.45594000000E+02  0.51100000000E-03 0. -1.
         11   -1    0    0    0    0 -0.00000000000E+00 -0.00000000000E+00 -0.45593999997E+02  0.45594000000E+02  0.51100000000E-03 0.  1.
    9900012    2    1    2    0    0  0.40170626036E+02 -0.19108113804E+00  0.62808350651E+01  0.50528873137E+02  0.30000040388E+02 0.  0.
        -12    1    1    2    0    0 -0.40170626036E+02  0.19108113804E+00 -0.62808350651E+01  0.40659126863E+02  0.00000000000E+00 0.  1.
         11    1    3    3    0    0  0.13470055704E+02  0.24933256252E+01  0.10229974981E+02  0.17097118521E+02  0.51100000000E-03 0. -1.
        -11    1    3    3    0    0 -0.26519412713E+01  0.99733691814E+00  0.17149490092E+01  0.33118761752E+01  0.51100000000E-03 0.  1.
        -12    1    3    3    0    0  0.29352511603E+02 -0.36817436814E+01 -0.56640889255E+01  0.30119878441E+02  0.00000000000E+00 0.  1.
</event>
<event>
 7    1  0.5138511E-013  0.5052886E+02  0.7816164E-02  0.1300439E+00
        -11   -1    0    0    0    0  0.00000000000E+00  0.00000000000E+00  0.45593999997E+02  0.45594000000E+02  0.51100000000E-03 0. -1.
         11   -1    0    0    0    0 -0.00000000000E+00 -0.00000000000E+00 -0.45593999997E+02  0.45594000000E+02  0.51100000000E-03 0.  1.
    9900012    2    1    2    0    0 -0.12921898730E+02 -0.13732987521E+02  0.36022148017E+02  0.50528861288E+02  0.30000004370E+02 0.  0.
        -12    1    1    2    0    0  0.12921898730E+02  0.13732987521E+02 -0.36022148017E+02  0.40659138712E+02  0.00000000000E+00 0.  1.
         11    1    3    3    0    0 -0.10045121090E+02 -0.14934563633E+02  0.15592210321E+02  0.23813077743E+02  0.51100000000E-03 0. -1.
        -11    1    3    3    0    0 -0.82438128647E+01 -0.24153345262E+01  0.17733332567E+02  0.19704450655E+02  0.51100000000E-03 0.  1.
         12    1    3    3    0    0  0.53670352247E+01  0.36169106382E+01  0.26966051291E+01  0.70113328897E+01  0.00000000000E+00 0. -1.
</event>
<event>
 7    1  0.5138511E-013  0.5052886E+02  0.7816164E-02  0.1300439E+00
        -11   -1    0    0    0    0  0.00000000000E+00  0.00000000000E+00  0.45593999997E+02  0.45594000000E+02  0.51100000000E-03 0.  1.
         11   -1    0    0    0    0 -0.00000000000E+00 -0.00000000000E+00 -0.45593999997E+02  0.45594000000E+02  0.51100000000E-03 0. -1.
    9900012    2    1    2    0    0  0.10236006059E+02 -0.26701813130E+02  0.28903342139E+02  0.50528857962E+02  0.29999994262E+02 0.  0.
        -12    1    1    2    0    0 -0.10236006059E+02  0.26701813130E+02 -0.28903342139E+02  0.40659142038E+02  0.00000000000E+00 0.  1.
         11    1    3    3    0    0  0.76089241976E+01 -0.10157213859E+02  0.46591389862E+01  0.13519330500E+02  0.51100000000E-03 0. -1.
        -11    1    3    3    0    0  0.11037776728E+02 -0.21769519681E+01  0.11016064690E+02  0.15745644365E+02  0.51100000000E-03 0.  1.
        -12    1    3    3    0    0 -0.84106948670E+01 -0.14367647303E+02  0.13228138463E+02  0.21263883097E+02  0.00000000000E+00 0.  1.
</event>
<event>
 7    1  0.5138511E-013  0.5052887E+02  0.7816164E-02  0.1300439E+00
        -11   -1    0    0    0    0  0.00000000000E+00  0.00000000000E+00  0.45593999997E+02  0.45594000000E+02  0.51100000000E-03 0. -1.
         11   -1    0    0    0    0 -0.00000000000E+00 -0.00000000000E+00 -0.45593999997E+02  0.45594000000E+02  0.51100000000E-03 0.  1.
    9900012    2    1    2    0    0  0.14772123788E+02  0.31779128815E+02  0.20616413462E+02  0.50528866051E+02  0.30000018848E+02 0.  0.
        -12    1    1    2    0    0 -0.14772123788E+02 -0.31779128815E+02 -0.20616413462E+02  0.40659133949E+02  0.00000000000E+00 0.  1.
         11    1    3    3    0    0  0.24480015775E+01 -0.10274708491E+01  0.44930003191E+01  0.52187604082E+01  0.51100000000E-03 0. -1.
        -11    1    3    3    0    0 -0.45079895938E+00 -0.30598759504E+01 -0.14029138878E+01  0.33962079105E+01  0.51100000000E-03 0.  1.
        -12    1    3    3    0    0  0.12774921170E+02  0.35866475614E+02  0.17526327031E+02  0.41913897732E+02  0.00000000000E+00 0.  1.
</event>
<event>
 7    1  0.5138511E-013  0.5052886E+02  0.7816164E-02  0.1300439E+00
        -11   -1    0    0    0    0  0.00000000000E+00  0.00000000000E+00  0.45593999997E+02  0.45594000000E+02  0.51100000000E-03 0.  1.
         11   -1    0    0    0    0 -0.00000000000E+00 -0.00000000000E+00 -0.45593999997E+02  0.45594000000E+02  0.51100000000E-03 0. -1.
    9900012    2    1    2    0    0 -0.91000979835E+01 -0.26033391006E+01 -0.39542085043E+02  0.50528860224E+02  0.30000001138E+02 0.  0.
        -12    1    1    2    0    0  0.91000979835E+01  0.26033391006E+01  0.39542085043E+02  0.40659139776E+02  0.00000000000E+00 0.  1.
         11    1    3    3    0    0 -0.61488279852E+01  0.63361695890E+00  0.30311871605E+00  0.61888154973E+01  0.51100000000E-03 0. -1.
        -11    1    3    3    0    0  0.45422328057E+01 -0.31255082661E+01 -0.21677972795E+01  0.59245274992E+01  0.51100000000E-03 0.  1.
         12    1    3    3    0    0 -0.74935028040E+01 -0.11144779335E+00 -0.37677406479E+02  0.38415517228E+02  0.00000000000E+00 0. -1.
</event>
<event>
 7    1  0.5138511E-013  0.5052887E+02  0.7816164E-02  0.1300439E+00
        -11   -1    0    0    0    0  0.00000000000E+00  0.00000000000E+00  0.45593999997E+02  0.45594000000E+02  0.51100000000E-03 0.  1.
         11   -1    0    0    0    0 -0.00000000000E+00 -0.00000000000E+00 -0.45593999997E+02  0.45594000000E+02  0.51100000000E-03 0. -1.
    9900012    2    1    2    0    0  0.96404867615E+01 -0.30260769398E+02 -0.25387241959E+02  0.50528865678E+02  0.30000017714E+02 0.  0.
        -12    1    1    2    0    0 -0.96404867615E+01  0.30260769398E+02  0.25387241959E+02  0.40659134322E+02  0.00000000000E+00 0.  1.
         11    1    3    3    0    0  0.14065405940E+02 -0.22253976393E+02 -0.80576443979E+01  0.27531813290E+02  0.51100000000E-03 0. -1.
        -11    1    3    3    0    0  0.82535932015E+00  0.93697209483E+00 -0.10512064321E+02  0.10585963879E+02  0.51100000000E-03 0.  1.
        -12    1    3    3    0    0 -0.52502784982E+01 -0.89437651001E+01 -0.68175332407E+01  0.12411088508E+02  0.00000000000E+00 0.  1.
</event>
<event>
 7    1  0.5138511E-013  0.5052885E+02  0.7816164E-02  0.1300439E+00
        -11   -1    0    0    0    0  0.00000000000E+00  0.00000000000E+00  0.45593999997E+02  0.45594000000E+02  0.51100000000E-03 0.  1.
         11   -1    0    0    0    0 -0.00000000000E+00 -0.00000000000E+00 -0.45593999997E+02  0.45594000000E+02  0.51100000000E-03 0. -1.
    9900012    2    1    2    0    0  0.15834702997E+02 -0.17619851744E+02 -0.33044965811E+02  0.50528846542E+02  0.29999959550E+02 0.  0.
        -12    1    1    2    0    0 -0.15834702997E+02  0.17619851744E+02  0.33044965811E+02  0.40659153458E+02  0.00000000000E+00 0.  1.
         11    1    3    3    0    0  0.10117286416E+02 -0.19447455349E+02 -0.22544086764E+02  0.31445172161E+02  0.51100000000E-03 0. -1.
        -11    1    3    3    0    0  0.20393916508E+01 -0.64644108118E+01 -0.35238786688E+01  0.76397281747E+01  0.51100000000E-03 0.  1.
         12    1    3    3    0    0  0.36780249294E+01  0.82920144176E+01 -0.69770003787E+01  0.11443946206E+02  0.00000000000E+00 0. -1.
</event>
<event>
 7    1  0.5138511E-013  0.5052884E+02  0.7816164E-02  0.1300439E+00
        -11   -1    0    0    0    0  0.00000000000E+00  0.00000000000E+00  0.45593999997E+02  0.45594000000E+02  0.51100000000E-03 0. -1.
         11   -1    0    0    0    0 -0.00000000000E+00 -0.00000000000E+00 -0.45593999997E+02  0.45594000000E+02  0.51100000000E-03 0.  1.
    9900012    2    1    2    0    0 -0.13344252385E+02  0.25007193683E+02  0.29150268066E+02  0.50528844378E+02  0.29999952970E+02 0.  0.
        -12    1    1    2    0    0  0.13344252385E+02 -0.25007193683E+02 -0.29150268066E+02  0.40659155622E+02  0.00000000000E+00 0.  1.
         11    1    3    3    0    0 -0.13532147928E+02  0.93067063582E+01  0.21300228676E+02  0.26896720110E+02  0.51100000000E-03 0. -1.
        -11    1    3    3    0    0 -0.20451165729E+01  0.16656917897E+01  0.89959669720E+01  0.93746708186E+01  0.51100000000E-03 0.  1.
        -12    1    3    3    0    0  0.22330121150E+01  0.14034795535E+02 -0.11459275824E+01  0.14257453449E+02  0.00000000000E+00 0.  1.
</event>
<event>
 7    1  0.5138511E-013  0.5052893E+02  0.7816164E-02  0.1300439E+00
        -11   -1    0    0    0    0  0.00000000000E+00  0.00000000000E+00  0.45593999997E+02  0.45594000000E+02  0.51100000000E-03 0.  1.
         11   -1    0    0    0    0 -0.00000000000E+00 -0.00000000000E+00 -0.45593999997E+02  0.45594000000E+02  0.51100000000E-03 0. -1.
    9900012    2    1    2    0    0  0.26429395242E+02  0.21499547656E+02 -0.22190465268E+02  0.50528926830E+02  0.30000203591E+02 0.  0.
        -12    1    1    2    0    0 -0.26429395242E+02 -0.21499547656E+02  0.22190465268E+02  0.40659073170E+02  0.00000000000E+00 0.  1.
         11    1    3    3    0    0  0.12150156868E+02 -0.18786539137E+01 -0.67081236457E+01  0.14005519467E+02  0.51100000000E-03 0. -1.
        -11    1    3    3    0    0  0.10106143144E+02  0.12145952640E+02 -0.18337198241E+02  0.24205601301E+02  0.51100000000E-03 0.  1.
         12    1    3    3    0    0  0.41730952303E+01  0.11232248930E+02  0.28548566194E+01  0.12317806061E+02  0.00000000000E+00 0. -1.
</event>
<event>
 7    1  0.5138511E-013  0.5052884E+02  0.7816164E-02  0.1300439E+00
        -11   -1    0    0    0    0  0.00000000000E+00  0.00000000000E+00  0.45593999997E+02  0.45594000000E+02  0.51100000000E-03 0. -1.
         11   -1    0    0    0    0 -0.00000000000E+00 -0.00000000000E+00 -0.45593999997E+02  0.45594000000E+02  0.51100000000E-03 0.  1.
    9900012    2    1    2    0    0 -0.58927496504E+01  0.38313778653E+02  0.12267741984E+02  0.50528835885E+02  0.29999927157E+02 0.  0.
        -12    1    1    2    0    0  0.58927496504E+01 -0.38313778653E+02 -0.12267741984E+02  0.40659164115E+02  0.00000000000E+00 0.  1.
         11    1    3    3    0    0  0.51871835146E+01  0.79210897476E+01  0.37551381432E+01  0.10185852853E+02  0.51100000000E-03 0. -1.
        -11    1    3    3    0    0 -0.28557044181E+01  0.30817611991E+01  0.10938510168E+02  0.11717649285E+02  0.51100000000E-03 0.  1.
         12    1    3    3    0    0 -0.82242287469E+01  0.27310927706E+02 -0.24259063264E+01  0.28625333748E+02  0.00000000000E+00 0. -1.
</event>
<event>
 7    1  0.5138511E-013  0.5052886E+02  0.7816164E-02  0.1300439E+00
        -11   -1    0    0    0    0  0.00000000000E+00  0.00000000000E+00  0.45593999997E+02  0.45594000000E+02  0.51100000000E-03 0.  1.
         11   -1    0    0    0    0 -0.00000000000E+00 -0.00000000000E+00 -0.45593999997E+02  0.45594000000E+02  0.51100000000E-03 0. -1.
    9900012    2    1    2    0    0 -0.36341209678E+02  0.14680270212E+01  0.18174909500E+02  0.50528856384E+02  0.29999989466E+02 0.  0.
        -12    1    1    2    0    0  0.36341209678E+02 -0.14680270212E+01 -0.18174909500E+02  0.40659143616E+02  0.00000000000E+00 0.  1.
         11    1    3    3    0    0 -0.36115435364E+02  0.18292823373E+01  0.14302215753E+02  0.38887328541E+02  0.51100000000E-03 0. -1.
        -11    1    3    3    0    0 -0.41898451409E+01 -0.16657943701E+01 -0.15777382508E+01  0.47769165199E+01  0.51100000000E-03 0.  1.
        -12    1    3    3    0    0  0.39640708263E+01  0.13045390540E+01  0.54504319975E+01  0.68646113231E+01  0.00000000000E+00 0.  1.
</event>
<event>
 7    1  0.5138511E-013  0.5052884E+02  0.7816164E-02  0.1300439E+00
        -11   -1    0    0    0    0  0.00000000000E+00  0.00000000000E+00  0.45593999997E+02  0.45594000000E+02  0.51100000000E-03 0.  1.
         11   -1    0    0    0    0 -0.00000000000E+00 -0.00000000000E+00 -0.45593999997E+02  0.45594000000E+02  0.51100000000E-03 0. -1.
    9900012    2    1    2    0    0 -0.21844180105E+02  0.33213592978E+02 -0.85355703759E+01  0.50528844517E+02  0.29999953394E+02 0.  0.
        -12    1    1    2    0    0  0.21844180105E+02 -0.33213592978E+02  0.85355703759E+01  0.40659155483E+02  0.00000000000E+00 0.  1.
         11    1    3    3    0    0 -0.10297366944E+02  0.16868653008E+02 -0.16734422415E+02  0.25896488451E+02  0.51100000000E-03 0. -1.
        -11    1    3    3    0    0 -0.11051005090E+02  0.16265960464E+02  0.35821635347E+01  0.19988448643E+02  0.51100000000E-03 0.  1.
        -12    1    3    3    0    0 -0.49580807079E+00  0.78979505959E-01  0.46166885042E+01  0.46439074227E+01  0.00000000000E+00 0.  1.
</event>
<event>
 7    1  0.5275701E-013  0.5052890E+02  0.7816164E-02  0.1300439E+00
        -11   -1    0    0    0    0  0.00000000000E+00  0.00000000000E+00  0.45593999997E+02  0.45594000000E+02  0.51100000000E-03 0. -1.
         11   -1    0    0    0    0 -0.00000000000E+00 -0.00000000000E+00 -0.45593999997E+02  0.45594000000E+02  0.51100000000E-03 0.  1.
    9900012    2    1    2    0    0  0.26073538944E+02 -0.22680317116E+02  0.21422796462E+02  0.50528899840E+02  0.30000121554E+02 0.  0.
        -12    1    1    2    0    0 -0.26073538944E+02  0.22680317116E+02 -0.21422796462E+02  0.40659100160E+02  0.00000000000E+00 0.  1.
         11    1    3    3    0    0  0.13119404709E+02 -0.58310508737E+01  0.93409373494E+01  0.17128136065E+02  0.51100000000E-03 0. -1.
        -11    1    3    3    0    0 -0.19383921550E-01  0.50168049327E+01  0.48243391427E+01  0.69600974055E+01  0.51100000000E-03 0.  1.
        -12    1    3    3    0    0  0.12973518156E+02 -0.21866071175E+02  0.72575199702E+01  0.26440666370E+02  0.00000000000E+00 0.  1.
</event>
<event>
 7    1  0.5138511E-013  0.5052886E+02  0.7816164E-02  0.1300439E+00
        -11   -1    0    0    0    0  0.00000000000E+00  0.00000000000E+00  0.45593999997E+02  0.45594000000E+02  0.51100000000E-03 0. -1.
         11   -1    0    0    0    0 -0.00000000000E+00 -0.00000000000E+00 -0.45593999997E+02  0.45594000000E+02  0.51100000000E-03 0.  1.
    9900012    2    1    2    0    0  0.45219875203E+01 -0.14412278051E+02  0.37749222112E+02  0.50528857119E+02  0.29999991698E+02 0.  0.
        -12    1    1    2    0    0 -0.45219875203E+01  0.14412278051E+02 -0.37749222112E+02  0.40659142881E+02  0.00000000000E+00 0.  1.
         11    1    3    3    0    0  0.60471574930E+00 -0.83599682621E+01  0.15408025986E+02  0.17540296906E+02  0.51100000000E-03 0. -1.
        -11    1    3    3    0    0  0.80041724636E+01  0.61818211558E+01  0.15165048537E+02  0.18228011055E+02  0.51100000000E-03 0.  1.
         12    1    3    3    0    0 -0.40869006926E+01 -0.12234130944E+02  0.71761475892E+01  0.14760549158E+02  0.00000000000E+00 0. -1.
</event>
<event>
 7    1  0.5138511E-013  0.5052886E+02  0.7816164E-02  0.1300439E+00
        -11   -1    0    0    0    0  0.00000000000E+00  0.00000000000E+00  0.45593999997E+02  0.45594000000E+02  0.51100000000E-03 0.  1.
         11   -1    0    0    0    0 -0.00000000000E+00 -0.00000000000E+00 -0.45593999997E+02  0.45594000000E+02  0.51100000000E-03 0. -1.
    9900012    2    1    2    0    0 -0.28919905219E+02  0.12642559806E+01 -0.28551817688E+02  0.50528861367E+02  0.30000004612E+02 0.  0.
        -12    1    1    2    0    0  0.28919905219E+02 -0.12642559806E+01  0.28551817688E+02  0.40659138633E+02  0.00000000000E+00 0.  1.
         11    1    3    3    0    0 -0.14370512723E+02  0.45443107462E+01 -0.27084015429E+02  0.30995262349E+02  0.51100000000E-03 0.  1.
        -11    1    3    3    0    0 -0.83558848150E+01 -0.69784700023E+01 -0.44059689248E+01  0.11744463250E+02  0.51100000000E-03 0. -1.
        -12    1    3    3    0    0 -0.61935076807E+01  0.36984152367E+01  0.29381666653E+01  0.77891357676E+01  0.00000000000E+00 0.  1.
</event>
<event>
 7    1  0.5138511E-013  0.5052885E+02  0.7816164E-02  0.1300439E+00
        -11   -1    0    0    0    0  0.00000000000E+00  0.00000000000E+00  0.45593999997E+02  0.45594000000E+02  0.51100000000E-03 0.  1.
         11   -1    0    0    0    0 -0.00000000000E+00 -0.00000000000E+00 -0.45593999997E+02  0.45594000000E+02  0.51100000000E-03 0. -1.
    9900012    2    1    2    0    0  0.30783531325E+02  0.10101573018E+02 -0.24566216502E+02  0.50528848859E+02  0.29999966591E+02 0.  0.
        -12    1    1    2    0    0 -0.30783531325E+02 -0.10101573018E+02  0.24566216502E+02  0.40659151141E+02  0.00000000000E+00 0.  1.
         11    1    3    3    0    0  0.99216600375E+01  0.21554545742E+01 -0.16875650559E+02  0.19694489188E+02  0.51100000000E-03 0. -1.
        -11    1    3    3    0    0  0.21519887348E+02 -0.12803117436E+00 -0.72975548764E+01  0.22723913635E+02  0.51100000000E-03 0.  1.
         12    1    3    3    0    0 -0.65801606022E+00  0.80741496186E+01 -0.39301106592E+00  0.81104460356E+01  0.00000000000E+00 0. -1.
</event>
<event>
 7    1  0.5138511E-013  0.5052885E+02  0.7816164E-02  0.1300439E+00
        -11   -1    0    0    0    0  0.00000000000E+00  0.00000000000E+00  0.45593999997E+02  0.45594000000E+02  0.51100000000E-03 0.  1.
         11   -1    0    0    0    0 -0.00000000000E+00 -0.00000000000E+00 -0.45593999997E+02  0.45594000000E+02  0.51100000000E-03 0. -1.
    9900012    2    1    2    0    0 -0.22672399923E+02 -0.17277735281E+02 -0.28993245271E+02  0.50528854337E+02  0.29999983242E+02 0.  0.
        -12    1    1    2    0    0  0.22672399923E+02  0.17277735281E+02  0.28993245271E+02  0.40659145663E+02  0.00000000000E+00 0.  1.
         11    1    3    3    0    0 -0.14989735318E+02 -0.18357350957E+01 -0.71653575310E+01  0.16715395211E+02  0.51100000000E-03 0. -1.
        -11    1    3    3    0    0 -0.22167443928E+01 -0.34844087266E+01 -0.20138673884E+02  0.20557753913E+02  0.51100000000E-03 0.  1.
        -12    1    3    3    0    0 -0.54659202123E+01 -0.11957591458E+02 -0.16892138563E+01  0.13255705213E+02  0.00000000000E+00 0.  1.
</event>
<event>
 7    1  0.5138511E-013  0.5052887E+02  0.7816164E-02  0.1300439E+00
        -11   -1    0    0    0    0  0.00000000000E+00  0.00000000000E+00  0.45593999997E+02  0.45594000000E+02  0.51100000000E-03 0. -1.
         11   -1    0    0    0    0 -0.00000000000E+00 -0.00000000000E+00 -0.45593999997E+02  0.45594000000E+02  0.51100000000E-03 0.  1.
    9900012    2    1    2    0    0 -0.24946826590E+02  0.71826904954E+01  0.31292647712E+02  0.50528868179E+02  0.30000025316E+02 0.  0.
        -12    1    1    2    0    0  0.24946826590E+02 -0.71826904954E+01 -0.31292647712E+02  0.40659131821E+02  0.00000000000E+00 0.  1.
         11    1    3    3    0    0 -0.92202915509E+01  0.30519314924E+01  0.25021456380E+02  0.26840293250E+02  0.51100000000E-03 0. -1.
        -11    1    3    3    0    0  0.13492747901E+01  0.55340953788E+01  0.12101261671E+01  0.58233289210E+01  0.51100000000E-03 0.  1.
        -12    1    3    3    0    0 -0.17075809829E+02 -0.14033363758E+01  0.50610651642E+01  0.17865246007E+02  0.00000000000E+00 0.  1.
</event>
<event>
 7    1  0.5138511E-013  0.5052886E+02  0.7816164E-02  0.1300439E+00
        -11   -1    0    0    0    0  0.00000000000E+00  0.00000000000E+00  0.45593999997E+02  0.45594000000E+02  0.51100000000E-03 0. -1.
         11   -1    0    0    0    0 -0.00000000000E+00 -0.00000000000E+00 -0.45593999997E+02  0.45594000000E+02  0.51100000000E-03 0.  1.
    9900012    2    1    2    0    0  0.29727519019E+02  0.23342274778E+02  0.14985946499E+02  0.50528858699E+02  0.29999996503E+02 0.  0.
        -12    1    1    2    0    0 -0.29727519019E+02 -0.23342274778E+02 -0.14985946499E+02  0.40659141301E+02  0.00000000000E+00 0.  1.
         11    1    3    3    0    0 -0.32602860184E+01  0.23202584160E+01  0.91583094056E+01  0.99943831960E+01  0.51100000000E-03 0. -1.
        -11    1    3    3    0    0  0.40109578553E+01  0.51798591009E-01 -0.96659124723E+00  0.41261077193E+01  0.51100000000E-03 0.  1.
         12    1    3    3    0    0  0.28976847182E+02  0.20970217771E+02  0.67942283408E+01  0.36408367784E+02  0.00000000000E+00 0. -1.
</event>
<event>
 7    1  0.5138511E-013  0.5052885E+02  0.7816164E-02  0.1300439E+00
        -11   -1    0    0    0    0  0.00000000000E+00  0.00000000000E+00  0.45593999997E+02  0.45594000000E+02  0.51100000000E-03 0.  1.
         11   -1    0    0    0    0 -0.00000000000E+00 -0.00000000000E+00 -0.45593999997E+02  0.45594000000E+02  0.51100000000E-03 0. -1.
    9900012    2    1    2    0    0  0.23099510721E+02  0.43688475609E+01 -0.33173670123E+02  0.50528848336E+02  0.29999965004E+02 0.  0.
        -12    1    1    2    0    0 -0.23099510721E+02 -0.43688475609E+01  0.33173670123E+02  0.40659151664E+02  0.00000000000E+00 0.  1.
         11    1    3    3    0    0  0.10153643742E+02  0.57613725655E+01 -0.78836768625E+01  0.14086953404E+02  0.51100000000E-03 0. -1.
        -11    1    3    3    0    0  0.14452650239E+02 -0.90397798697E+00 -0.28996384779E+02  0.32411211111E+02  0.51100000000E-03 0.  1.
        -12    1    3    3    0    0 -0.15067832597E+01 -0.48854701764E+00  0.37063915188E+01  0.40306838217E+01  0.00000000000E+00 0.  1.
</event>
<event>
 7    1  0.5138511E-013  0.5052887E+02  0.7816164E-02  0.1300439E+00
        -11   -1    0    0    0    0  0.00000000000E+00  0.00000000000E+00  0.45593999997E+02  0.45594000000E+02  0.51100000000E-03 0.  1.
         11   -1    0    0    0    0 -0.00000000000E+00 -0.00000000000E+00 -0.45593999997E+02  0.45594000000E+02  0.51100000000E-03 0. -1.
    9900012    2    1    2    0    0  0.24057661889E+02  0.15059184584E+02 -0.29113823782E+02  0.50528869769E+02  0.30000030150E+02 0.  0.
        -12    1    1    2    0    0 -0.24057661889E+02 -0.15059184584E+02  0.29113823782E+02  0.40659130231E+02  0.00000000000E+00 0.  1.
         11    1    3    3    0    0  0.75907397207E+01 -0.75971568084E+01 -0.88610535703E+01  0.13923160263E+02  0.51100000000E-03 0. -1.
        -11    1    3    3    0    0  0.16304503851E+02  0.13507285195E+02 -0.15867567896E+02  0.26458709537E+02  0.51100000000E-03 0.  1.
        -12    1    3    3    0    0  0.16241831704E+00  0.91490561970E+01 -0.43852023163E+01  0.10146999968E+02  0.00000000000E+00 0.  1.
</event>
<event>
 7    1  0.5138511E-013  0.5052888E+02  0.7816164E-02  0.1300439E+00
        -11   -1    0    0    0    0  0.00000000000E+00  0.00000000000E+00  0.45593999997E+02  0.45594000000E+02  0.51100000000E-03 0. -1.
         11   -1    0    0    0    0 -0.00000000000E+00 -0.00000000000E+00 -0.45593999997E+02  0.45594000000E+02  0.51100000000E-03 0.  1.
    9900012    2    1    2    0    0  0.17809097833E+02 -0.17758311961E+02  0.31947494898E+02  0.50528879995E+02  0.30000061233E+02 0.  0.
        -12    1    1    2    0    0 -0.17809097833E+02  0.17758311961E+02 -0.31947494898E+02  0.40659120005E+02  0.00000000000E+00 0.  1.
         11    1    3    3    0    0  0.12157352441E+02 -0.16647972330E+01  0.62249638134E+01  0.13759467393E+02  0.51100000000E-03 0. -1.
        -11    1    3    3    0    0  0.36622767142E+01 -0.76568062132E+01 -0.11207918918E+01  0.85612573167E+01  0.51100000000E-03 0.  1.
         12    1    3    3    0    0  0.19894686777E+01 -0.84367085147E+01  0.26843322976E+02  0.28208155285E+02  0.00000000000E+00 0. -1.
</event>
<event>
 7    1  0.5138511E-013  0.5052886E+02  0.7816164E-02  0.1300439E+00
        -11   -1    0    0    0    0  0.00000000000E+00  0.00000000000E+00  0.45593999997E+02  0.45594000000E+02  0.51100000000E-03 0. -1.
         11   -1    0    0    0    0 -0.00000000000E+00 -0.00000000000E+00 -0.45593999997E+02  0.45594000000E+02  0.51100000000E-03 0.  1.
    9900012    2    1    2    0    0 -0.20654627971E+02  0.35019481075E+02 -0.43395638540E+00  0.50528855524E+02  0.29999986850E+02 0.  0.
        -12    1    1    2    0    0  0.20654627971E+02 -0.35019481075E+02  0.43395638540E+00  0.40659144476E+02  0.00000000000E+00 0.  1.
         11    1    3    3    0    0 -0.59339404592E+01  0.13961519687E+02 -0.42041223384E+01  0.15741992448E+02  0.51100000000E-03 0. -1.
        -11    1    3    3    0    0 -0.88765824515E+01  0.21789238969E+02  0.10568081299E+02  0.25792421241E+02  0.51100000000E-03 0.  1.
         12    1    3    3    0    0 -0.58441050606E+01 -0.73127758113E+00 -0.67979153458E+01  0.89944418342E+01  0.00000000000E+00 0. -1.
</event>
<event>
 7    1  0.5138511E-013  0.5052886E+02  0.7816164E-02  0.1300439E+00
        -11   -1    0    0    0    0  0.00000000000E+00  0.00000000000E+00  0.45593999997E+02  0.45594000000E+02  0.51100000000E-03 0.  1.
         11   -1    0    0    0    0 -0.00000000000E+00 -0.00000000000E+00 -0.45593999997E+02  0.45594000000E+02  0.51100000000E-03 0. -1.
    9900012    2    1    2    0    0  0.68701377673E+01 -0.20895547375E+02 -0.34195657663E+02  0.50528859625E+02  0.29999999317E+02 0.  0.
        -12    1    1    2    0    0 -0.68701377673E+01  0.20895547375E+02  0.34195657663E+02  0.40659140375E+02  0.00000000000E+00 0.  1.
         11    1    3    3    0    0  0.56382467601E+01 -0.14898353790E+02 -0.17290161190E+02  0.23509582013E+02  0.51100000000E-03 0. -1.
        -11    1    3    3    0    0 -0.45002986392E+01 -0.11851383589E+02 -0.83886478727E+01  0.15201230023E+02  0.51100000000E-03 0.  1.
        -12    1    3    3    0    0  0.57321896465E+01  0.58541900045E+01 -0.85168486002E+01  0.11818047590E+02  0.00000000000E+00 0.  1.
</event>
<event>
 7    1  0.5138511E-013  0.5052887E+02  0.7816164E-02  0.1300439E+00
        -11   -1    0    0    0    0  0.00000000000E+00  0.00000000000E+00  0.45593999997E+02  0.45594000000E+02  0.51100000000E-03 0.  1.
         11   -1    0    0    0    0 -0.00000000000E+00 -0.00000000000E+00 -0.45593999997E+02  0.45594000000E+02  0.51100000000E-03 0. -1.
    9900012    2    1    2    0    0 -0.38869429265E+01  0.36408282811E+02 -0.17677490728E+02  0.50528867434E+02  0.30000023053E+02 0.  0.
        -12    1    1    2    0    0  0.38869429265E+01 -0.36408282811E+02  0.17677490728E+02  0.40659132566E+02  0.00000000000E+00 0.  1.
         11    1    3    3    0    0  0.66129807495E+01  0.19336455801E+02  0.10958397092E+01  0.20465358591E+02  0.51100000000E-03 0.  1.
        -11    1    3    3    0    0 -0.30771274618E+01 -0.76984811024E-01  0.61187773230E+00  0.31383171761E+01  0.51100000000E-03 0. -1.
         12    1    3    3    0    0 -0.74227962141E+01  0.17148811821E+02 -0.19385208170E+02  0.26925191667E+02  0.00000000000E+00 0. -1.
</event>
<event>
 7    1  0.5138511E-013  0.5052886E+02  0.7816164E-02  0.1300439E+00
        -11   -1    0    0    0    0  0.00000000000E+00  0.00000000000E+00  0.45593999997E+02  0.45594000000E+02  0.51100000000E-03 0.  1.
         11   -1    0    0    0    0 -0.00000000000E+00 -0.00000000000E+00 -0.45593999997E+02  0.45594000000E+02  0.51100000000E-03 0. -1.
    9900012    2    1    2    0    0 -0.42201616094E+01  0.14677018202E+02 -0.37682105062E+02  0.50528859955E+02  0.30000000319E+02 0.  0.
        -12    1    1    2    0    0  0.42201616094E+01 -0.14677018202E+02  0.37682105062E+02  0.40659140045E+02  0.00000000000E+00 0.  1.
         11    1    3    3    0    0  0.31788739804E+01 -0.85912314923E+00 -0.64446897324E+01  0.72372203488E+01  0.51100000000E-03 0.  1.
        -11    1    3    3    0    0 -0.57198107166E+01  0.16241338379E+02 -0.35058402084E+02  0.39058787282E+02  0.51100000000E-03 0. -1.
         12    1    3    3    0    0 -0.16792248732E+01 -0.70519702736E+00  0.38209867547E+01  0.42328523246E+01  0.00000000000E+00 0. -1.
</event>
<event>
 7    1  0.5138511E-013  0.5052887E+02  0.7816164E-02  0.1300439E+00
        -11   -1    0    0    0    0  0.00000000000E+00  0.00000000000E+00  0.45593999997E+02  0.45594000000E+02  0.51100000000E-03 0.  1.
         11   -1    0    0    0    0 -0.00000000000E+00 -0.00000000000E+00 -0.45593999997E+02  0.45594000000E+02  0.51100000000E-03 0. -1.
    9900012    2    1    2    0    0  0.21998904969E+01 -0.27941792628E+02 -0.29454734003E+02  0.50528872505E+02  0.30000038465E+02 0.  0.
        -12    1    1    2    0    0 -0.21998904969E+01  0.27941792628E+02  0.29454734003E+02  0.40659127495E+02  0.00000000000E+00 0.  1.
         11    1    3    3    0    0 -0.63558106823E+01  0.12266805095E+01 -0.82390882564E+01  0.10477769326E+02  0.51100000000E-03 0. -1.
        -11    1    3    3    0    0  0.30243613648E+01 -0.17400206956E+02 -0.20456497727E+02  0.27025585346E+02  0.51100000000E-03 0.  1.
        -12    1    3    3    0    0  0.55313398145E+01 -0.11768266182E+02 -0.75914801971E+00  0.13025517832E+02  0.00000000000E+00 0.  1.
</event>
<event>
 7    1  0.5138511E-013  0.5052884E+02  0.7816164E-02  0.1300439E+00
        -11   -1    0    0    0    0  0.00000000000E+00  0.00000000000E+00  0.45593999997E+02  0.45594000000E+02  0.51100000000E-03 0.  1.
         11   -1    0    0    0    0 -0.00000000000E+00 -0.00000000000E+00 -0.45593999997E+02  0.45594000000E+02  0.51100000000E-03 0. -1.
    9900012    2    1    2    0    0 -0.40147837061E+02  0.43768619172E+01 -0.47075629397E+01  0.50528844946E+02  0.29999954697E+02 0.  0.
        -12    1    1    2    0    0  0.40147837061E+02 -0.43768619172E+01  0.47075629397E+01  0.40659155054E+02  0.00000000000E+00 0.  1.
         11    1    3    3    0    0 -0.23413636489E+02  0.10521723438E+02 -0.68885256307E+01  0.26577374276E+02  0.51100000000E-03 0. -1.
        -11    1    3    3    0    0 -0.11412164153E+02 -0.38174880339E+01 -0.63688125722E+01  0.13615156238E+02  0.51100000000E-03 0.  1.
        -12    1    3    3    0    0 -0.53220364187E+01 -0.23273734873E+01  0.85497752632E+01  0.10336314432E+02  0.00000000000E+00 0.  1.
</event>
<event>
 7    1  0.5138511E-013  0.5052887E+02  0.7816164E-02  0.1300439E+00
        -11   -1    0    0    0    0  0.00000000000E+00  0.00000000000E+00  0.45593999997E+02  0.45594000000E+02  0.51100000000E-03 0.  1.
         11   -1    0    0    0    0 -0.00000000000E+00 -0.00000000000E+00 -0.45593999997E+02  0.45594000000E+02  0.51100000000E-03 0. -1.
    9900012    2    1    2    0    0  0.20770224922E+02  0.34168258802E+02  0.73683815634E+01  0.50528865728E+02  0.30000017867E+02 0.  0.
        -12    1    1    2    0    0 -0.20770224922E+02 -0.34168258802E+02 -0.73683815634E+01  0.40659134272E+02  0.00000000000E+00 0.  1.
         11    1    3    3    0    0  0.68852019718E+01  0.13447531275E+02 -0.47604560002E+01  0.15839950921E+02  0.51100000000E-03 0. -1.
        -11    1    3    3    0    0 -0.18780703808E+01  0.11357755658E+02  0.11606458609E+02  0.16347343627E+02  0.51100000000E-03 0.  1.
         12    1    3    3    0    0  0.15763093331E+02  0.93629718682E+01  0.52237895418E+00  0.18341571180E+02  0.00000000000E+00 0. -1.
</event>
<event>
 7    1  0.5913801E-013  0.5052886E+02  0.7816164E-02  0.1300439E+00
        -11   -1    0    0    0    0  0.00000000000E+00  0.00000000000E+00  0.45593999997E+02  0.45594000000E+02  0.51100000000E-03 0. -1.
         11   -1    0    0    0    0 -0.00000000000E+00 -0.00000000000E+00 -0.45593999997E+02  0.45594000000E+02  0.51100000000E-03 0.  1.
    9900012    2    1    2    0    0  0.19590632235E+02 -0.33324093627E+02  0.12604665120E+02  0.50528859942E+02  0.30000000280E+02 0.  0.
        -12    1    1    2    0    0 -0.19590632235E+02  0.33324093627E+02 -0.12604665120E+02  0.40659140058E+02  0.00000000000E+00 0.  1.
         11    1    3    3    0    0  0.14840220044E+02 -0.19063053035E+02  0.82321115003E+01  0.25522534787E+02  0.51100000000E-03 0. -1.
        -11    1    3    3    0    0 -0.12761316370E+01 -0.13696395571E+02  0.97894112903E+01  0.16883493041E+02  0.51100000000E-03 0.  1.
        -12    1    3    3    0    0  0.60265438288E+01 -0.56464502115E+00 -0.54168576707E+01  0.81228321136E+01  0.00000000000E+00 0.  1.
</event>
<event>
 7    1  0.5138511E-013  0.5052886E+02  0.7816164E-02  0.1300439E+00
        -11   -1    0    0    0    0  0.00000000000E+00  0.00000000000E+00  0.45593999997E+02  0.45594000000E+02  0.51100000000E-03 0. -1.
         11   -1    0    0    0    0 -0.00000000000E+00 -0.00000000000E+00 -0.45593999997E+02  0.45594000000E+02  0.51100000000E-03 0.  1.
    9900012    2    1    2    0    0 -0.10123835145E+02  0.11934981318E+02  0.37526388159E+02  0.50528860494E+02  0.30000001958E+02 0.  0.
        -12    1    1    2    0    0  0.10123835145E+02 -0.11934981318E+02 -0.37526388159E+02  0.40659139506E+02  0.00000000000E+00 0.  1.
         11    1    3    3    0    0 -0.78787069869E+01  0.13350421662E+02  0.23104655839E+02  0.27823243953E+02  0.51100000000E-03 0. -1.
        -11    1    3    3    0    0 -0.73782116148E+01  0.24694135561E+00  0.80279136762E-01  0.73827793999E+01  0.51100000000E-03 0.  1.
         12    1    3    3    0    0  0.51330834564E+01 -0.16623816992E+01  0.14341453182E+02  0.15322837142E+02  0.00000000000E+00 0. -1.
</event>
<event>
 7    1  0.5138511E-013  0.5052886E+02  0.7816164E-02  0.1300439E+00
        -11   -1    0    0    0    0  0.00000000000E+00  0.00000000000E+00  0.45593999997E+02  0.45594000000E+02  0.51100000000E-03 0.  1.
         11   -1    0    0    0    0 -0.00000000000E+00 -0.00000000000E+00 -0.45593999997E+02  0.45594000000E+02  0.51100000000E-03 0. -1.
    9900012    2    1    2    0    0  0.35750763840E+02 -0.11336752051E+01 -0.19332969234E+02  0.50528855469E+02  0.29999986683E+02 0.  0.
        -12    1    1    2    0    0 -0.35750763840E+02  0.11336752051E+01  0.19332969234E+02  0.40659144531E+02  0.00000000000E+00 0.  1.
         11    1    3    3    0    0  0.21445898034E+02 -0.18411817639E+01 -0.92123001661E+01  0.23413307485E+02  0.51100000000E-03 0. -1.
        -11    1    3    3    0    0  0.11657814612E+02  0.96648056266E+01 -0.92267558779E+01  0.17732629067E+02  0.51100000000E-03 0.  1.
        -12    1    3    3    0    0  0.26470511937E+01 -0.89572990678E+01 -0.89391319018E+00  0.93829189171E+01  0.00000000000E+00 0.  1.
</event>
<event>
 7    1  0.5138511E-013  0.5052888E+02  0.7816164E-02  0.1300439E+00
        -11   -1    0    0    0    0  0.00000000000E+00  0.00000000000E+00  0.45593999997E+02  0.45594000000E+02  0.51100000000E-03 0.  1.
         11   -1    0    0    0    0 -0.00000000000E+00 -0.00000000000E+00 -0.45593999997E+02  0.45594000000E+02  0.51100000000E-03 0. -1.
    9900012    2    1    2    0    0 -0.15915810053E+02 -0.24599711165E+02 -0.28190518332E+02  0.50528878970E+02  0.30000058118E+02 0.  0.
        -12    1    1    2    0    0  0.15915810053E+02  0.24599711165E+02  0.28190518332E+02  0.40659121030E+02  0.00000000000E+00 0.  1.
         11    1    3    3    0    0 -0.65544661692E+01  0.47256863682E-01 -0.98257015728E+00  0.66278732901E+01  0.51100000000E-03 0. -1.
        -11    1    3    3    0    0 -0.11442788125E+02 -0.60293801442E+01 -0.20022299785E+02  0.23836596106E+02  0.51100000000E-03 0.  1.
        -12    1    3    3    0    0  0.20814442410E+01 -0.18617587885E+02 -0.71856483903E+01  0.20064409574E+02  0.00000000000E+00 0.  1.
</event>
<event>
 7    1  0.5138511E-013  0.5052887E+02  0.7816164E-02  0.1300439E+00
        -11   -1    0    0    0    0  0.00000000000E+00  0.00000000000E+00  0.45593999997E+02  0.45594000000E+02  0.51100000000E-03 0. -1.
         11   -1    0    0    0    0 -0.00000000000E+00 -0.00000000000E+00 -0.45593999997E+02  0.45594000000E+02  0.51100000000E-03 0.  1.
    9900012    2    1    2    0    0  0.20369330135E+02 -0.32861335695E+02  0.12585224099E+02  0.50528869913E+02  0.30000030587E+02 0.  0.
        -12    1    1    2    0    0 -0.20369330135E+02  0.32861335695E+02 -0.12585224099E+02  0.40659130087E+02  0.00000000000E+00 0.  1.
         11    1    3    3    0    0 -0.25638120526E+00 -0.55493156550E+01 -0.91264153217E+00  0.56297025133E+01  0.51100000000E-03 0. -1.
        -11    1    3    3    0    0  0.23681527164E+02 -0.25341912012E+02  0.42275735711E+01  0.34941373926E+02  0.51100000000E-03 0.  1.
        -12    1    3    3    0    0 -0.30558158237E+01 -0.19701080280E+01  0.92702920598E+01  0.99577934737E+01  0.00000000000E+00 0.  1.
</event>
<event>
 7    1  0.5138511E-013  0.5052886E+02  0.7816164E-02  0.1300439E+00
        -11   -1    0    0    0    0  0.00000000000E+00  0.00000000000E+00  0.45593999997E+02  0.45594000000E+02  0.51100000000E-03 0.  1.
         11   -1    0    0    0    0 -0.00000000000E+00 -0.00000000000E+00 -0.45593999997E+02  0.45594000000E+02  0.51100000000E-03 0. -1.
    9900012    2    1    2    0    0 -0.25881230931E+02  0.31358045138E+02 -0.14297155813E-01  0.50528864325E+02  0.30000013603E+02 0.  0.
        -12    1    1    2    0    0  0.25881230931E+02 -0.31358045138E+02  0.14297155813E-01  0.40659135675E+02  0.00000000000E+00 0.  1.
         11    1    3    3    0    0 -0.48509819003E+01 -0.85755314810E+00 -0.27343855940E+01  0.56342069217E+01  0.51100000000E-03 0. -1.
        -11    1    3    3    0    0 -0.24284811234E+02  0.18000609867E+02  0.17187320462E+01  0.30277517275E+02  0.51100000000E-03 0.  1.
        -12    1    3    3    0    0  0.32545622028E+01  0.14214988420E+02  0.10013563920E+01  0.14617140128E+02  0.00000000000E+00 0.  1.
</event>
<event>
 7    1  0.5138511E-013  0.5052883E+02  0.7816164E-02  0.1300439E+00
        -11   -1    0    0    0    0  0.00000000000E+00  0.00000000000E+00  0.45593999997E+02  0.45594000000E+02  0.51100000000E-03 0. -1.
         11   -1    0    0    0    0 -0.00000000000E+00 -0.00000000000E+00 -0.45593999997E+02  0.45594000000E+02  0.51100000000E-03 0.  1.
    9900012    2    1    2    0    0  0.22031099137E+02  0.25486516331E+02 -0.22764803335E+02  0.50528829882E+02  0.29999908908E+02 0.  0.
        -12    1    1    2    0    0 -0.22031099137E+02 -0.25486516331E+02  0.22764803335E+02  0.40659170118E+02  0.00000000000E+00 0.  1.
         11    1    3    3    0    0  0.15517418216E+01  0.84960057265E+01  0.33288370508E+01  0.92558723175E+01  0.51100000000E-03 0. -1.
        -11    1    3    3    0    0 -0.18759033641E+01  0.36699701608E+01 -0.96414432638E+01  0.10485471991E+02  0.51100000000E-03 0.  1.
         12    1    3    3    0    0  0.22355260680E+02  0.13320540443E+02 -0.16452197122E+02  0.30787485573E+02  0.00000000000E+00 0. -1.
</event>
<event>
 7    1  0.5138511E-013  0.5052885E+02  0.7816164E-02  0.1300439E+00
        -11   -1    0    0    0    0  0.00000000000E+00  0.00000000000E+00  0.45593999997E+02  0.45594000000E+02  0.51100000000E-03 0.  1.
         11   -1    0    0    0    0 -0.00000000000E+00 -0.00000000000E+00 -0.45593999997E+02  0.45594000000E+02  0.51100000000E-03 0. -1.
    9900012    2    1    2    0    0 -0.25188268724E+02  0.77332937429E+01 -0.30966327032E+02  0.50528854371E+02  0.29999983347E+02 0.  0.
        -12    1    1    2    0    0  0.25188268724E+02 -0.77332937429E+01  0.30966327032E+02  0.40659145629E+02  0.00000000000E+00 0.  1.
         11    1    3    3    0    0 -0.11893607763E+02  0.86897259173E+01 -0.15453646311E+02  0.21349108335E+02  0.51100000000E-03 0. -1.
        -11    1    3    3    0    0 -0.18051292193E+01  0.71588721115E+01  0.10417710263E+01  0.74560866773E+01  0.51100000000E-03 0.  1.
        -12    1    3    3    0    0 -0.11489531741E+02 -0.81153042859E+01 -0.16554451747E+02  0.21723659359E+02  0.00000000000E+00 0.  1.
</event>
<event>
 7    1  0.5138511E-013  0.5052886E+02  0.7816164E-02  0.1300439E+00
        -11   -1    0    0    0    0  0.00000000000E+00  0.00000000000E+00  0.45593999997E+02  0.45594000000E+02  0.51100000000E-03 0.  1.
         11   -1    0    0    0    0 -0.00000000000E+00 -0.00000000000E+00 -0.45593999997E+02  0.45594000000E+02  0.51100000000E-03 0. -1.
    9900012    2    1    2    0    0 -0.73761263774E+01  0.36861002458E+02 -0.15492734058E+02  0.50528861407E+02  0.30000004732E+02 0.  0.
        -12    1    1    2    0    0  0.73761263774E+01 -0.36861002458E+02  0.15492734058E+02  0.40659138593E+02  0.00000000000E+00 0.  1.
         11    1    3    3    0    0  0.29536100462E+01 -0.21436191883E+01 -0.13772371288E+01  0.39007304316E+01  0.51100000000E-03 0.  1.
        -11    1    3    3    0    0 -0.12287131286E+02  0.38489864605E+02 -0.93796986132E+01  0.41477970284E+02  0.51100000000E-03 0. -1.
         12    1    3    3    0    0  0.19573948621E+01  0.51475704177E+00 -0.47357983156E+01  0.51501606911E+01  0.00000000000E+00 0. -1.
</event>
<event>
 7    1  0.5138511E-013  0.5052887E+02  0.7816164E-02  0.1300439E+00
        -11   -1    0    0    0    0  0.00000000000E+00  0.00000000000E+00  0.45593999997E+02  0.45594000000E+02  0.51100000000E-03 0.  1.
         11   -1    0    0    0    0 -0.00000000000E+00 -0.00000000000E+00 -0.45593999997E+02  0.45594000000E+02  0.51100000000E-03 0. -1.
    9900012    2    1    2    0    0  0.29159620430E+02 -0.19856343339E+02 -0.20214030071E+02  0.50528870076E+02  0.30000031083E+02 0.  0.
        -12    1    1    2    0    0 -0.29159620430E+02  0.19856343339E+02  0.20214030071E+02  0.40659129924E+02  0.00000000000E+00 0.  1.
         11    1    3    3    0    0  0.14092568551E+02 -0.83995697158E+01 -0.50052119637E+01  0.17152416938E+02  0.51100000000E-03 0. -1.
        -11    1    3    3    0    0  0.15729598726E+02 -0.10205875547E+02 -0.20568840846E+02  0.27832667601E+02  0.51100000000E-03 0.  1.
        -12    1    3    3    0    0 -0.66254684632E+00 -0.12508980769E+01  0.53600227387E+01  0.55437855371E+01  0.00000000000E+00 0.  1.
</event>
<event>
 7    1  0.5138511E-013  0.5052886E+02  0.7816164E-02  0.1300439E+00
        -11   -1    0    0    0    0  0.00000000000E+00  0.00000000000E+00  0.45593999997E+02  0.45594000000E+02  0.51100000000E-03 0. -1.
         11   -1    0    0    0    0 -0.00000000000E+00 -0.00000000000E+00 -0.45593999997E+02  0.45594000000E+02  0.51100000000E-03 0.  1.
    9900012    2    1    2    0    0  0.33349685365E+02  0.34500793590E+01  0.23001325225E+02  0.50528861745E+02  0.30000005760E+02 0.  0.
        -12    1    1    2    0    0 -0.33349685365E+02 -0.34500793590E+01 -0.23001325225E+02  0.40659138255E+02  0.00000000000E+00 0.  1.
         11    1    3    3    0    0  0.15252109037E+02  0.75358222316E+01  0.18003670744E+02  0.24769893163E+02  0.51100000000E-03 0. -1.
        -11    1    3    3    0    0  0.24587327661E+01  0.60584947546E+01  0.35128958068E+00  0.65478340035E+01  0.51100000000E-03 0.  1.
         12    1    3    3    0    0  0.15638843563E+02 -0.10144237627E+02  0.46463648998E+01  0.19211134578E+02  0.00000000000E+00 0. -1.
</event>
<event>
 7    1  0.5138511E-013  0.5052891E+02  0.7816164E-02  0.1300439E+00
        -11   -1    0    0    0    0  0.00000000000E+00  0.00000000000E+00  0.45593999997E+02  0.45594000000E+02  0.51100000000E-03 0.  1.
         11   -1    0    0    0    0 -0.00000000000E+00 -0.00000000000E+00 -0.45593999997E+02  0.45594000000E+02  0.51100000000E-03 0. -1.
    9900012    2    1    2    0    0  0.30962628092E+01 -0.29040721031E+01 -0.40436877236E+02  0.50528910994E+02  0.30000155458E+02 0.  0.
        -12    1    1    2    0    0 -0.30962628092E+01  0.29040721031E+01  0.40436877236E+02  0.40659089006E+02  0.00000000000E+00 0.  1.
         11    1    3    3    0    0 -0.92001609656E+01 -0.34586520278E+01 -0.19002378378E+02  0.21393822004E+02  0.51100000000E-03 0. -1.
        -11    1    3    3    0    0  0.25029145024E+01  0.12197325180E+01  0.21965219375E+01  0.35464118916E+01  0.51100000000E-03 0.  1.
         12    1    3    3    0    0  0.97935092723E+01 -0.66515259341E+00 -0.23631020796E+02  0.25588677099E+02  0.00000000000E+00 0. -1.
</event>
<event>
 7    1  0.5138511E-013  0.5052885E+02  0.7816164E-02  0.1300439E+00
        -11   -1    0    0    0    0  0.00000000000E+00  0.00000000000E+00  0.45593999997E+02  0.45594000000E+02  0.51100000000E-03 0.  1.
         11   -1    0    0    0    0 -0.00000000000E+00 -0.00000000000E+00 -0.45593999997E+02  0.45594000000E+02  0.51100000000E-03 0. -1.
    9900012    2    1    2    0    0 -0.29621079088E+02  0.27828005594E+02 -0.11661285032E+01  0.50528854935E+02  0.29999985061E+02 0.  0.
        -12    1    1    2    0    0  0.29621079088E+02 -0.27828005594E+02  0.11661285032E+01  0.40659145065E+02  0.00000000000E+00 0.  1.
         11    1    3    3    0    0 -0.77375648663E+00 -0.19849845164E+01 -0.89543985669E+00  0.23109901404E+01  0.51100000000E-03 0. -1.
        -11    1    3    3    0    0 -0.47530307874E+01 -0.43293050702E+01 -0.27385088535E-01  0.64292250125E+01  0.51100000000E-03 0.  1.
         12    1    3    3    0    0 -0.24094291814E+02  0.34142295181E+02 -0.24330355796E+00  0.41788639782E+02  0.00000000000E+00 0. -1.
</event>
<event>
 7    1  0.5138511E-013  0.5052886E+02  0.7816164E-02  0.1300439E+00
        -11   -1    0    0    0    0  0.00000000000E+00  0.00000000000E+00  0.45593999997E+02  0.45594000000E+02  0.51100000000E-03 0.  1.
         11   -1    0    0    0    0 -0.00000000000E+00 -0.00000000000E+00 -0.45593999997E+02  0.45594000000E+02  0.51100000000E-03 0. -1.
    9900012    2    1    2    0    0  0.39206933394E+02 -0.82013877469E+00  0.10738220902E+02  0.50528860291E+02  0.30000001340E+02 0.  0.
        -12    1    1    2    0    0 -0.39206933394E+02  0.82013877469E+00 -0.10738220902E+02  0.40659139709E+02  0.00000000000E+00 0.  1.
         11    1    3    3    0    0  0.14883946103E+02 -0.17001165499E+01 -0.41542813503E+01  0.15546070297E+02  0.51100000000E-03 0. -1.
        -11    1    3    3    0    0  0.26395998651E+02  0.18470051235E+01  0.17337467438E+02  0.31634600521E+02  0.51100000000E-03 0.  1.
         12    1    3    3    0    0 -0.20730113599E+01 -0.96702734824E+00 -0.24449651854E+01  0.33481894732E+01  0.00000000000E+00 0. -1.
</event>
<event>
 7    1  0.5138511E-013  0.5052886E+02  0.7816164E-02  0.1300439E+00
        -11   -1    0    0    0    0  0.00000000000E+00  0.00000000000E+00  0.45593999997E+02  0.45594000000E+02  0.51100000000E-03 0.  1.
         11   -1    0    0    0    0 -0.00000000000E+00 -0.00000000000E+00 -0.45593999997E+02  0.45594000000E+02  0.51100000000E-03 0. -1.
    9900012    2    1    2    0    0 -0.12464928132E+02 -0.50719298467E+01 -0.38367526200E+02  0.50528856227E+02  0.29999988987E+02 0.  0.
        -12    1    1    2    0    0  0.12464928132E+02  0.50719298467E+01  0.38367526200E+02  0.40659143773E+02  0.00000000000E+00 0.  1.
         11    1    3    3    0    0  0.32327456372E+00 -0.10091231957E+02 -0.65457768143E+01  0.12032649883E+02  0.51100000000E-03 0. -1.
        -11    1    3    3    0    0 -0.11306377892E+02 -0.34399307641E+01 -0.11754052421E+02  0.16668084871E+02  0.51100000000E-03 0.  1.
         12    1    3    3    0    0 -0.14818248036E+01  0.84592328740E+01 -0.20067696964E+02  0.21828121472E+02  0.00000000000E+00 0. -1.
</event>
<event>
 7    1  0.5138511E-013  0.5052886E+02  0.7816164E-02  0.1300439E+00
        -11   -1    0    0    0    0  0.00000000000E+00  0.00000000000E+00  0.45593999997E+02  0.45594000000E+02  0.51100000000E-03 0.  1.
         11   -1    0    0    0    0 -0.00000000000E+00 -0.00000000000E+00 -0.45593999997E+02  0.45594000000E+02  0.51100000000E-03 0. -1.
    9900012    2    1    2    0    0  0.15422362827E+02 -0.30107853843E+02 -0.22557338355E+02  0.50528860168E+02  0.30000000968E+02 0.  0.
        -12    1    1    2    0    0 -0.15422362827E+02  0.30107853843E+02  0.22557338355E+02  0.40659139832E+02  0.00000000000E+00 0.  1.
         11    1    3    3    0    0 -0.58445792796E-01 -0.21891076122E+01 -0.86917064932E+01  0.89633347630E+01  0.51100000000E-03 0. -1.
        -11    1    3    3    0    0  0.53785243113E+01 -0.26123062512E+02 -0.15976440222E+02  0.31090023499E+02  0.51100000000E-03 0.  1.
         12    1    3    3    0    0  0.10102284308E+02 -0.17956837189E+01  0.21108083598E+01  0.10475501906E+02  0.00000000000E+00 0. -1.
</event>
<event>
 7    1  0.5138511E-013  0.5052886E+02  0.7816164E-02  0.1300439E+00
        -11   -1    0    0    0    0  0.00000000000E+00  0.00000000000E+00  0.45593999997E+02  0.45594000000E+02  0.51100000000E-03 0. -1.
         11   -1    0    0    0    0 -0.00000000000E+00 -0.00000000000E+00 -0.45593999997E+02  0.45594000000E+02  0.51100000000E-03 0.  1.
    9900012    2    1    2    0    0 -0.15638199272E+02 -0.35431753790E+02 -0.12377517875E+02  0.50528863243E+02  0.30000010313E+02 0.  0.
        -12    1    1    2    0    0  0.15638199272E+02  0.35431753790E+02  0.12377517875E+02  0.40659136757E+02  0.00000000000E+00 0.  1.
         11    1    3    3    0    0 -0.13088306356E+02 -0.20752619402E+02 -0.38250964643E+01  0.24831559326E+02  0.51100000000E-03 0. -1.
        -11    1    3    3    0    0 -0.87852052124E+01 -0.88549858013E+01 -0.11199709952E+02  0.16763773663E+02  0.51100000000E-03 0.  1.
         12    1    3    3    0    0  0.62353122959E+01 -0.58241485860E+01  0.26472885413E+01  0.89335302541E+01  0.00000000000E+00 0. -1.
</event>
<event>
 7    1  0.5138511E-013  0.5052887E+02  0.7816164E-02  0.1300439E+00
        -11   -1    0    0    0    0  0.00000000000E+00  0.00000000000E+00  0.45593999997E+02  0.45594000000E+02  0.51100000000E-03 0. -1.
         11   -1    0    0    0    0 -0.00000000000E+00 -0.00000000000E+00 -0.45593999997E+02  0.45594000000E+02  0.51100000000E-03 0.  1.
    9900012    2    1    2    0    0 -0.27307540395E+02 -0.30007855448E+02  0.26442036752E+01  0.50528868627E+02  0.30000026677E+02 0.  0.
        -12    1    1    2    0    0  0.27307540395E+02  0.30007855448E+02 -0.26442036752E+01  0.40659131373E+02  0.00000000000E+00 0.  1.
         11    1    3    3    0    0 -0.83220253732E+01 -0.13592303966E+02  0.12740352275E+02  0.20404004748E+02  0.51100000000E-03 0. -1.
        -11    1    3    3    0    0  0.16028357170E+01  0.46461035650E+00 -0.11952813590E+01  0.20527159832E+01  0.51100000000E-03 0.  1.
         12    1    3    3    0    0 -0.20588350738E+02 -0.16880161839E+02 -0.89008672407E+01  0.28072147895E+02  0.00000000000E+00 0. -1.
</event>
<event>
 7    1  0.5138511E-013  0.5052887E+02  0.7816164E-02  0.1300439E+00
        -11   -1    0    0    0    0  0.00000000000E+00  0.00000000000E+00  0.45593999997E+02  0.45594000000E+02  0.51100000000E-03 0.  1.
         11   -1    0    0    0    0 -0.00000000000E+00 -0.00000000000E+00 -0.45593999997E+02  0.45594000000E+02  0.51100000000E-03 0. -1.
    9900012    2    1    2    0    0  0.30549398906E+02  0.11522045339E+02 -0.24231005380E+02  0.50528869119E+02  0.30000028174E+02 0.  0.
        -12    1    1    2    0    0 -0.30549398906E+02 -0.11522045339E+02  0.24231005380E+02  0.40659130881E+02  0.00000000000E+00 0.  1.
         11    1    3    3    0    0  0.14215145755E+02  0.61486995094E+01  0.19892772498E+01  0.15615188078E+02  0.51100000000E-03 0. -1.
        -11    1    3    3    0    0  0.49619479256E+01  0.84850634121E+01 -0.60261457676E+01  0.11529599360E+02  0.51100000000E-03 0.  1.
        -12    1    3    3    0    0  0.11372305225E+02 -0.31117175823E+01 -0.20194136862E+02  0.23384081681E+02  0.00000000000E+00 0.  1.
</event>
<event>
 7    1  0.5138511E-013  0.5052884E+02  0.7816164E-02  0.1300439E+00
        -11   -1    0    0    0    0  0.00000000000E+00  0.00000000000E+00  0.45593999997E+02  0.45594000000E+02  0.51100000000E-03 0.  1.
         11   -1    0    0    0    0 -0.00000000000E+00 -0.00000000000E+00 -0.45593999997E+02  0.45594000000E+02  0.51100000000E-03 0. -1.
    9900012    2    1    2    0    0  0.31899505849E+02 -0.22619095838E+02 -0.11133970917E+02  0.50528840166E+02  0.29999940170E+02 0.  0.
        -12    1    1    2    0    0 -0.31899505849E+02  0.22619095838E+02  0.11133970917E+02  0.40659159834E+02  0.00000000000E+00 0.  1.
         11    1    3    3    0    0  0.14160709180E+02 -0.28480287710E+01  0.44577825973E+00  0.14451147736E+02  0.51100000000E-03 0. -1.
        -11    1    3    3    0    0 -0.19611292154E+00  0.28822819369E+01  0.26050807493E+01  0.38900456826E+01  0.51100000000E-03 0.  1.
        -12    1    3    3    0    0  0.17934909591E+02 -0.22653349004E+02 -0.14184829926E+02  0.32187646748E+02  0.00000000000E+00 0.  1.
</event>
<event>
 7    1  0.5138511E-013  0.5052886E+02  0.7816164E-02  0.1300439E+00
        -11   -1    0    0    0    0  0.00000000000E+00  0.00000000000E+00  0.45593999997E+02  0.45594000000E+02  0.51100000000E-03 0.  1.
         11   -1    0    0    0    0 -0.00000000000E+00 -0.00000000000E+00 -0.45593999997E+02  0.45594000000E+02  0.51100000000E-03 0. -1.
    9900012    2    1    2    0    0 -0.15193105958E+02 -0.62724455393E+01 -0.37188591697E+02  0.50528863338E+02  0.30000010601E+02 0.  0.
        -12    1    1    2    0    0  0.15193105958E+02  0.62724455393E+01  0.37188591697E+02  0.40659136662E+02  0.00000000000E+00 0.  1.
         11    1    3    3    0    0  0.15364779501E+01  0.10471769452E+01 -0.91537705684E+01  0.93407098192E+01  0.51100000000E-03 0.  1.
        -11    1    3    3    0    0  0.12880503417E+01 -0.22965593200E+01  0.35862496930E+01  0.44490949096E+01  0.51100000000E-03 0. -1.
         12    1    3    3    0    0 -0.18017634250E+02 -0.50230631645E+01 -0.31621070822E+02  0.36739058609E+02  0.00000000000E+00 0. -1.
</event>
<event>
 7    1  0.5138511E-013  0.5052884E+02  0.7816164E-02  0.1300439E+00
        -11   -1    0    0    0    0  0.00000000000E+00  0.00000000000E+00  0.45593999997E+02  0.45594000000E+02  0.51100000000E-03 0.  1.
         11   -1    0    0    0    0 -0.00000000000E+00 -0.00000000000E+00 -0.45593999997E+02  0.45594000000E+02  0.51100000000E-03 0. -1.
    9900012    2    1    2    0    0  0.18454113565E+02  0.36225183934E+02 -0.59062667258E+00  0.50528842380E+02  0.29999946898E+02 0.  0.
        -12    1    1    2    0    0 -0.18454113565E+02 -0.36225183934E+02  0.59062667258E+00  0.40659157620E+02  0.00000000000E+00 0.  1.
         11    1    3    3    0    0 -0.31139655192E+01  0.59797946685E+01  0.51684777087E+01  0.84951684868E+01  0.51100000000E-03 0.  1.
        -11    1    3    3    0    0 -0.10827414006E+01  0.46099141815E+01 -0.62254608640E+01  0.78217645664E+01  0.51100000000E-03 0. -1.
        -12    1    3    3    0    0  0.22650820485E+02  0.25635475084E+02  0.46635648272E+00  0.34211909327E+02  0.00000000000E+00 0.  1.
</event>
<event>
 7    1  0.5138511E-013  0.5052887E+02  0.7816164E-02  0.1300439E+00
        -11   -1    0    0    0    0  0.00000000000E+00  0.00000000000E+00  0.45593999997E+02  0.45594000000E+02  0.51100000000E-03 0.  1.
         11   -1    0    0    0    0 -0.00000000000E+00 -0.00000000000E+00 -0.45593999997E+02  0.45594000000E+02  0.51100000000E-03 0. -1.
    9900012    2    1    2    0    0 -0.24317784182E+02  0.30499038044E+02 -0.11472527856E+02  0.50528870096E+02  0.30000031144E+02 0.  0.
        -12    1    1    2    0    0  0.24317784182E+02 -0.30499038044E+02  0.11472527856E+02  0.40659129904E+02  0.00000000000E+00 0.  1.
         11    1    3    3    0    0 -0.83320604490E+01  0.75459482397E+01 -0.60765261171E+01  0.12778448109E+02  0.51100000000E-03 0. -1.
        -11    1    3    3    0    0 -0.11202304734E+02  0.52218029473E+01  0.82590227126E+01  0.14865070259E+02  0.51100000000E-03 0.  1.
         12    1    3    3    0    0 -0.47834189989E+01  0.17731286857E+02 -0.13655024452E+02  0.22885351728E+02  0.00000000000E+00 0. -1.
</event>
<event>
 7    1  0.5138511E-013  0.5052887E+02  0.7816164E-02  0.1300439E+00
        -11   -1    0    0    0    0  0.00000000000E+00  0.00000000000E+00  0.45593999997E+02  0.45594000000E+02  0.51100000000E-03 0.  1.
         11   -1    0    0    0    0 -0.00000000000E+00 -0.00000000000E+00 -0.45593999997E+02  0.45594000000E+02  0.51100000000E-03 0. -1.
    9900012    2    1    2    0    0  0.15382798500E+02 -0.43011054410E+01 -0.37390307760E+02  0.50528866806E+02  0.30000021143E+02 0.  0.
        -12    1    1    2    0    0 -0.15382798500E+02  0.43011054410E+01  0.37390307760E+02  0.40659133194E+02  0.00000000000E+00 0.  1.
         11    1    3    3    0    0 -0.85834236973E+01 -0.14152316062E+01 -0.14682783082E+02  0.17066404488E+02  0.51100000000E-03 0. -1.
        -11    1    3    3    0    0  0.10323788569E+02  0.23668486553E+00 -0.72914428082E+01  0.12641272429E+02  0.51100000000E-03 0.  1.
        -12    1    3    3    0    0  0.13642433628E+02 -0.31225587004E+01 -0.15416081871E+02  0.20821189889E+02  0.00000000000E+00 0.  1.
</event>
<event>
 7    1  0.5138511E-013  0.5052884E+02  0.7816164E-02  0.1300439E+00
        -11   -1    0    0    0    0  0.00000000000E+00  0.00000000000E+00  0.45593999997E+02  0.45594000000E+02  0.51100000000E-03 0.  1.
         11   -1    0    0    0    0 -0.00000000000E+00 -0.00000000000E+00 -0.45593999997E+02  0.45594000000E+02  0.51100000000E-03 0. -1.
    9900012    2    1    2    0    0 -0.36400874062E+02 -0.12478541683E+02 -0.13131238014E+02  0.50528843014E+02  0.29999948826E+02 0.  0.
        -12    1    1    2    0    0  0.36400874062E+02  0.12478541683E+02  0.13131238014E+02  0.40659156986E+02  0.00000000000E+00 0.  1.
         11    1    3    3    0    0 -0.35562281632E+02 -0.12222020360E+02 -0.17413134675E+02  0.41439967616E+02  0.51100000000E-03 0. -1.
        -11    1    3    3    0    0  0.29563573672E+00 -0.12299140254E+01 -0.21451445452E+01  0.24903281671E+01  0.51100000000E-03 0.  1.
        -12    1    3    3    0    0 -0.11342281666E+01  0.97339270274E+00  0.64270412063E+01  0.65985472306E+01  0.00000000000E+00 0.  1.
</event>
<event>
 7    1  0.5138511E-013  0.5052887E+02  0.7816164E-02  0.1300439E+00
        -11   -1    0    0    0    0  0.00000000000E+00  0.00000000000E+00  0.45593999997E+02  0.45594000000E+02  0.51100000000E-03 0. -1.
         11   -1    0    0    0    0 -0.00000000000E+00 -0.00000000000E+00 -0.45593999997E+02  0.45594000000E+02  0.51100000000E-03 0.  1.
    9900012    2    1    2    0    0 -0.19382340081E+02 -0.29817723501E+02 -0.19707699216E+02  0.50528866338E+02  0.30000019720E+02 0.  0.
        -12    1    1    2    0    0  0.19382340081E+02  0.29817723501E+02  0.19707699216E+02  0.40659133662E+02  0.00000000000E+00 0.  1.
         11    1    3    3    0    0  0.19904121211E+01  0.38079305636E+01 -0.68840340576E+01  0.81149245687E+01  0.51100000000E-03 0.  1.
        -11    1    3    3    0    0 -0.91074023607E+01 -0.90979561239E+01 -0.57111171805E+01  0.14083126184E+02  0.51100000000E-03 0. -1.
        -12    1    3    3    0    0 -0.12265349841E+02 -0.24527697940E+02 -0.71125479782E+01  0.28330815585E+02  0.00000000000E+00 0.  1.
</event>
<event>
 7    1  0.5138511E-013  0.5052885E+02  0.7816164E-02  0.1300439E+00
        -11   -1    0    0    0    0  0.00000000000E+00  0.00000000000E+00  0.45593999997E+02  0.45594000000E+02  0.51100000000E-03 0.  1.
         11   -1    0    0    0    0 -0.00000000000E+00 -0.00000000000E+00 -0.45593999997E+02  0.45594000000E+02  0.51100000000E-03 0. -1.
    9900012    2    1    2    0    0 -0.34871074190E+02  0.58839278116E+01 -0.20063742414E+02  0.50528853657E+02  0.29999981177E+02 0.  0.
        -12    1    1    2    0    0  0.34871074190E+02 -0.58839278116E+01  0.20063742414E+02  0.40659146343E+02  0.00000000000E+00 0.  1.
         11    1    3    3    0    0 -0.17370019069E+02  0.12190419672E+01 -0.22015683473E+01  0.17551368301E+02  0.51100000000E-03 0. -1.
        -11    1    3    3    0    0 -0.21658754307E+02  0.31867152784E+01 -0.10236150630E+02  0.24166827934E+02  0.51100000000E-03 0.  1.
        -12    1    3    3    0    0  0.41576991870E+01  0.14781705659E+01 -0.76260234369E+01  0.88106574222E+01  0.00000000000E+00 0.  1.
</event>
<event>
 7    1  0.5138511E-013  0.5052887E+02  0.7816164E-02  0.1300439E+00
        -11   -1    0    0    0    0  0.00000000000E+00  0.00000000000E+00  0.45593999997E+02  0.45594000000E+02  0.51100000000E-03 0.  1.
         11   -1    0    0    0    0 -0.00000000000E+00 -0.00000000000E+00 -0.45593999997E+02  0.45594000000E+02  0.51100000000E-03 0. -1.
    9900012    2    1    2    0    0 -0.13653494941E+02 -0.32109003670E+01 -0.38163293103E+02  0.50528871311E+02  0.30000034838E+02 0.  0.
        -12    1    1    2    0    0  0.13653494941E+02  0.32109003670E+01  0.38163293103E+02  0.40659128689E+02  0.00000000000E+00 0.  1.
         11    1    3    3    0    0  0.13254758911E+01 -0.33561883162E+01 -0.43285702076E+01  0.56353710308E+01  0.51100000000E-03 0. -1.
        -11    1    3    3    0    0 -0.15662745313E+02 -0.46249422946E+01 -0.72373890128E+01  0.17863131919E+02  0.51100000000E-03 0.  1.
         12    1    3    3    0    0  0.68377448095E+00  0.47702302438E+01 -0.26597333882E+02  0.27030368362E+02  0.00000000000E+00 0. -1.
</event>
<event>
 7    1  0.5138511E-013  0.5052885E+02  0.7816164E-02  0.1300439E+00
        -11   -1    0    0    0    0  0.00000000000E+00  0.00000000000E+00  0.45593999997E+02  0.45594000000E+02  0.51100000000E-03 0. -1.
         11   -1    0    0    0    0 -0.00000000000E+00 -0.00000000000E+00 -0.45593999997E+02  0.45594000000E+02  0.51100000000E-03 0.  1.
    9900012    2    1    2    0    0 -0.39826691138E+02 -0.80883148083E+01  0.12570594160E+01  0.50528851438E+02  0.29999974430E+02 0.  0.
        -12    1    1    2    0    0  0.39826691138E+02  0.80883148083E+01 -0.12570594160E+01  0.40659148562E+02  0.00000000000E+00 0.  1.
         11    1    3    3    0    0 -0.81855133283E+01  0.26162954841E+01  0.42173347459E+01  0.95725411009E+01  0.51100000000E-03 0. -1.
        -11    1    3    3    0    0  0.37318315684E+01 -0.25677614191E+01 -0.75682455729E+00  0.45926843166E+01  0.51100000000E-03 0.  1.
         12    1    3    3    0    0 -0.35373009378E+02 -0.81368488733E+01 -0.22034507726E+01  0.36363626020E+02  0.00000000000E+00 0. -1.
</event>
<event>
 7    1  0.5138511E-013  0.5052886E+02  0.7816164E-02  0.1300439E+00
        -11   -1    0    0    0    0  0.00000000000E+00  0.00000000000E+00  0.45593999997E+02  0.45594000000E+02  0.51100000000E-03 0. -1.
         11   -1    0    0    0    0 -0.00000000000E+00 -0.00000000000E+00 -0.45593999997E+02  0.45594000000E+02  0.51100000000E-03 0.  1.
    9900012    2    1    2    0    0 -0.73207386387E+01  0.39726156397E+02  0.46265446518E+01  0.50528860416E+02  0.30000001722E+02 0.  0.
        -12    1    1    2    0    0  0.73207386387E+01 -0.39726156397E+02 -0.46265446518E+01  0.40659139584E+02  0.00000000000E+00 0.  1.
         11    1    3    3    0    0 -0.15795159751E+01 -0.30086784115E+01 -0.29079664235E+00  0.34105101448E+01  0.51100000000E-03 0. -1.
        -11    1    3    3    0    0 -0.85192802214E+01  0.94622866848E+01 -0.23521760695E+01  0.12947808205E+02  0.51100000000E-03 0.  1.
        -12    1    3    3    0    0  0.27780575577E+01  0.33272548123E+02  0.72695173636E+01  0.34170542066E+02  0.00000000000E+00 0.  1.
</event>
<event>
 7    1  0.5138511E-013  0.5052886E+02  0.7816164E-02  0.1300439E+00
        -11   -1    0    0    0    0  0.00000000000E+00  0.00000000000E+00  0.45593999997E+02  0.45594000000E+02  0.51100000000E-03 0. -1.
         11   -1    0    0    0    0 -0.00000000000E+00 -0.00000000000E+00 -0.45593999997E+02  0.45594000000E+02  0.51100000000E-03 0.  1.
    9900012    2    1    2    0    0  0.38722711554E+02 -0.70937098834E+01 -0.10168423714E+02  0.50528856492E+02  0.29999989792E+02 0.  0.
        -12    1    1    2    0    0 -0.38722711554E+02  0.70937098834E+01  0.10168423714E+02  0.40659143508E+02  0.00000000000E+00 0.  1.
         11    1    3    3    0    0  0.65555139534E+01 -0.25573965575E+01  0.80209578264E+01  0.10670089271E+02  0.51100000000E-03 0. -1.
        -11    1    3    3    0    0  0.20728744559E+01 -0.46842099743E+01 -0.44112850456E+01  0.67600345864E+01  0.51100000000E-03 0.  1.
         12    1    3    3    0    0  0.30094323145E+02  0.14789664851E+00 -0.13778096495E+02  0.33098732634E+02  0.00000000000E+00 0. -1.
</event>
<event>
 7    1  0.5138511E-013  0.5052887E+02  0.7816164E-02  0.1300439E+00
        -11   -1    0    0    0    0  0.00000000000E+00  0.00000000000E+00  0.45593999997E+02  0.45594000000E+02  0.51100000000E-03 0.  1.
         11   -1    0    0    0    0 -0.00000000000E+00 -0.00000000000E+00 -0.45593999997E+02  0.45594000000E+02  0.51100000000E-03 0. -1.
    9900012    2    1    2    0    0 -0.65964145527E+01  0.22385805332E+02 -0.33294562482E+02  0.50528869952E+02  0.30000030707E+02 0.  0.
        -12    1    1    2    0    0  0.65964145527E+01 -0.22385805332E+02  0.33294562482E+02  0.40659130048E+02  0.00000000000E+00 0.  1.
         11    1    3    3    0    0  0.21310565286E+01  0.22997962113E+01  0.90786154776E+00  0.32641503324E+01  0.51100000000E-03 0. -1.
        -11    1    3    3    0    0 -0.14616498240E+02  0.40560761230E+01 -0.19678982347E+02  0.24846652104E+02  0.51100000000E-03 0.  1.
         12    1    3    3    0    0  0.58890271591E+01  0.16029932998E+02 -0.14523441683E+02  0.22418067516E+02  0.00000000000E+00 0. -1.
</event>
<event>
 7    1  0.5138511E-013  0.5052886E+02  0.7816164E-02  0.1300439E+00
        -11   -1    0    0    0    0  0.00000000000E+00  0.00000000000E+00  0.45593999997E+02  0.45594000000E+02  0.51100000000E-03 0.  1.
         11   -1    0    0    0    0 -0.00000000000E+00 -0.00000000000E+00 -0.45593999997E+02  0.45594000000E+02  0.51100000000E-03 0. -1.
    9900012    2    1    2    0    0  0.17858093641E+02 -0.62691870999E+01  0.35985436602E+02  0.50528857573E+02  0.29999993080E+02 0.  0.
        -12    1    1    2    0    0 -0.17858093641E+02  0.62691870999E+01 -0.35985436602E+02  0.40659142427E+02  0.00000000000E+00 0.  1.
         11    1    3    3    0    0  0.59101614959E+01 -0.44245123607E+01  0.13761687350E+02  0.15616989387E+02  0.51100000000E-03 0. -1.
        -11    1    3    3    0    0 -0.68102484595E+01 -0.32427738061E+01  0.98102258258E+01  0.12374796849E+02  0.51100000000E-03 0.  1.
        -12    1    3    3    0    0  0.18758180605E+02  0.13980990668E+01  0.12413523427E+02  0.22537071337E+02  0.00000000000E+00 0.  1.
</event>
<event>
 7    1  0.5138511E-013  0.5052879E+02  0.7816164E-02  0.1300439E+00
        -11   -1    0    0    0    0  0.00000000000E+00  0.00000000000E+00  0.45593999997E+02  0.45594000000E+02  0.51100000000E-03 0. -1.
         11   -1    0    0    0    0 -0.00000000000E+00 -0.00000000000E+00 -0.45593999997E+02  0.45594000000E+02  0.51100000000E-03 0.  1.
    9900012    2    1    2    0    0  0.22934647106E+02  0.32528254135E+02  0.83118150418E+01  0.50528786724E+02  0.29999777725E+02 0.  0.
        -12    1    1    2    0    0 -0.22934647106E+02 -0.32528254135E+02 -0.83118150418E+01  0.40659213276E+02  0.00000000000E+00 0.  1.
         11    1    3    3    0    0  0.14466415534E+02  0.16682436492E+02  0.14275221854E+02  0.26293779206E+02  0.51100000000E-03 0.  1.
        -11    1    3    3    0    0 -0.34845669925E+01  0.91456187978E+01 -0.25418420644E+01  0.10111652272E+02  0.51100000000E-03 0. -1.
        -12    1    3    3    0    0  0.11952798564E+02  0.67001988458E+01 -0.34215647473E+01  0.14123355246E+02  0.00000000000E+00 0.  1.
</event>
<event>
 7    1  0.5138511E-013  0.5052884E+02  0.7816164E-02  0.1300439E+00
        -11   -1    0    0    0    0  0.00000000000E+00  0.00000000000E+00  0.45593999997E+02  0.45594000000E+02  0.51100000000E-03 0. -1.
         11   -1    0    0    0    0 -0.00000000000E+00 -0.00000000000E+00 -0.45593999997E+02  0.45594000000E+02  0.51100000000E-03 0.  1.
    9900012    2    1    2    0    0 -0.36157594766E+02  0.17674253569E+02  0.57806608626E+01  0.50528844346E+02  0.29999952875E+02 0.  0.
        -12    1    1    2    0    0  0.36157594766E+02 -0.17674253569E+02 -0.57806608626E+01  0.40659155654E+02  0.00000000000E+00 0.  1.
         11    1    3    3    0    0 -0.76810561230E+01  0.10405378617E+02  0.92624835117E+01  0.15907989452E+02  0.51100000000E-03 0. -1.
        -11    1    3    3    0    0 -0.17996016249E+02  0.13267944748E+02 -0.26775130396E+01  0.22518082401E+02  0.51100000000E-03 0.  1.
         12    1    3    3    0    0 -0.10480522394E+02 -0.59990697969E+01 -0.80430960953E+00  0.12102772494E+02  0.00000000000E+00 0. -1.
</event>
<event>
 7    1  0.5138511E-013  0.5052886E+02  0.7816164E-02  0.1300439E+00
        -11   -1    0    0    0    0  0.00000000000E+00  0.00000000000E+00  0.45593999997E+02  0.45594000000E+02  0.51100000000E-03 0.  1.
         11   -1    0    0    0    0 -0.00000000000E+00 -0.00000000000E+00 -0.45593999997E+02  0.45594000000E+02  0.51100000000E-03 0. -1.
    9900012    2    1    2    0    0 -0.24339185357E+02  0.19122709470E+02 -0.26364589911E+02  0.50528861268E+02  0.30000004309E+02 0.  0.
        -12    1    1    2    0    0  0.24339185357E+02 -0.19122709470E+02  0.26364589911E+02  0.40659138732E+02  0.00000000000E+00 0.  1.
         11    1    3    3    0    0 -0.52341513402E+01 -0.12388879030E+01 -0.18447766786E+02  0.19215912238E+02  0.51100000000E-03 0. -1.
        -11    1    3    3    0    0 -0.83961860015E+01  0.26077028830E+01  0.78618094791E+00  0.88268983478E+01  0.51100000000E-03 0.  1.
        -12    1    3    3    0    0 -0.10708848015E+02  0.17753894489E+02 -0.87030040725E+01  0.22486050681E+02  0.00000000000E+00 0.  1.
</event>
<event>
 7    1  0.5138511E-013  0.5052887E+02  0.7816164E-02  0.1300439E+00
        -11   -1    0    0    0    0  0.00000000000E+00  0.00000000000E+00  0.45593999997E+02  0.45594000000E+02  0.51100000000E-03 0.  1.
         11   -1    0    0    0    0 -0.00000000000E+00 -0.00000000000E+00 -0.45593999997E+02  0.45594000000E+02  0.51100000000E-03 0. -1.
    9900012    2    1    2    0    0  0.31487148183E+02  0.20801623825E+02 -0.15133288583E+02  0.50528874606E+02  0.30000044852E+02 0.  0.
        -12    1    1    2    0    0 -0.31487148183E+02 -0.20801623825E+02  0.15133288583E+02  0.40659125394E+02  0.00000000000E+00 0.  1.
         11    1    3    3    0    0  0.31122166449E+01  0.51802185910E+01  0.72989202209E+01  0.94760114894E+01  0.51100000000E-03 0. -1.
        -11    1    3    3    0    0  0.46238770009E+01 -0.15994437067E+01 -0.46342951249E+01  0.67390763652E+01  0.51100000000E-03 0.  1.
         12    1    3    3    0    0  0.23751054537E+02  0.17220848941E+02 -0.17797913679E+02  0.34313786751E+02  0.00000000000E+00 0. -1.
</event>
<event>
 7    1  0.5138511E-013  0.5052886E+02  0.7816164E-02  0.1300439E+00
        -11   -1    0    0    0    0  0.00000000000E+00  0.00000000000E+00  0.45593999997E+02  0.45594000000E+02  0.51100000000E-03 0. -1.
         11   -1    0    0    0    0 -0.00000000000E+00 -0.00000000000E+00 -0.45593999997E+02  0.45594000000E+02  0.51100000000E-03 0.  1.
    9900012    2    1    2    0    0  0.33568060687E+02 -0.19908918097E+02  0.11401133147E+02  0.50528861358E+02  0.30000004583E+02 0.  0.
        -12    1    1    2    0    0 -0.33568060687E+02  0.19908918097E+02 -0.11401133147E+02  0.40659138642E+02  0.00000000000E+00 0.  1.
         11    1    3    3    0    0  0.56597526895E+00 -0.10298162179E+02  0.48306081231E+01  0.11388908963E+02  0.51100000000E-03 0. -1.
        -11    1    3    3    0    0  0.19569840947E+02 -0.13396125514E+02  0.81918246046E+01  0.25090652525E+02  0.51100000000E-03 0.  1.
        -12    1    3    3    0    0  0.13432244471E+02  0.37853695961E+01 -0.16212995808E+01  0.14049299870E+02  0.00000000000E+00 0.  1.
</event>
<event>
 7    1  0.5138511E-013  0.5052887E+02  0.7816164E-02  0.1300439E+00
        -11   -1    0    0    0    0  0.00000000000E+00  0.00000000000E+00  0.45593999997E+02  0.45594000000E+02  0.51100000000E-03 0.  1.
         11   -1    0    0    0    0 -0.00000000000E+00 -0.00000000000E+00 -0.45593999997E+02  0.45594000000E+02  0.51100000000E-03 0. -1.
    9900012    2    1    2    0    0  0.12536136383E+02  0.24342417116E+02 -0.30057565092E+02  0.50528865655E+02  0.30000017644E+02 0.  0.
        -12    1    1    2    0    0 -0.12536136383E+02 -0.24342417116E+02  0.30057565092E+02  0.40659134345E+02  0.00000000000E+00 0.  1.
         11    1    3    3    0    0  0.28246368625E+01  0.27380246893E+02 -0.20416450475E+02  0.34270803078E+02  0.51100000000E-03 0. -1.
        -11    1    3    3    0    0  0.54666097008E+01  0.24563071006E+01 -0.57185178517E+01  0.82836412811E+01  0.51100000000E-03 0.  1.
        -12    1    3    3    0    0  0.42448898201E+01 -0.54941368780E+01 -0.39225967645E+01  0.79744212954E+01  0.00000000000E+00 0.  1.
</event>
<event>
 7    1  0.5138511E-013  0.5052887E+02  0.7816164E-02  0.1300439E+00
        -11   -1    0    0    0    0  0.00000000000E+00  0.00000000000E+00  0.45593999997E+02  0.45594000000E+02  0.51100000000E-03 0.  1.
         11   -1    0    0    0    0 -0.00000000000E+00 -0.00000000000E+00 -0.45593999997E+02  0.45594000000E+02  0.51100000000E-03 0. -1.
    9900012    2    1    2    0    0 -0.10641497272E+02 -0.37056160177E+02 -0.12913741570E+02  0.50528865816E+02  0.30000018135E+02 0.  0.
        -12    1    1    2    0    0  0.10641497272E+02  0.37056160177E+02  0.12913741570E+02  0.40659134184E+02  0.00000000000E+00 0.  1.
         11    1    3    3    0    0 -0.21621875735E+01 -0.15008838258E+02 -0.48829786238E+01  0.15930592000E+02  0.51100000000E-03 0. -1.
        -11    1    3    3    0    0 -0.11534602365E+02 -0.26120083987E+02 -0.70910951755E+01  0.29420901928E+02  0.51100000000E-03 0.  1.
         12    1    3    3    0    0  0.30552926669E+01  0.40727620687E+01 -0.93966777062E+00  0.51773718881E+01  0.00000000000E+00 0. -1.
</event>
<event>
 7    1  0.5138511E-013  0.5052887E+02  0.7816164E-02  0.1300439E+00
        -11   -1    0    0    0    0  0.00000000000E+00  0.00000000000E+00  0.45593999997E+02  0.45594000000E+02  0.51100000000E-03 0. -1.
         11   -1    0    0    0    0 -0.00000000000E+00 -0.00000000000E+00 -0.45593999997E+02  0.45594000000E+02  0.51100000000E-03 0.  1.
    9900012    2    1    2    0    0  0.39929836853E+02 -0.24958099143E+01  0.72487158990E+01  0.50528870393E+02  0.30000032046E+02 0.  0.
        -12    1    1    2    0    0 -0.39929836853E+02  0.24958099143E+01 -0.72487158990E+01  0.40659129607E+02  0.00000000000E+00 0.  1.
         11    1    3    3    0    0  0.86578229583E+01  0.23168018587E+01 -0.30259835580E+01  0.94594950174E+01  0.51100000000E-03 0. -1.
        -11    1    3    3    0    0 -0.34714063939E+01  0.11803728118E+01 -0.14080288799E+01  0.39276567969E+01  0.51100000000E-03 0.  1.
        -12    1    3    3    0    0  0.34743420288E+02 -0.59929845848E+01  0.11682728337E+02  0.37141718579E+02  0.00000000000E+00 0.  1.
</event>
<event>
 7    1  0.5138511E-013  0.5052888E+02  0.7816164E-02  0.1300439E+00
        -11   -1    0    0    0    0  0.00000000000E+00  0.00000000000E+00  0.45593999997E+02  0.45594000000E+02  0.51100000000E-03 0. -1.
         11   -1    0    0    0    0 -0.00000000000E+00 -0.00000000000E+00 -0.45593999997E+02  0.45594000000E+02  0.51100000000E-03 0.  1.
    9900012    2    1    2    0    0 -0.32867952445E+02 -0.16870746200E+02 -0.16977625298E+02  0.50528878809E+02  0.30000057627E+02 0.  0.
        -12    1    1    2    0    0  0.32867952445E+02  0.16870746200E+02  0.16977625298E+02  0.40659121191E+02  0.00000000000E+00 0.  1.
         11    1    3    3    0    0 -0.15743565145E+02 -0.60952235295E+01 -0.38574603664E+01  0.17317378384E+02  0.51100000000E-03 0. -1.
        -11    1    3    3    0    0 -0.18255181653E+02 -0.13308563997E+02 -0.17118910081E+02  0.28344781098E+02  0.51100000000E-03 0.  1.
        -12    1    3    3    0    0  0.11307943536E+01  0.25330413267E+01  0.39987451494E+01  0.48667193265E+01  0.00000000000E+00 0.  1.
</event>
<event>
 7    1  0.5138511E-013  0.5052885E+02  0.7816164E-02  0.1300439E+00
        -11   -1    0    0    0    0  0.00000000000E+00  0.00000000000E+00  0.45593999997E+02  0.45594000000E+02  0.51100000000E-03 0. -1.
         11   -1    0    0    0    0 -0.00000000000E+00 -0.00000000000E+00 -0.45593999997E+02  0.45594000000E+02  0.51100000000E-03 0.  1.
    9900012    2    1    2    0    0 -0.37248782835E+02 -0.14170147402E+02  0.80561369883E+01  0.50528852896E+02  0.29999978862E+02 0.  0.
        -12    1    1    2    0    0  0.37248782835E+02  0.14170147402E+02 -0.80561369883E+01  0.40659147104E+02  0.00000000000E+00 0.  1.
         11    1    3    3    0    0 -0.30360669057E+02  0.38505376236E+00  0.73896842858E+01  0.31249414812E+02  0.51100000000E-03 0.  1.
        -11    1    3    3    0    0 -0.12419570074E+01 -0.13723868693E+01  0.41302422577E+01  0.45260141731E+01  0.51100000000E-03 0. -1.
        -12    1    3    3    0    0 -0.56461567700E+01 -0.13182814295E+02 -0.34637895552E+01  0.14753423910E+02  0.00000000000E+00 0.  1.
</event>
<event>
 7    1  0.5138511E-013  0.5052887E+02  0.7816164E-02  0.1300439E+00
        -11   -1    0    0    0    0  0.00000000000E+00  0.00000000000E+00  0.45593999997E+02  0.45594000000E+02  0.51100000000E-03 0.  1.
         11   -1    0    0    0    0 -0.00000000000E+00 -0.00000000000E+00 -0.45593999997E+02  0.45594000000E+02  0.51100000000E-03 0. -1.
    9900012    2    1    2    0    0  0.16848035401E+02  0.11392419030E+02 -0.35206836921E+02  0.50528869731E+02  0.30000030035E+02 0.  0.
        -12    1    1    2    0    0 -0.16848035401E+02 -0.11392419030E+02  0.35206836921E+02  0.40659130269E+02  0.00000000000E+00 0.  1.
         11    1    3    3    0    0  0.11864894554E+02  0.10369699932E+02 -0.14438299697E+02  0.21372199182E+02  0.51100000000E-03 0. -1.
        -11    1    3    3    0    0  0.11780113755E+02 -0.34317346161E+01 -0.11319088335E+02  0.16693401198E+02  0.51100000000E-03 0.  1.
        -12    1    3    3    0    0 -0.67969729085E+01  0.44544537135E+01 -0.94494488894E+01  0.12463269351E+02  0.00000000000E+00 0.  1.
</event>
<event>
 7    1  0.5991651E-013  0.5052891E+02  0.7816164E-02  0.1300439E+00
        -11   -1    0    0    0    0  0.00000000000E+00  0.00000000000E+00  0.45593999997E+02  0.45594000000E+02  0.51100000000E-03 0.  1.
         11   -1    0    0    0    0 -0.00000000000E+00 -0.00000000000E+00 -0.45593999997E+02  0.45594000000E+02  0.51100000000E-03 0. -1.
    9900012    2    1    2    0    0 -0.27227706893E+02  0.43285888937E+01 -0.29884391799E+02  0.50528910271E+02  0.30000153258E+02 0.  0.
        -12    1    1    2    0    0  0.27227706893E+02 -0.43285888937E+01  0.29884391799E+02  0.40659089729E+02  0.00000000000E+00 0.  1.
         11    1    3    3    0    0 -0.10989059147E+02 -0.73074247075E+00 -0.18129506318E+02  0.21212553008E+02  0.51100000000E-03 0. -1.
        -11    1    3    3    0    0 -0.46717582762E+01  0.96983088468E+01 -0.12899802089E+02  0.16801411074E+02  0.51100000000E-03 0.  1.
        -12    1    3    3    0    0 -0.11566889469E+02 -0.46389774823E+01  0.11449166087E+01  0.12514946189E+02  0.00000000000E+00 0.  1.
</event>
<event>
 7    1  0.5138511E-013  0.5052886E+02  0.7816164E-02  0.1300439E+00
        -11   -1    0    0    0    0  0.00000000000E+00  0.00000000000E+00  0.45593999997E+02  0.45594000000E+02  0.51100000000E-03 0. -1.
         11   -1    0    0    0    0 -0.00000000000E+00 -0.00000000000E+00 -0.45593999997E+02  0.45594000000E+02  0.51100000000E-03 0.  1.
    9900012    2    1    2    0    0 -0.10078767209E+02  0.36591027268E+02  0.14583586007E+02  0.50528858275E+02  0.29999995214E+02 0.  0.
        -12    1    1    2    0    0  0.10078767209E+02 -0.36591027268E+02 -0.14583586007E+02  0.40659141725E+02  0.00000000000E+00 0.  1.
         11    1    3    3    0    0  0.63976168868E+01  0.93580390332E+01  0.10610871836E+02  0.15527169663E+02  0.51100000000E-03 0. -1.
        -11    1    3    3    0    0 -0.47607213597E+01  0.20269382567E+02  0.47308528064E+01  0.21351658157E+02  0.51100000000E-03 0.  1.
        -12    1    3    3    0    0 -0.11715662736E+02  0.69636056677E+01 -0.75813863501E+00  0.13650030455E+02  0.00000000000E+00 0.  1.
</event>
<event>
 7    1  0.5138511E-013  0.5052886E+02  0.7816164E-02  0.1300439E+00
        -11   -1    0    0    0    0  0.00000000000E+00  0.00000000000E+00  0.45593999997E+02  0.45594000000E+02  0.51100000000E-03 0. -1.
         11   -1    0    0    0    0 -0.00000000000E+00 -0.00000000000E+00 -0.45593999997E+02  0.45594000000E+02  0.51100000000E-03 0.  1.
    9900012    2    1    2    0    0 -0.25635874826E+02  0.29297497890E+02 -0.11731325500E+02  0.50528862544E+02  0.30000008189E+02 0.  0.
        -12    1    1    2    0    0  0.25635874826E+02 -0.29297497890E+02  0.11731325500E+02  0.40659137456E+02  0.00000000000E+00 0.  1.
         11    1    3    3    0    0 -0.29183663698E+02  0.26420107370E+02 -0.30378494645E+01  0.39483374095E+02  0.51100000000E-03 0. -1.
        -11    1    3    3    0    0 -0.11536738496E+01 -0.20762121135E+00 -0.12092502796E+01  0.16841485738E+01  0.51100000000E-03 0.  1.
         12    1    3    3    0    0  0.47014627222E+01  0.30850117314E+01 -0.74842257554E+01  0.93613398758E+01  0.00000000000E+00 0. -1.
</event>
<event>
 7    1  0.5138511E-013  0.5052886E+02  0.7816164E-02  0.1300439E+00
        -11   -1    0    0    0    0  0.00000000000E+00  0.00000000000E+00  0.45593999997E+02  0.45594000000E+02  0.51100000000E-03 0. -1.
         11   -1    0    0    0    0 -0.00000000000E+00 -0.00000000000E+00 -0.45593999997E+02  0.45594000000E+02  0.51100000000E-03 0.  1.
    9900012    2    1    2    0    0 -0.14089112829E+02  0.37642466434E+02 -0.61405961307E+01  0.50528864490E+02  0.30000014104E+02 0.  0.
        -12    1    1    2    0    0  0.14089112829E+02 -0.37642466434E+02  0.61405961307E+01  0.40659135510E+02  0.00000000000E+00 0.  1.
         11    1    3    3    0    0  0.32634309927E+01  0.84457114013E+01  0.63262087079E+01  0.11045403560E+02  0.51100000000E-03 0.  1.
        -11    1    3    3    0    0  0.14318639845E+01  0.44659758095E+01 -0.62459291797E+01  0.78106853720E+01  0.51100000000E-03 0. -1.
         12    1    3    3    0    0 -0.18784407806E+02  0.24730779224E+02 -0.62208756589E+01  0.31672775559E+02  0.00000000000E+00 0. -1.
</event>
<event>
 7    1  0.5138511E-013  0.5052887E+02  0.7816164E-02  0.1300439E+00
        -11   -1    0    0    0    0  0.00000000000E+00  0.00000000000E+00  0.45593999997E+02  0.45594000000E+02  0.51100000000E-03 0. -1.
         11   -1    0    0    0    0 -0.00000000000E+00 -0.00000000000E+00 -0.45593999997E+02  0.45594000000E+02  0.51100000000E-03 0.  1.
    9900012    2    1    2    0    0  0.86651751158E+01 -0.31221138305E+02  0.24562568909E+02  0.50528873986E+02  0.30000042967E+02 0.  0.
        -12    1    1    2    0    0 -0.86651751158E+01  0.31221138305E+02 -0.24562568909E+02  0.40659126014E+02  0.00000000000E+00 0.  1.
         11    1    3    3    0    0 -0.17523312279E+00 -0.39976955311E+01  0.16498472599E+02  0.16976804015E+02  0.51100000000E-03 0. -1.
        -11    1    3    3    0    0  0.12522834343E+02 -0.14103734199E+02  0.58446830126E+01  0.19745810141E+02  0.51100000000E-03 0.  1.
         12    1    3    3    0    0 -0.36824261047E+01 -0.13119708575E+02  0.22194132975E+01  0.13806259830E+02  0.00000000000E+00 0. -1.
</event>
<event>
 7    1  0.5138511E-013  0.5052885E+02  0.7816164E-02  0.1300439E+00
        -11   -1    0    0    0    0  0.00000000000E+00  0.00000000000E+00  0.45593999997E+02  0.45594000000E+02  0.51100000000E-03 0. -1.
         11   -1    0    0    0    0 -0.00000000000E+00 -0.00000000000E+00 -0.45593999997E+02  0.45594000000E+02  0.51100000000E-03 0.  1.
    9900012    2    1    2    0    0 -0.40059119489E+02 -0.51845926328E+01  0.46425413590E+01  0.50528852871E+02  0.29999978786E+02 0.  0.
        -12    1    1    2    0    0  0.40059119489E+02  0.51845926328E+01 -0.46425413590E+01  0.40659147129E+02  0.00000000000E+00 0.  1.
         11    1    3    3    0    0 -0.59567432840E+01 -0.14174375387E+01  0.11161671549E+02  0.12730861391E+02  0.51100000000E-03 0. -1.
        -11    1    3    3    0    0 -0.67770637462E+01  0.29513884308E+01 -0.62146761023E+01  0.96571986626E+01  0.51100000000E-03 0.  1.
         12    1    3    3    0    0 -0.27325312459E+02 -0.67185435250E+01 -0.30445408782E+00  0.28140792817E+02  0.00000000000E+00 0. -1.
</event>
<event>
 7    1  0.5138511E-013  0.5052885E+02  0.7816164E-02  0.1300439E+00
        -11   -1    0    0    0    0  0.00000000000E+00  0.00000000000E+00  0.45593999997E+02  0.45594000000E+02  0.51100000000E-03 0.  1.
         11   -1    0    0    0    0 -0.00000000000E+00 -0.00000000000E+00 -0.45593999997E+02  0.45594000000E+02  0.51100000000E-03 0. -1.
    9900012    2    1    2    0    0 -0.24688510248E+02  0.20215542286E+02 -0.25198718148E+02  0.50528854848E+02  0.29999984796E+02 0.  0.
        -12    1    1    2    0    0  0.24688510248E+02 -0.20215542286E+02  0.25198718148E+02  0.40659145152E+02  0.00000000000E+00 0.  1.
         11    1    3    3    0    0  0.59418665544E+00  0.46539613972E+01 -0.33353049444E+01  0.57564462823E+01  0.51100000000E-03 0.  1.
        -11    1    3    3    0    0 -0.18256713483E+02  0.13078594272E+02 -0.27444670872E+02  0.35462193599E+02  0.51100000000E-03 0. -1.
        -12    1    3    3    0    0 -0.70259834206E+01  0.24829866173E+01  0.55812576682E+01  0.93102149667E+01  0.00000000000E+00 0.  1.
</event>
<event>
 7    1  0.5138511E-013  0.5052888E+02  0.7816164E-02  0.1300439E+00
        -11   -1    0    0    0    0  0.00000000000E+00  0.00000000000E+00  0.45593999997E+02  0.45594000000E+02  0.51100000000E-03 0.  1.
         11   -1    0    0    0    0 -0.00000000000E+00 -0.00000000000E+00 -0.45593999997E+02  0.45594000000E+02  0.51100000000E-03 0. -1.
    9900012    2    1    2    0    0  0.63711672647E+01  0.11019887468E+02 -0.38615205888E+02  0.50528882721E+02  0.30000069520E+02 0.  0.
        -12    1    1    2    0    0 -0.63711672647E+01 -0.11019887468E+02  0.38615205888E+02  0.40659117279E+02  0.00000000000E+00 0.  1.
         11    1    3    3    0    0  0.22989361781E+01 -0.35845197704E+01 -0.34625851938E+00  0.42724448222E+01  0.51100000000E-03 0. -1.
        -11    1    3    3    0    0  0.77335016730E+01  0.93878624637E+01 -0.63758941722E+01  0.13732845172E+02  0.51100000000E-03 0.  1.
         12    1    3    3    0    0 -0.36612705863E+01  0.52165447743E+01 -0.31893053196E+02  0.32523592727E+02  0.00000000000E+00 0. -1.
</event>
<event>
 7    1  0.5138511E-013  0.5052885E+02  0.7816164E-02  0.1300439E+00
        -11   -1    0    0    0    0  0.00000000000E+00  0.00000000000E+00  0.45593999997E+02  0.45594000000E+02  0.51100000000E-03 0. -1.
         11   -1    0    0    0    0 -0.00000000000E+00 -0.00000000000E+00 -0.45593999997E+02  0.45594000000E+02  0.51100000000E-03 0.  1.
    9900012    2    1    2    0    0 -0.30736233880E+02 -0.22347705868E+02  0.14457872575E+02  0.50528854533E+02  0.29999983838E+02 0.  0.
        -12    1    1    2    0    0  0.30736233880E+02  0.22347705868E+02 -0.14457872575E+02  0.40659145467E+02  0.00000000000E+00 0.  1.
         11    1    3    3    0    0 -0.69955413255E+01 -0.43023666743E+01  0.33587218985E+01  0.88729347169E+01  0.51100000000E-03 0. -1.
        -11    1    3    3    0    0  0.51484410056E+01  0.12758466699E+01  0.53484326400E+00  0.53310681004E+01  0.51100000000E-03 0.  1.
        -12    1    3    3    0    0 -0.28889133560E+02 -0.19321185864E+02  0.10564307413E+02  0.36324851716E+02  0.00000000000E+00 0.  1.
</event>
<event>
 7    1  0.5138511E-013  0.5052886E+02  0.7816164E-02  0.1300439E+00
        -11   -1    0    0    0    0  0.00000000000E+00  0.00000000000E+00  0.45593999997E+02  0.45594000000E+02  0.51100000000E-03 0. -1.
         11   -1    0    0    0    0 -0.00000000000E+00 -0.00000000000E+00 -0.45593999997E+02  0.45594000000E+02  0.51100000000E-03 0.  1.
    9900012    2    1    2    0    0 -0.23449273347E+01  0.26827270383E+02  0.30462514014E+02  0.50528857357E+02  0.29999992423E+02 0.  0.
        -12    1    1    2    0    0  0.23449273347E+01 -0.26827270383E+02 -0.30462514014E+02  0.40659142643E+02  0.00000000000E+00 0.  1.
         11    1    3    3    0    0  0.90727325951E+00  0.25973041868E+01  0.55461998224E+01  0.61910795938E+01  0.51100000000E-03 0. -1.
        -11    1    3    3    0    0 -0.15148274171E+02  0.10413987288E+02  0.11241334605E+02  0.21547365165E+02  0.51100000000E-03 0.  1.
        -12    1    3    3    0    0  0.11896073576E+02  0.13815978908E+02  0.13674979586E+02  0.22790412598E+02  0.00000000000E+00 0.  1.
</event>
<event>
 7    1  0.5138511E-013  0.5052886E+02  0.7816164E-02  0.1300439E+00
        -11   -1    0    0    0    0  0.00000000000E+00  0.00000000000E+00  0.45593999997E+02  0.45594000000E+02  0.51100000000E-03 0. -1.
         11   -1    0    0    0    0 -0.00000000000E+00 -0.00000000000E+00 -0.45593999997E+02  0.45594000000E+02  0.51100000000E-03 0.  1.
    9900012    2    1    2    0    0  0.40180287554E+02 -0.51063718390E+01  0.35546033266E+01  0.50528859009E+02  0.29999997444E+02 0.  0.
        -12    1    1    2    0    0 -0.40180287554E+02  0.51063718390E+01 -0.35546033266E+01  0.40659140991E+02  0.00000000000E+00 0.  1.
         11    1    3    3    0    0  0.81351404887E+01 -0.17521644940E+01 -0.53146645612E+00  0.83386478544E+01  0.51100000000E-03 0. -1.
        -11    1    3    3    0    0  0.16878483104E+02 -0.10039441062E+02 -0.84793319038E+01  0.21390947584E+02  0.51100000000E-03 0.  1.
         12    1    3    3    0    0  0.15166663961E+02  0.66852337166E+01  0.12565401686E+02  0.20799263571E+02  0.00000000000E+00 0. -1.
</event>
<event>
 7    1  0.5138511E-013  0.5052884E+02  0.7816164E-02  0.1300439E+00
        -11   -1    0    0    0    0  0.00000000000E+00  0.00000000000E+00  0.45593999997E+02  0.45594000000E+02  0.51100000000E-03 0.  1.
         11   -1    0    0    0    0 -0.00000000000E+00 -0.00000000000E+00 -0.45593999997E+02  0.45594000000E+02  0.51100000000E-03 0. -1.
    9900012    2    1    2    0    0  0.69494546601E+00  0.44736379235E+01 -0.40406317645E+02  0.50528844929E+02  0.29999954645E+02 0.  0.
        -12    1    1    2    0    0 -0.69494546601E+00 -0.44736379235E+01  0.40406317645E+02  0.40659155071E+02  0.00000000000E+00 0.  1.
         11    1    3    3    0    0  0.77792128123E+00 -0.45358878007E+01 -0.10782585758E+02  0.11723634059E+02  0.51100000000E-03 0. -1.
        -11    1    3    3    0    0  0.53431095998E+01 -0.24151870593E+01  0.74237971961E+00  0.59104210201E+01  0.51100000000E-03 0.  1.
         12    1    3    3    0    0 -0.54260854150E+01  0.11424712783E+02 -0.30366111606E+02  0.32894789849E+02  0.00000000000E+00 0. -1.
</event>
<event>
 7    1  0.5138511E-013  0.5052883E+02  0.7816164E-02  0.1300439E+00
        -11   -1    0    0    0    0  0.00000000000E+00  0.00000000000E+00  0.45593999997E+02  0.45594000000E+02  0.51100000000E-03 0. -1.
         11   -1    0    0    0    0 -0.00000000000E+00 -0.00000000000E+00 -0.45593999997E+02  0.45594000000E+02  0.51100000000E-03 0.  1.
    9900012    2    1    2    0    0 -0.57122955421E+01 -0.27349156454E+02  0.29539154118E+02  0.50528827540E+02  0.29999901790E+02 0.  0.
        -12    1    1    2    0    0  0.57122955421E+01  0.27349156454E+02 -0.29539154118E+02  0.40659172460E+02  0.00000000000E+00 0.  1.
         11    1    3    3    0    0 -0.49364695415E+01 -0.15890739080E+02  0.14373617231E+02  0.21988296719E+02  0.51100000000E-03 0. -1.
        -11    1    3    3    0    0 -0.87800684967E+01 -0.12950887654E+02  0.12322317885E+02  0.19916189700E+02  0.51100000000E-03 0.  1.
        -12    1    3    3    0    0  0.80042424961E+01  0.14924702802E+01  0.28432190018E+01  0.86243411207E+01  0.00000000000E+00 0.  1.
</event>
<event>
 7    1  0.5138511E-013  0.5052885E+02  0.7816164E-02  0.1300439E+00
        -11   -1    0    0    0    0  0.00000000000E+00  0.00000000000E+00  0.45593999997E+02  0.45594000000E+02  0.51100000000E-03 0. -1.
         11   -1    0    0    0    0 -0.00000000000E+00 -0.00000000000E+00 -0.45593999997E+02  0.45594000000E+02  0.51100000000E-03 0.  1.
    9900012    2    1    2    0    0  0.40194416601E+02  0.21334894891E+01 -0.57466131643E+01  0.50528850155E+02  0.29999970530E+02 0.  0.
        -12    1    1    2    0    0 -0.40194416601E+02 -0.21334894891E+01  0.57466131643E+01  0.40659149845E+02  0.00000000000E+00 0.  1.
         11    1    3    3    0    0  0.14031336014E+02  0.79867734841E+01  0.95671856661E+01  0.18766938558E+02  0.51100000000E-03 0. -1.
        -11    1    3    3    0    0  0.19347299140E+02 -0.96153283991E+00 -0.11673415234E+02  0.22616612322E+02  0.51100000000E-03 0.  1.
        -12    1    3    3    0    0  0.68157814466E+01 -0.48917511551E+01 -0.36403835960E+01  0.91452992743E+01  0.00000000000E+00 0.  1.
</event>
<event>
 7    1  0.5138511E-013  0.5052886E+02  0.7816164E-02  0.1300439E+00
        -11   -1    0    0    0    0  0.00000000000E+00  0.00000000000E+00  0.45593999997E+02  0.45594000000E+02  0.51100000000E-03 0.  1.
         11   -1    0    0    0    0 -0.00000000000E+00 -0.00000000000E+00 -0.45593999997E+02  0.45594000000E+02  0.51100000000E-03 0. -1.
    9900012    2    1    2    0    0 -0.72195790427E+01  0.33774145176E+02 -0.21455785874E+02  0.50528856485E+02  0.29999989771E+02 0.  0.
        -12    1    1    2    0    0  0.72195790427E+01 -0.33774145176E+02  0.21455785874E+02  0.40659143515E+02  0.00000000000E+00 0.  1.
         11    1    3    3    0    0 -0.10436895202E+02  0.14191202757E+02 -0.12020810826E+02  0.21326483778E+02  0.51100000000E-03 0.  1.
        -11    1    3    3    0    0 -0.33054599587E+01 -0.27105082305E+01 -0.25406857657E+01  0.49727260962E+01  0.51100000000E-03 0. -1.
         12    1    3    3    0    0  0.65227761185E+01  0.22293450649E+02 -0.68942892822E+01  0.24229646610E+02  0.00000000000E+00 0. -1.
</event>
<event>
 7    1  0.5138511E-013  0.5052886E+02  0.7816164E-02  0.1300439E+00
        -11   -1    0    0    0    0  0.00000000000E+00  0.00000000000E+00  0.45593999997E+02  0.45594000000E+02  0.51100000000E-03 0. -1.
         11   -1    0    0    0    0 -0.00000000000E+00 -0.00000000000E+00 -0.45593999997E+02  0.45594000000E+02  0.51100000000E-03 0.  1.
    9900012    2    1    2    0    0  0.90493869963E+00  0.36342705170E+02 -0.18208640256E+02  0.50528859415E+02  0.29999998678E+02 0.  0.
        -12    1    1    2    0    0 -0.90493869963E+00 -0.36342705170E+02  0.18208640256E+02  0.40659140585E+02  0.00000000000E+00 0.  1.
         11    1    3    3    0    0  0.11829384031E+01  0.30050371125E+02 -0.15388514712E+02  0.33782103743E+02  0.51100000000E-03 0. -1.
        -11    1    3    3    0    0  0.60472991738E+01  0.55552639497E+01 -0.54514597203E+01  0.98564292820E+01  0.51100000000E-03 0.  1.
         12    1    3    3    0    0 -0.63252988773E+01  0.73707009548E+00  0.26313341765E+01  0.68903263901E+01  0.00000000000E+00 0. -1.
</event>
<event>
 7    1  0.5138511E-013  0.5052885E+02  0.7816164E-02  0.1300439E+00
        -11   -1    0    0    0    0  0.00000000000E+00  0.00000000000E+00  0.45593999997E+02  0.45594000000E+02  0.51100000000E-03 0.  1.
         11   -1    0    0    0    0 -0.00000000000E+00 -0.00000000000E+00 -0.45593999997E+02  0.45594000000E+02  0.51100000000E-03 0. -1.
    9900012    2    1    2    0    0 -0.47821086967E+01 -0.39381143987E+02 -0.89119601794E+01  0.50528854663E+02  0.29999984233E+02 0.  0.
        -12    1    1    2    0    0  0.47821086967E+01  0.39381143987E+02  0.89119601794E+01  0.40659145337E+02  0.00000000000E+00 0.  1.
         11    1    3    3    0    0  0.15858453163E+01 -0.24347287939E+02 -0.92001913454E+01  0.26075828969E+02  0.51100000000E-03 0. -1.
        -11    1    3    3    0    0  0.34055792632E+01  0.22707063863E+01 -0.17966354282E+01  0.44701204384E+01  0.51100000000E-03 0.  1.
         12    1    3    3    0    0 -0.97735332763E+01 -0.17304562434E+02  0.20848665942E+01  0.19982905256E+02  0.00000000000E+00 0. -1.
</event>
<event>
 7    1  0.5138511E-013  0.5052886E+02  0.7816164E-02  0.1300439E+00
        -11   -1    0    0    0    0  0.00000000000E+00  0.00000000000E+00  0.45593999997E+02  0.45594000000E+02  0.51100000000E-03 0. -1.
         11   -1    0    0    0    0 -0.00000000000E+00 -0.00000000000E+00 -0.45593999997E+02  0.45594000000E+02  0.51100000000E-03 0.  1.
    9900012    2    1    2    0    0 -0.30437850788E+02 -0.22872846748E+02 -0.14266588901E+02  0.50528862801E+02  0.30000008969E+02 0.  0.
        -12    1    1    2    0    0  0.30437850788E+02  0.22872846748E+02  0.14266588901E+02  0.40659137199E+02  0.00000000000E+00 0.  1.
         11    1    3    3    0    0 -0.24773861296E+01  0.11659944822E+01 -0.57268831735E+01  0.63477693965E+01  0.51100000000E-03 0. -1.
        -11    1    3    3    0    0 -0.80705319941E+01 -0.15103977476E+02  0.58038263148E+01  0.18081704079E+02  0.51100000000E-03 0.  1.
         12    1    3    3    0    0 -0.19889932664E+02 -0.89348637543E+01 -0.14343532042E+02  0.26099389325E+02  0.00000000000E+00 0. -1.
</event>
<event>
 7    1  0.5138511E-013  0.5052885E+02  0.7816164E-02  0.1300439E+00
        -11   -1    0    0    0    0  0.00000000000E+00  0.00000000000E+00  0.45593999997E+02  0.45594000000E+02  0.51100000000E-03 0.  1.
         11   -1    0    0    0    0 -0.00000000000E+00 -0.00000000000E+00 -0.45593999997E+02  0.45594000000E+02  0.51100000000E-03 0. -1.
    9900012    2    1    2    0    0  0.79983695754E+00 -0.14293281443E+02 -0.38055597342E+02  0.50528854379E+02  0.29999983370E+02 0.  0.
        -12    1    1    2    0    0 -0.79983695754E+00  0.14293281443E+02  0.38055597342E+02  0.40659145621E+02  0.00000000000E+00 0.  1.
         11    1    3    3    0    0  0.69574445546E+00 -0.12636220646E+02 -0.11468514905E+02  0.17078787045E+02  0.51100000000E-03 0.  1.
        -11    1    3    3    0    0 -0.86781479339E+01  0.12298220852E+01 -0.53010451001E+01  0.10243231587E+02  0.51100000000E-03 0. -1.
         12    1    3    3    0    0  0.87822404360E+01 -0.28868828823E+01 -0.21286037338E+02  0.23206835747E+02  0.00000000000E+00 0. -1.
</event>
<event>
 7    1  0.5138511E-013  0.5052886E+02  0.7816164E-02  0.1300439E+00
        -11   -1    0    0    0    0  0.00000000000E+00  0.00000000000E+00  0.45593999997E+02  0.45594000000E+02  0.51100000000E-03 0.  1.
         11   -1    0    0    0    0 -0.00000000000E+00 -0.00000000000E+00 -0.45593999997E+02  0.45594000000E+02  0.51100000000E-03 0. -1.
    9900012    2    1    2    0    0 -0.26122198928E+02 -0.21864778733E+02 -0.22197476508E+02  0.50528858480E+02  0.29999995835E+02 0.  0.
        -12    1    1    2    0    0  0.26122198928E+02  0.21864778733E+02  0.22197476508E+02  0.40659141520E+02  0.00000000000E+00 0.  1.
         11    1    3    3    0    0 -0.20652659482E+02 -0.92648883181E+01 -0.24859464355E+02  0.33620878446E+02  0.51100000000E-03 0. -1.
        -11    1    3    3    0    0  0.15194716098E+01  0.45915340731E+00 -0.67531643408E+00  0.17250125715E+01  0.51100000000E-03 0.  1.
        -12    1    3    3    0    0 -0.69890110565E+01 -0.13059043822E+02  0.33373042815E+01  0.15182967462E+02  0.00000000000E+00 0.  1.
</event>
<event>
 7    1  0.5138511E-013  0.5052886E+02  0.7816164E-02  0.1300439E+00
        -11   -1    0    0    0    0  0.00000000000E+00  0.00000000000E+00  0.45593999997E+02  0.45594000000E+02  0.51100000000E-03 0.  1.
         11   -1    0    0    0    0 -0.00000000000E+00 -0.00000000000E+00 -0.45593999997E+02  0.45594000000E+02  0.51100000000E-03 0. -1.
    9900012    2    1    2    0    0 -0.18815514742E+02 -0.28110487232E+02 -0.22559757733E+02  0.50528858882E+02  0.29999997058E+02 0.  0.
        -12    1    1    2    0    0  0.18815514742E+02  0.28110487232E+02  0.22559757733E+02  0.40659141118E+02  0.00000000000E+00 0.  1.
         11    1    3    3    0    0 -0.74309451077E+01 -0.68949769320E+01 -0.14103393338E+02  0.17368516229E+02  0.51100000000E-03 0. -1.
        -11    1    3    3    0    0  0.62601491589E+01 -0.54087411497E+01 -0.10462272177E+01  0.83389771536E+01  0.51100000000E-03 0.  1.
        -12    1    3    3    0    0 -0.17644718794E+02 -0.15806769150E+02 -0.74101371778E+01  0.24821365500E+02  0.00000000000E+00 0.  1.
</event>
<event>
 7    1  0.5138511E-013  0.5052885E+02  0.7816164E-02  0.1300439E+00
        -11   -1    0    0    0    0  0.00000000000E+00  0.00000000000E+00  0.45593999997E+02  0.45594000000E+02  0.51100000000E-03 0.  1.
         11   -1    0    0    0    0 -0.00000000000E+00 -0.00000000000E+00 -0.45593999997E+02  0.45594000000E+02  0.51100000000E-03 0. -1.
    9900012    2    1    2    0    0 -0.30295331617E+02  0.75333880824E+01 -0.26050091796E+02  0.50528851751E+02  0.29999975382E+02 0.  0.
        -12    1    1    2    0    0  0.30295331617E+02 -0.75333880824E+01  0.26050091796E+02  0.40659148249E+02  0.00000000000E+00 0.  1.
         11    1    3    3    0    0  0.64712444623E+00 -0.16492967664E+01 -0.97799561861E+01  0.99391394565E+01  0.51100000000E-03 0. -1.
        -11    1    3    3    0    0 -0.54686027232E+01 -0.49670735397E+01 -0.37651509363E+00  0.73972426734E+01  0.51100000000E-03 0.  1.
        -12    1    3    3    0    0 -0.25473853340E+02  0.14149758389E+02 -0.15893620516E+02  0.33192469621E+02  0.00000000000E+00 0.  1.
</event>
<event>
 7    1  0.5138511E-013  0.5052886E+02  0.7816164E-02  0.1300439E+00
        -11   -1    0    0    0    0  0.00000000000E+00  0.00000000000E+00  0.45593999997E+02  0.45594000000E+02  0.51100000000E-03 0.  1.
         11   -1    0    0    0    0 -0.00000000000E+00 -0.00000000000E+00 -0.45593999997E+02  0.45594000000E+02  0.51100000000E-03 0. -1.
    9900012    2    1    2    0    0  0.13386141345E+02  0.27008993952E+02 -0.27285361903E+02  0.50528861930E+02  0.30000006322E+02 0.  0.
        -12    1    1    2    0    0 -0.13386141345E+02 -0.27008993952E+02  0.27285361903E+02  0.40659138070E+02  0.00000000000E+00 0.  1.
         11    1    3    3    0    0  0.13699704876E+01  0.19700968620E+00  0.59792736269E+00  0.15076967021E+01  0.51100000000E-03 0.  1.
        -11    1    3    3    0    0  0.95389216392E+01  0.19798216654E+02 -0.33244768904E+02  0.39851914239E+02  0.51100000000E-03 0. -1.
         12    1    3    3    0    0  0.24772492182E+01  0.70137676115E+01  0.53614796381E+01  0.91692509894E+01  0.00000000000E+00 0. -1.
</event>
<event>
 7    1  0.5138511E-013  0.5052886E+02  0.7816164E-02  0.1300439E+00
        -11   -1    0    0    0    0  0.00000000000E+00  0.00000000000E+00  0.45593999997E+02  0.45594000000E+02  0.51100000000E-03 0.  1.
         11   -1    0    0    0    0 -0.00000000000E+00 -0.00000000000E+00 -0.45593999997E+02  0.45594000000E+02  0.51100000000E-03 0. -1.
    9900012    2    1    2    0    0  0.49023795498E+00 -0.19957644965E+02 -0.35420579667E+02  0.50528863391E+02  0.30000010765E+02 0.  0.
        -12    1    1    2    0    0 -0.49023795498E+00  0.19957644965E+02  0.35420579667E+02  0.40659136609E+02  0.00000000000E+00 0.  1.
         11    1    3    3    0    0 -0.16980857345E+00 -0.16957081824E+02 -0.40300398288E+02  0.43722918034E+02  0.51100000000E-03 0. -1.
        -11    1    3    3    0    0 -0.64476070804E-01 -0.19670016935E+01  0.22247566528E+00  0.19805929690E+01  0.51100000000E-03 0.  1.
         12    1    3    3    0    0  0.72452259924E+00 -0.10335614471E+01  0.46573429561E+01  0.48253523884E+01  0.00000000000E+00 0. -1.
</event>
<event>
 7    1  0.5138511E-013  0.5052885E+02  0.7816164E-02  0.1300439E+00
        -11   -1    0    0    0    0  0.00000000000E+00  0.00000000000E+00  0.45593999997E+02  0.45594000000E+02  0.51100000000E-03 0. -1.
         11   -1    0    0    0    0 -0.00000000000E+00 -0.00000000000E+00 -0.45593999997E+02  0.45594000000E+02  0.51100000000E-03 0.  1.
    9900012    2    1    2    0    0 -0.32091760724E+02  0.24697357696E+02  0.36504300983E+01  0.50528853139E+02  0.29999979601E+02 0.  0.
        -12    1    1    2    0    0  0.32091760724E+02 -0.24697357696E+02 -0.36504300983E+01  0.40659146861E+02  0.00000000000E+00 0.  1.
         11    1    3    3    0    0 -0.16932390565E+02  0.48911893144E+00  0.19366764528E+01  0.17049803621E+02  0.51100000000E-03 0. -1.
        -11    1    3    3    0    0 -0.13628375090E+02  0.56846097392E+01  0.19227554832E+01  0.14891084057E+02  0.51100000000E-03 0.  1.
        -12    1    3    3    0    0 -0.15309950691E+01  0.18523629026E+02 -0.20900183774E+00  0.18587965460E+02  0.00000000000E+00 0.  1.
</event>
<event>
 7    1  0.5138511E-013  0.5052884E+02  0.7816164E-02  0.1300439E+00
        -11   -1    0    0    0    0  0.00000000000E+00  0.00000000000E+00  0.45593999997E+02  0.45594000000E+02  0.51100000000E-03 0.  1.
         11   -1    0    0    0    0 -0.00000000000E+00 -0.00000000000E+00 -0.45593999997E+02  0.45594000000E+02  0.51100000000E-03 0. -1.
    9900012    2    1    2    0    0 -0.38421288185E+02  0.11661208766E+02 -0.64021683299E+01  0.50528844389E+02  0.29999953004E+02 0.  0.
        -12    1    1    2    0    0  0.38421288185E+02 -0.11661208766E+02  0.64021683299E+01  0.40659155611E+02  0.00000000000E+00 0.  1.
         11    1    3    3    0    0 -0.13518057223E+02  0.63551669175E+01 -0.28438971858E+01  0.15205715014E+02  0.51100000000E-03 0. -1.
        -11    1    3    3    0    0 -0.17101213384E+02  0.14752150966E+02 -0.71250959882E-01  0.22585006847E+02  0.51100000000E-03 0.  1.
        -12    1    3    3    0    0 -0.78020175783E+01 -0.94461091177E+01 -0.34870201842E+01  0.12738122527E+02  0.00000000000E+00 0.  1.
</event>
<event>
 7    1  0.5138511E-013  0.5052886E+02  0.7816164E-02  0.1300439E+00
        -11   -1    0    0    0    0  0.00000000000E+00  0.00000000000E+00  0.45593999997E+02  0.45594000000E+02  0.51100000000E-03 0.  1.
         11   -1    0    0    0    0 -0.00000000000E+00 -0.00000000000E+00 -0.45593999997E+02  0.45594000000E+02  0.51100000000E-03 0. -1.
    9900012    2    1    2    0    0 -0.96628458465E+01  0.35986233666E+02 -0.16272236133E+02  0.50528864838E+02  0.30000015162E+02 0.  0.
        -12    1    1    2    0    0  0.96628458465E+01 -0.35986233666E+02  0.16272236133E+02  0.40659135162E+02  0.00000000000E+00 0.  1.
         11    1    3    3    0    0  0.25858120404E+01  0.16727763410E+01 -0.90290186480E+01  0.95397999246E+01  0.51100000000E-03 0. -1.
        -11    1    3    3    0    0 -0.10952155465E+02  0.83469958890E+01 -0.58247787205E+01  0.14951591792E+02  0.51100000000E-03 0.  1.
        -12    1    3    3    0    0 -0.12965024216E+01  0.25966461436E+02 -0.14184387647E+01  0.26037473122E+02  0.00000000000E+00 0.  1.
</event>
<event>
 7    1  0.5138511E-013  0.5052887E+02  0.7816164E-02  0.1300439E+00
        -11   -1    0    0    0    0  0.00000000000E+00  0.00000000000E+00  0.45593999997E+02  0.45594000000E+02  0.51100000000E-03 0.  1.
         11   -1    0    0    0    0 -0.00000000000E+00 -0.00000000000E+00 -0.45593999997E+02  0.45594000000E+02  0.51100000000E-03 0. -1.
    9900012    2    1    2    0    0 -0.17835180250E+02 -0.26081097902E+02 -0.25589996381E+02  0.50528865268E+02  0.30000016470E+02 0.  0.
        -12    1    1    2    0    0  0.17835180250E+02  0.26081097902E+02  0.25589996381E+02  0.40659134732E+02  0.00000000000E+00 0.  1.
         11    1    3    3    0    0 -0.23528329606E+01 -0.90703460955E+00 -0.11447938030E+02  0.11722364101E+02  0.51100000000E-03 0. -1.
        -11    1    3    3    0    0 -0.20177094664E+02 -0.15955792554E+02 -0.11162003071E+02  0.28040912573E+02  0.51100000000E-03 0.  1.
         12    1    3    3    0    0  0.46947473739E+01 -0.92182707383E+01 -0.29800552805E+01  0.10765588594E+02  0.00000000000E+00 0. -1.
</event>
<event>
 7    1  0.5138511E-013  0.5052885E+02  0.7816164E-02  0.1300439E+00
        -11   -1    0    0    0    0  0.00000000000E+00  0.00000000000E+00  0.45593999997E+02  0.45594000000E+02  0.51100000000E-03 0.  1.
         11   -1    0    0    0    0 -0.00000000000E+00 -0.00000000000E+00 -0.45593999997E+02  0.45594000000E+02  0.51100000000E-03 0. -1.
    9900012    2    1    2    0    0  0.26799561793E+02 -0.63212977760E+01 -0.29916400701E+02  0.50528851598E+02  0.29999974918E+02 0.  0.
        -12    1    1    2    0    0 -0.26799561793E+02  0.63212977760E+01  0.29916400701E+02  0.40659148402E+02  0.00000000000E+00 0.  1.
         11    1    3    3    0    0 -0.11464458725E+01  0.38297995163E+01 -0.60771796640E+01  0.72741882986E+01  0.51100000000E-03 0. -1.
        -11    1    3    3    0    0  0.16671982470E+01 -0.86194896084E+01 -0.10680187617E+02  0.13825395434E+02  0.51100000000E-03 0.  1.
        -12    1    3    3    0    0  0.26278809419E+02 -0.15316076839E+01 -0.13159033419E+02  0.29429267865E+02  0.00000000000E+00 0.  1.
</event>
<event>
 7    1  0.5138511E-013  0.5052886E+02  0.7816164E-02  0.1300439E+00
        -11   -1    0    0    0    0  0.00000000000E+00  0.00000000000E+00  0.45593999997E+02  0.45594000000E+02  0.51100000000E-03 0.  1.
         11   -1    0    0    0    0 -0.00000000000E+00 -0.00000000000E+00 -0.45593999997E+02  0.45594000000E+02  0.51100000000E-03 0. -1.
    9900012    2    1    2    0    0 -0.31213472565E+02 -0.16169748916E+02  0.20430961856E+02  0.50528857708E+02  0.29999993489E+02 0.  0.
        -12    1    1    2    0    0  0.31213472565E+02  0.16169748916E+02 -0.20430961856E+02  0.40659142292E+02  0.00000000000E+00 0.  1.
         11    1    3    3    0    0  0.26356506849E+00 -0.11551747109E+02  0.89521876512E-01  0.11555100269E+02  0.51100000000E-03 0. -1.
        -11    1    3    3    0    0 -0.28414096505E+01 -0.12484027891E+01  0.60352545674E+01  0.67864877720E+01  0.51100000000E-03 0.  1.
        -12    1    3    3    0    0 -0.28635627983E+02 -0.33695990178E+01  0.14306185412E+02  0.32187269666E+02  0.00000000000E+00 0.  1.
</event>
<event>
 7    1  0.5138511E-013  0.5052886E+02  0.7816164E-02  0.1300439E+00
        -11   -1    0    0    0    0  0.00000000000E+00  0.00000000000E+00  0.45593999997E+02  0.45594000000E+02  0.51100000000E-03 0.  1.
         11   -1    0    0    0    0 -0.00000000000E+00 -0.00000000000E+00 -0.45593999997E+02  0.45594000000E+02  0.51100000000E-03 0. -1.
    9900012    2    1    2    0    0 -0.15175746940E+01  0.38665718462E+02 -0.12482995370E+02  0.50528856003E+02  0.29999988307E+02 0.  0.
        -12    1    1    2    0    0  0.15175746940E+01 -0.38665718462E+02  0.12482995370E+02  0.40659143997E+02  0.00000000000E+00 0.  1.
         11    1    3    3    0    0 -0.39110451369E+01  0.31702802513E+01 -0.70903124334E+01  0.86959462740E+01  0.51100000000E-03 0. -1.
        -11    1    3    3    0    0 -0.33485348127E+01  0.20799958510E+02  0.65307276791E+01  0.22056775914E+02  0.51100000000E-03 0.  1.
         12    1    3    3    0    0  0.57420052557E+01  0.14695479701E+02 -0.11923410616E+02  0.19776133816E+02  0.00000000000E+00 0. -1.
</event>
<event>
 7    1  0.5138511E-013  0.5052884E+02  0.7816164E-02  0.1300439E+00
        -11   -1    0    0    0    0  0.00000000000E+00  0.00000000000E+00  0.45593999997E+02  0.45594000000E+02  0.51100000000E-03 0.  1.
         11   -1    0    0    0    0 -0.00000000000E+00 -0.00000000000E+00 -0.45593999997E+02  0.45594000000E+02  0.51100000000E-03 0. -1.
    9900012    2    1    2    0    0  0.22197122626E+02  0.32884690233E+02 -0.88911284346E+01  0.50528840276E+02  0.29999940503E+02 0.  0.
        -12    1    1    2    0    0 -0.22197122626E+02 -0.32884690233E+02  0.88911284346E+01  0.40659159724E+02  0.00000000000E+00 0.  1.
         11    1    3    3    0    0  0.25529419885E+01  0.79315734972E+01 -0.38489405063E+01  0.91783285091E+01  0.51100000000E-03 0. -1.
        -11    1    3    3    0    0  0.16807171074E+02  0.10215484718E+01 -0.35282158601E+01  0.17203862014E+02  0.51100000000E-03 0.  1.
         12    1    3    3    0    0  0.28370095635E+01  0.23931568264E+02 -0.15139720682E+01  0.24146649753E+02  0.00000000000E+00 0. -1.
</event>
<event>
 7    1  0.5138511E-013  0.5052885E+02  0.7816164E-02  0.1300439E+00
        -11   -1    0    0    0    0  0.00000000000E+00  0.00000000000E+00  0.45593999997E+02  0.45594000000E+02  0.51100000000E-03 0.  1.
         11   -1    0    0    0    0 -0.00000000000E+00 -0.00000000000E+00 -0.45593999997E+02  0.45594000000E+02  0.51100000000E-03 0. -1.
    9900012    2    1    2    0    0  0.36348765594E+02 -0.16879164626E+02 -0.68576798483E+01  0.50528846891E+02  0.29999960609E+02 0.  0.
        -12    1    1    2    0    0 -0.36348765594E+02  0.16879164626E+02  0.68576798483E+01  0.40659153109E+02  0.00000000000E+00 0.  1.
         11    1    3    3    0    0  0.26631261393E+02 -0.16810468928E+02 -0.86175063026E+01  0.32650840175E+02  0.51100000000E-03 0.  1.
        -11    1    3    3    0    0  0.37128436812E+01 -0.45077843797E+01  0.67279079492E+01  0.89089883740E+01  0.51100000000E-03 0. -1.
        -12    1    3    3    0    0  0.60046605196E+01  0.44390886819E+01 -0.49680814949E+01  0.89690183422E+01  0.00000000000E+00 0.  1.
</event>
<event>
 7    1  0.7266274E-013  0.5052888E+02  0.7816164E-02  0.1300439E+00
        -11   -1    0    0    0    0  0.00000000000E+00  0.00000000000E+00  0.45593999997E+02  0.45594000000E+02  0.51100000000E-03 0. -1.
         11   -1    0    0    0    0 -0.00000000000E+00 -0.00000000000E+00 -0.45593999997E+02  0.45594000000E+02  0.51100000000E-03 0.  1.
    9900012    2    1    2    0    0  0.36204275564E+01 -0.29534332836E+02  0.27708844794E+02  0.50528875666E+02  0.30000048075E+02 0.  0.
        -12    1    1    2    0    0 -0.36204275564E+01  0.29534332836E+02 -0.27708844794E+02  0.40659124334E+02  0.00000000000E+00 0.  1.
         11    1    3    3    0    0 -0.46220262242E+01 -0.17640068076E+02  0.20887745437E+02  0.27727838680E+02  0.51100000000E-03 0. -1.
        -11    1    3    3    0    0 -0.41114718628E+01  0.50810616053E+00  0.22245694743E+01  0.47022422690E+01  0.51100000000E-03 0.  1.
        -12    1    3    3    0    0  0.12353925643E+02 -0.12402370921E+02  0.45965298830E+01  0.18098794717E+02  0.00000000000E+00 0.  1.
</event>
<event>
 7    1  0.5138511E-013  0.5052886E+02  0.7816164E-02  0.1300439E+00
        -11   -1    0    0    0    0  0.00000000000E+00  0.00000000000E+00  0.45593999997E+02  0.45594000000E+02  0.51100000000E-03 0. -1.
         11   -1    0    0    0    0 -0.00000000000E+00 -0.00000000000E+00 -0.45593999997E+02  0.45594000000E+02  0.51100000000E-03 0.  1.
    9900012    2    1    2    0    0  0.35704493984E+02 -0.10511038995E+02  0.16366828411E+02  0.50528857073E+02  0.29999991558E+02 0.  0.
        -12    1    1    2    0    0 -0.35704493984E+02  0.10511038995E+02 -0.16366828411E+02  0.40659142927E+02  0.00000000000E+00 0.  1.
         11    1    3    3    0    0  0.22943382052E+01 -0.53520592566E+01  0.11038959104E+02  0.12480670833E+02  0.51100000000E-03 0. -1.
        -11    1    3    3    0    0  0.18083292275E+00  0.12731001090E+01 -0.29382352079E+01  0.32072902631E+01  0.51100000000E-03 0.  1.
         12    1    3    3    0    0  0.33229322856E+02 -0.64320798469E+01  0.82661045150E+01  0.34840895977E+02  0.00000000000E+00 0. -1.
</event>
<event>
 7    1  0.5138511E-013  0.5052886E+02  0.7816164E-02  0.1300439E+00
        -11   -1    0    0    0    0  0.00000000000E+00  0.00000000000E+00  0.45593999997E+02  0.45594000000E+02  0.51100000000E-03 0.  1.
         11   -1    0    0    0    0 -0.00000000000E+00 -0.00000000000E+00 -0.45593999997E+02  0.45594000000E+02  0.51100000000E-03 0. -1.
    9900012    2    1    2    0    0 -0.12509178782E+02  0.20928472140E+02 -0.32537448061E+02  0.50528855564E+02  0.29999986973E+02 0.  0.
        -12    1    1    2    0    0  0.12509178782E+02 -0.20928472140E+02  0.32537448061E+02  0.40659144436E+02  0.00000000000E+00 0.  1.
         11    1    3    3    0    0 -0.14462325196E+02  0.20658118595E+01 -0.79476045713E+01  0.16631020636E+02  0.51100000000E-03 0. -1.
        -11    1    3    3    0    0 -0.45541038063E+01  0.13721180213E+02 -0.11833876869E+02  0.18682914386E+02  0.51100000000E-03 0.  1.
         12    1    3    3    0    0  0.65072502196E+01  0.51414800676E+01 -0.12755966620E+02  0.15214920543E+02  0.00000000000E+00 0. -1.
</event>
<event>
 7    1  0.5138511E-013  0.5052887E+02  0.7816164E-02  0.1300439E+00
        -11   -1    0    0    0    0  0.00000000000E+00  0.00000000000E+00  0.45593999997E+02  0.45594000000E+02  0.51100000000E-03 0.  1.
         11   -1    0    0    0    0 -0.00000000000E+00 -0.00000000000E+00 -0.45593999997E+02  0.45594000000E+02  0.51100000000E-03 0. -1.
    9900012    2    1    2    0    0  0.39502257363E+02 -0.80144695050E+01  0.53390238209E+01  0.50528865312E+02  0.30000016604E+02 0.  0.
        -12    1    1    2    0    0 -0.39502257363E+02  0.80144695050E+01 -0.53390238209E+01  0.40659134688E+02  0.00000000000E+00 0.  1.
         11    1    3    3    0    0  0.10826589421E+02  0.16729349962E+01 -0.13954398461E+01  0.11043595548E+02  0.51100000000E-03 0. -1.
        -11    1    3    3    0    0  0.38041348794E+01  0.57233199060E+01  0.75573916413E+01  0.10214793273E+02  0.51100000000E-03 0.  1.
         12    1    3    3    0    0  0.24871533062E+02 -0.15410724407E+02 -0.82292797427E+00  0.29270476492E+02  0.00000000000E+00 0. -1.
</event>
<event>
 7    1  0.5138511E-013  0.5052886E+02  0.7816164E-02  0.1300439E+00
        -11   -1    0    0    0    0  0.00000000000E+00  0.00000000000E+00  0.45593999997E+02  0.45594000000E+02  0.51100000000E-03 0. -1.
         11   -1    0    0    0    0 -0.00000000000E+00 -0.00000000000E+00 -0.45593999997E+02  0.45594000000E+02  0.51100000000E-03 0.  1.
    9900012    2    1    2    0    0  0.27962344399E+02  0.29398174771E+02  0.26495384550E+01  0.50528862796E+02  0.30000008955E+02 0.  0.
        -12    1    1    2    0    0 -0.27962344399E+02 -0.29398174771E+02 -0.26495384550E+01  0.40659137204E+02  0.00000000000E+00 0.  1.
         11    1    3    3    0    0  0.19877718496E+02  0.22642446757E+02  0.48571828871E+01  0.30518786241E+02  0.51100000000E-03 0. -1.
        -11    1    3    3    0    0 -0.27161966930E+01  0.34908952104E+01  0.49574865487E+01  0.66438503134E+01  0.51100000000E-03 0.  1.
         12    1    3    3    0    0  0.10800822596E+02  0.32648328035E+01 -0.71651309809E+01  0.13366226242E+02  0.00000000000E+00 0. -1.
</event>
<event>
 7    1  0.5138511E-013  0.5052885E+02  0.7816164E-02  0.1300439E+00
        -11   -1    0    0    0    0  0.00000000000E+00  0.00000000000E+00  0.45593999997E+02  0.45594000000E+02  0.51100000000E-03 0.  1.
         11   -1    0    0    0    0 -0.00000000000E+00 -0.00000000000E+00 -0.45593999997E+02  0.45594000000E+02  0.51100000000E-03 0. -1.
    9900012    2    1    2    0    0 -0.21636512284E+02  0.15468662958E+01 -0.34389456311E+02  0.50528853864E+02  0.29999981805E+02 0.  0.
        -12    1    1    2    0    0  0.21636512284E+02 -0.15468662958E+01  0.34389456311E+02  0.40659146136E+02  0.00000000000E+00 0.  1.
         11    1    3    3    0    0 -0.13426992866E+02  0.71386940207E+01 -0.17586395046E+02  0.23249223228E+02  0.51100000000E-03 0. -1.
        -11    1    3    3    0    0 -0.47021952816E+01  0.10925366585E+00  0.35250879355E+01  0.58778246013E+01  0.51100000000E-03 0.  1.
         12    1    3    3    0    0 -0.35073241365E+01 -0.57010813908E+01 -0.20328149201E+02  0.21401806035E+02  0.00000000000E+00 0. -1.
</event>
<event>
 7    1  0.5138511E-013  0.5052883E+02  0.7816164E-02  0.1300439E+00
        -11   -1    0    0    0    0  0.00000000000E+00  0.00000000000E+00  0.45593999997E+02  0.45594000000E+02  0.51100000000E-03 0.  1.
         11   -1    0    0    0    0 -0.00000000000E+00 -0.00000000000E+00 -0.45593999997E+02  0.45594000000E+02  0.51100000000E-03 0. -1.
    9900012    2    1    2    0    0  0.12026132027E+02 -0.29565153330E+02 -0.25188130294E+02  0.50528830669E+02  0.29999911303E+02 0.  0.
        -12    1    1    2    0    0 -0.12026132027E+02  0.29565153330E+02  0.25188130294E+02  0.40659169331E+02  0.00000000000E+00 0.  1.
         11    1    3    3    0    0  0.16082917716E+01 -0.78387038603E+01  0.83082594476E+00  0.80450079331E+01  0.51100000000E-03 0. -1.
        -11    1    3    3    0    0  0.33966422092E+01  0.40525419765E+01 -0.14329245603E+00  0.52896888148E+01  0.51100000000E-03 0.  1.
         12    1    3    3    0    0  0.70211980463E+01 -0.25778991446E+02 -0.25875663783E+02  0.37194133922E+02  0.00000000000E+00 0. -1.
</event>
<event>
 7    1  0.5138511E-013  0.5052888E+02  0.7816164E-02  0.1300439E+00
        -11   -1    0    0    0    0  0.00000000000E+00  0.00000000000E+00  0.45593999997E+02  0.45594000000E+02  0.51100000000E-03 0.  1.
         11   -1    0    0    0    0 -0.00000000000E+00 -0.00000000000E+00 -0.45593999997E+02  0.45594000000E+02  0.51100000000E-03 0. -1.
    9900012    2    1    2    0    0  0.19648246446E+02  0.20156700282E+02 -0.29339698158E+02  0.50528879957E+02  0.30000061118E+02 0.  0.
        -12    1    1    2    0    0 -0.19648246446E+02 -0.20156700282E+02  0.29339698158E+02  0.40659120043E+02  0.00000000000E+00 0.  1.
         11    1    3    3    0    0 -0.73529090604E+00  0.31160009108E+00 -0.15732788311E+02  0.15753043376E+02  0.51100000000E-03 0. -1.
        -11    1    3    3    0    0 -0.33014908463E+00 -0.19230318536E+01 -0.70458621248E+00  0.20744859412E+01  0.51100000000E-03 0.  1.
        -12    1    3    3    0    0  0.20713686436E+02  0.21768132044E+02 -0.12902323635E+02  0.32701350640E+02  0.00000000000E+00 0.  1.
</event>
<event>
 7    1  0.5138511E-013  0.5052885E+02  0.7816164E-02  0.1300439E+00
        -11   -1    0    0    0    0  0.00000000000E+00  0.00000000000E+00  0.45593999997E+02  0.45594000000E+02  0.51100000000E-03 0.  1.
         11   -1    0    0    0    0 -0.00000000000E+00 -0.00000000000E+00 -0.45593999997E+02  0.45594000000E+02  0.51100000000E-03 0. -1.
    9900012    2    1    2    0    0  0.25628610722E+02  0.36940750651E+01 -0.31347966429E+02  0.50528845098E+02  0.29999955159E+02 0.  0.
        -12    1    1    2    0    0 -0.25628610722E+02 -0.36940750651E+01  0.31347966429E+02  0.40659154902E+02  0.00000000000E+00 0.  1.
         11    1    3    3    0    0  0.29250790247E+01 -0.76684045043E+01 -0.55977382656E+01  0.99345452283E+01  0.51100000000E-03 0. -1.
        -11    1    3    3    0    0  0.17814966482E+02  0.38692688019E+01 -0.64788176916E+01  0.19347334462E+02  0.51100000000E-03 0.  1.
        -12    1    3    3    0    0  0.48885652146E+01  0.74932107674E+01 -0.19271410472E+02  0.21246965408E+02  0.00000000000E+00 0.  1.
</event>
<event>
 7    1  0.5138511E-013  0.5052886E+02  0.7816164E-02  0.1300439E+00
        -11   -1    0    0    0    0  0.00000000000E+00  0.00000000000E+00  0.45593999997E+02  0.45594000000E+02  0.51100000000E-03 0.  1.
         11   -1    0    0    0    0 -0.00000000000E+00 -0.00000000000E+00 -0.45593999997E+02  0.45594000000E+02  0.51100000000E-03 0. -1.
    9900012    2    1    2    0    0  0.10529939131E+02 -0.19779988122E+02 -0.33926951380E+02  0.50528861075E+02  0.30000003722E+02 0.  0.
        -12    1    1    2    0    0 -0.10529939131E+02  0.19779988122E+02  0.33926951380E+02  0.40659138925E+02  0.00000000000E+00 0.  1.
         11    1    3    3    0    0  0.11010109873E+01 -0.82511342391E+01 -0.24972520313E+02  0.26323377679E+02  0.51100000000E-03 0. -1.
        -11    1    3    3    0    0 -0.15410726818E+01 -0.27741227800E+01 -0.96446720421E+01  0.10153342369E+02  0.51100000000E-03 0.  1.
         12    1    3    3    0    0  0.10970000826E+02 -0.87547311030E+01  0.69024097474E+00  0.14052141026E+02  0.00000000000E+00 0. -1.
</event>
<event>
 7    1  0.5138511E-013  0.5052886E+02  0.7816164E-02  0.1300439E+00
        -11   -1    0    0    0    0  0.00000000000E+00  0.00000000000E+00  0.45593999997E+02  0.45594000000E+02  0.51100000000E-03 0. -1.
         11   -1    0    0    0    0 -0.00000000000E+00 -0.00000000000E+00 -0.45593999997E+02  0.45594000000E+02  0.51100000000E-03 0.  1.
    9900012    2    1    2    0    0  0.18616356580E+01  0.23292208518E+02  0.33274203843E+02  0.50528864417E+02  0.30000013882E+02 0.  0.
        -12    1    1    2    0    0 -0.18616356580E+01 -0.23292208518E+02 -0.33274203843E+02  0.40659135583E+02  0.00000000000E+00 0.  1.
         11    1    3    3    0    0  0.33793957456E+01  0.29959197903E+01  0.64139671897E+01  0.78444137044E+01  0.51100000000E-03 0. -1.
        -11    1    3    3    0    0 -0.82927847927E+01  0.15707463089E+02  0.37301847393E+01  0.18149626849E+02  0.51100000000E-03 0.  1.
         12    1    3    3    0    0  0.67750247051E+01  0.45888256393E+01  0.23130051914E+02  0.24534823864E+02  0.00000000000E+00 0. -1.
</event>
<event>
 7    1  0.5138511E-013  0.5052888E+02  0.7816164E-02  0.1300439E+00
        -11   -1    0    0    0    0  0.00000000000E+00  0.00000000000E+00  0.45593999997E+02  0.45594000000E+02  0.51100000000E-03 0.  1.
         11   -1    0    0    0    0 -0.00000000000E+00 -0.00000000000E+00 -0.45593999997E+02  0.45594000000E+02  0.51100000000E-03 0. -1.
    9900012    2    1    2    0    0 -0.25065450946E+02  0.22929423829E+02 -0.22341184072E+02  0.50528882769E+02  0.30000069664E+02 0.  0.
        -12    1    1    2    0    0  0.25065450946E+02 -0.22929423829E+02  0.22341184072E+02  0.40659117231E+02  0.00000000000E+00 0.  1.
         11    1    3    3    0    0 -0.13927451912E+02  0.11143122491E+02 -0.12382334683E+02  0.21713251900E+02  0.51100000000E-03 0.  1.
        -11    1    3    3    0    0 -0.21110390592E+01  0.16008698998E+02 -0.97199826822E+01  0.18847095084E+02  0.51100000000E-03 0. -1.
        -12    1    3    3    0    0 -0.90269599753E+01 -0.42223976596E+01 -0.23886670719E+00  0.99685357849E+01  0.00000000000E+00 0.  1.
</event>
<event>
 7    1  0.5138511E-013  0.5052886E+02  0.7816164E-02  0.1300439E+00
        -11   -1    0    0    0    0  0.00000000000E+00  0.00000000000E+00  0.45593999997E+02  0.45594000000E+02  0.51100000000E-03 0.  1.
         11   -1    0    0    0    0 -0.00000000000E+00 -0.00000000000E+00 -0.45593999997E+02  0.45594000000E+02  0.51100000000E-03 0. -1.
    9900012    2    1    2    0    0 -0.12716022569E+02 -0.37484264437E+02 -0.92950716480E+01  0.50528859979E+02  0.30000000391E+02 0.  0.
        -12    1    1    2    0    0  0.12716022569E+02  0.37484264437E+02  0.92950716480E+01  0.40659140021E+02  0.00000000000E+00 0.  1.
         11    1    3    3    0    0  0.50228293347E+01 -0.13468280850E+02  0.38883724171E+01  0.14891032331E+02  0.51100000000E-03 0. -1.
        -11    1    3    3    0    0 -0.38303713192E+00  0.18706162508E+01 -0.11505668958E+01  0.22292884616E+01  0.51100000000E-03 0.  1.
        -12    1    3    3    0    0 -0.17355814772E+02 -0.25886599838E+02 -0.12032877169E+02  0.33408539186E+02  0.00000000000E+00 0.  1.
</event>
<event>
 7    1  0.5138511E-013  0.5052884E+02  0.7816164E-02  0.1300439E+00
        -11   -1    0    0    0    0  0.00000000000E+00  0.00000000000E+00  0.45593999997E+02  0.45594000000E+02  0.51100000000E-03 0. -1.
         11   -1    0    0    0    0 -0.00000000000E+00 -0.00000000000E+00 -0.45593999997E+02  0.45594000000E+02  0.51100000000E-03 0.  1.
    9900012    2    1    2    0    0 -0.40618010786E+00 -0.32722394726E+02  0.24129802742E+02  0.50528837696E+02  0.29999932661E+02 0.  0.
        -12    1    1    2    0    0  0.40618010786E+00  0.32722394726E+02 -0.24129802742E+02  0.40659162304E+02  0.00000000000E+00 0.  1.
         11    1    3    3    0    0  0.76094490288E+01 -0.12932097986E+02  0.20963266802E+02  0.25779864781E+02  0.51100000000E-03 0. -1.
        -11    1    3    3    0    0 -0.30122689358E+01 -0.10297287772E+01  0.42411447919E+01  0.53029628420E+01  0.51100000000E-03 0.  1.
        -12    1    3    3    0    0 -0.50033602009E+01 -0.18760567962E+02 -0.10746088524E+01  0.19446010073E+02  0.00000000000E+00 0.  1.
</event>
<event>
 7    1  0.5138511E-013  0.5052886E+02  0.7816164E-02  0.1300439E+00
        -11   -1    0    0    0    0  0.00000000000E+00  0.00000000000E+00  0.45593999997E+02  0.45594000000E+02  0.51100000000E-03 0.  1.
         11   -1    0    0    0    0 -0.00000000000E+00 -0.00000000000E+00 -0.45593999997E+02  0.45594000000E+02  0.51100000000E-03 0. -1.
    9900012    2    1    2    0    0  0.18435295727E+02  0.34124107586E+02 -0.12200457725E+02  0.50528855693E+02  0.29999987364E+02 0.  0.
        -12    1    1    2    0    0 -0.18435295727E+02 -0.34124107586E+02  0.12200457725E+02  0.40659144307E+02  0.00000000000E+00 0.  1.
         11    1    3    3    0    0  0.14013547157E+02  0.28494472611E+02 -0.15283009593E+02  0.35240386714E+02  0.51100000000E-03 0. -1.
        -11    1    3    3    0    0 -0.22310631522E+01  0.57090321653E+01 -0.24839441807E+01  0.66136729589E+01  0.51100000000E-03 0.  1.
         12    1    3    3    0    0  0.66528117219E+01 -0.79397190087E-01  0.55664960484E+01  0.86747960194E+01  0.00000000000E+00 0. -1.
</event>
<event>
 7    1  0.5138511E-013  0.5052885E+02  0.7816164E-02  0.1300439E+00
        -11   -1    0    0    0    0  0.00000000000E+00  0.00000000000E+00  0.45593999997E+02  0.45594000000E+02  0.51100000000E-03 0. -1.
         11   -1    0    0    0    0 -0.00000000000E+00 -0.00000000000E+00 -0.45593999997E+02  0.45594000000E+02  0.51100000000E-03 0.  1.
    9900012    2    1    2    0    0 -0.38534145961E+01 -0.39108985233E+02  0.10430963103E+02  0.50528849477E+02  0.29999968470E+02 0.  0.
        -12    1    1    2    0    0  0.38534145961E+01  0.39108985233E+02 -0.10430963103E+02  0.40659150523E+02  0.00000000000E+00 0.  1.
         11    1    3    3    0    0 -0.13165420323E+02 -0.21752899039E+02  0.11366046656E+02  0.27851461824E+02  0.51100000000E-03 0. -1.
        -11    1    3    3    0    0  0.54156963177E+01 -0.17901098291E+02 -0.39766681941E+00  0.18706609147E+02  0.51100000000E-03 0.  1.
        -12    1    3    3    0    0  0.38963094091E+01  0.54501209645E+00 -0.53741673438E+00  0.39707785059E+01  0.00000000000E+00 0.  1.
</event>
<event>
 7    1  0.5138511E-013  0.5052886E+02  0.7816164E-02  0.1300439E+00
        -11   -1    0    0    0    0  0.00000000000E+00  0.00000000000E+00  0.45593999997E+02  0.45594000000E+02  0.51100000000E-03 0. -1.
         11   -1    0    0    0    0 -0.00000000000E+00 -0.00000000000E+00 -0.45593999997E+02  0.45594000000E+02  0.51100000000E-03 0.  1.
    9900012    2    1    2    0    0 -0.27885398262E+02  0.20263782257E+02 -0.21562688783E+02  0.50528857669E+02  0.29999993370E+02 0.  0.
        -12    1    1    2    0    0  0.27885398262E+02 -0.20263782257E+02  0.21562688783E+02  0.40659142331E+02  0.00000000000E+00 0.  1.
         11    1    3    3    0    0 -0.17769536766E+02  0.22855330188E+02 -0.12087188171E+02  0.31372323360E+02  0.51100000000E-03 0. -1.
        -11    1    3    3    0    0  0.34255505145E+00  0.40700648255E+01 -0.35591058628E+01  0.54175646236E+01  0.51100000000E-03 0.  1.
        -12    1    3    3    0    0 -0.10458416547E+02 -0.66616127564E+01 -0.59163947491E+01  0.13738969685E+02  0.00000000000E+00 0.  1.
</event>
<event>
 7    1  0.5138511E-013  0.5052885E+02  0.7816164E-02  0.1300439E+00
        -11   -1    0    0    0    0  0.00000000000E+00  0.00000000000E+00  0.45593999997E+02  0.45594000000E+02  0.51100000000E-03 0.  1.
         11   -1    0    0    0    0 -0.00000000000E+00 -0.00000000000E+00 -0.45593999997E+02  0.45594000000E+02  0.51100000000E-03 0. -1.
    9900012    2    1    2    0    0 -0.52457594734E+01 -0.24008760325E+02 -0.32391783923E+02  0.50528853052E+02  0.29999979337E+02 0.  0.
        -12    1    1    2    0    0  0.52457594734E+01  0.24008760325E+02  0.32391783923E+02  0.40659146948E+02  0.00000000000E+00 0.  1.
         11    1    3    3    0    0  0.63727947180E+01 -0.96388991384E+01 -0.17749572628E+02  0.21179429120E+02  0.51100000000E-03 0. -1.
        -11    1    3    3    0    0 -0.64152248727E+01 -0.57954103833E+01 -0.16976988747E+02  0.19051510146E+02  0.51100000000E-03 0.  1.
        -12    1    3    3    0    0 -0.52033293187E+01 -0.85744508037E+01  0.23347774520E+01  0.10297913786E+02  0.00000000000E+00 0.  1.
</event>
<event>
 7    1  0.5138511E-013  0.5052887E+02  0.7816164E-02  0.1300439E+00
        -11   -1    0    0    0    0  0.00000000000E+00  0.00000000000E+00  0.45593999997E+02  0.45594000000E+02  0.51100000000E-03 0.  1.
         11   -1    0    0    0    0 -0.00000000000E+00 -0.00000000000E+00 -0.45593999997E+02  0.45594000000E+02  0.51100000000E-03 0. -1.
    9900012    2    1    2    0    0 -0.23898167863E+01 -0.40471611388E+02  0.30826409746E+01  0.50528865381E+02  0.30000016812E+02 0.  0.
        -12    1    1    2    0    0  0.23898167863E+01  0.40471611388E+02 -0.30826409746E+01  0.40659134619E+02  0.00000000000E+00 0.  1.
         11    1    3    3    0    0  0.90330992295E+01 -0.31540855412E+01  0.32142128239E+01  0.10093379099E+02  0.51100000000E-03 0.  1.
        -11    1    3    3    0    0 -0.33004905465E+01 -0.14626909932E+01 -0.65188027905E+00  0.36684671115E+01  0.51100000000E-03 0. -1.
        -12    1    3    3    0    0 -0.81224254693E+01 -0.35854834853E+02  0.52030842972E+00  0.36767019171E+02  0.00000000000E+00 0.  1.
</event>
<event>
 7    1  0.5138511E-013  0.5052885E+02  0.7816164E-02  0.1300439E+00
        -11   -1    0    0    0    0  0.00000000000E+00  0.00000000000E+00  0.45593999997E+02  0.45594000000E+02  0.51100000000E-03 0.  1.
         11   -1    0    0    0    0 -0.00000000000E+00 -0.00000000000E+00 -0.45593999997E+02  0.45594000000E+02  0.51100000000E-03 0. -1.
    9900012    2    1    2    0    0 -0.32690063400E+02  0.23373951440E+02  0.61793402550E+01  0.50528854694E+02  0.29999984327E+02 0.  0.
        -12    1    1    2    0    0  0.32690063400E+02 -0.23373951440E+02 -0.61793402550E+01  0.40659145306E+02  0.00000000000E+00 0.  1.
         11    1    3    3    0    0 -0.18532834591E+02  0.26585553856E+02 -0.22031739377E+01  0.32482481547E+02  0.51100000000E-03 0. -1.
        -11    1    3    3    0    0 -0.19337376255E+01  0.42218894476E+00  0.41709024175E+01  0.46167100783E+01  0.51100000000E-03 0.  1.
        -12    1    3    3    0    0 -0.12223491184E+02 -0.36337913609E+01  0.42116117752E+01  0.13429663069E+02  0.00000000000E+00 0.  1.
</event>
<event>
 7    1  0.5138511E-013  0.5052885E+02  0.7816164E-02  0.1300439E+00
        -11   -1    0    0    0    0  0.00000000000E+00  0.00000000000E+00  0.45593999997E+02  0.45594000000E+02  0.51100000000E-03 0. -1.
         11   -1    0    0    0    0 -0.00000000000E+00 -0.00000000000E+00 -0.45593999997E+02  0.45594000000E+02  0.51100000000E-03 0.  1.
    9900012    2    1    2    0    0 -0.22960978286E+02 -0.30172266926E+02 -0.14683117788E+02  0.50528853879E+02  0.29999981851E+02 0.  0.
        -12    1    1    2    0    0  0.22960978286E+02  0.30172266926E+02  0.14683117788E+02  0.40659146121E+02  0.00000000000E+00 0.  1.
         11    1    3    3    0    0 -0.14513478834E+02 -0.15137519104E+02  0.30194045083E+01  0.21187315930E+02  0.51100000000E-03 0. -1.
        -11    1    3    3    0    0 -0.54698355277E+01  0.20946075526E+01 -0.30462565000E+01  0.66019815528E+01  0.51100000000E-03 0.  1.
         12    1    3    3    0    0 -0.29776639246E+01 -0.17129355375E+02 -0.14656265796E+02  0.22739556396E+02  0.00000000000E+00 0. -1.
</event>
<event>
 7    1  0.5138511E-013  0.5052887E+02  0.7816164E-02  0.1300439E+00
        -11   -1    0    0    0    0  0.00000000000E+00  0.00000000000E+00  0.45593999997E+02  0.45594000000E+02  0.51100000000E-03 0. -1.
         11   -1    0    0    0    0 -0.00000000000E+00 -0.00000000000E+00 -0.45593999997E+02  0.45594000000E+02  0.51100000000E-03 0.  1.
    9900012    2    1    2    0    0  0.37661133426E+02 -0.64148572499E+01  0.13915944096E+02  0.50528869850E+02  0.30000030397E+02 0.  0.
        -12    1    1    2    0    0 -0.37661133426E+02  0.64148572499E+01 -0.13915944096E+02  0.40659130150E+02  0.00000000000E+00 0.  1.
         11    1    3    3    0    0  0.24469651884E+02  0.31910609495E+01  0.11273055118E+02  0.27129845286E+02  0.51100000000E-03 0. -1.
        -11    1    3    3    0    0  0.13620844621E+02 -0.11849362157E+02  0.62709861856E+01  0.19111778036E+02  0.51100000000E-03 0.  1.
        -12    1    3    3    0    0 -0.42936307941E+00  0.22434439576E+01 -0.36280972070E+01  0.42872465276E+01  0.00000000000E+00 0.  1.
</event>
<event>
 7    1  0.5138511E-013  0.5052886E+02  0.7816164E-02  0.1300439E+00
        -11   -1    0    0    0    0  0.00000000000E+00  0.00000000000E+00  0.45593999997E+02  0.45594000000E+02  0.51100000000E-03 0.  1.
         11   -1    0    0    0    0 -0.00000000000E+00 -0.00000000000E+00 -0.45593999997E+02  0.45594000000E+02  0.51100000000E-03 0. -1.
    9900012    2    1    2    0    0  0.97705376023E+01 -0.12266520033E+01 -0.39448673232E+02  0.50528857117E+02  0.29999991693E+02 0.  0.
        -12    1    1    2    0    0 -0.97705376023E+01  0.12266520033E+01  0.39448673232E+02  0.40659142883E+02  0.00000000000E+00 0.  1.
         11    1    3    3    0    0  0.10301814663E+02 -0.26105104750E+01 -0.27064159657E+02  0.29075950346E+02  0.51100000000E-03 0. -1.
        -11    1    3    3    0    0 -0.12211961057E+01 -0.55248733223E+01 -0.13296336522E+02  0.14450194127E+02  0.51100000000E-03 0.  1.
         12    1    3    3    0    0  0.68991904451E+00  0.69087317940E+01  0.91182294629E+00  0.70027126441E+01  0.00000000000E+00 0. -1.
</event>
<event>
 7    1  0.5138511E-013  0.5052886E+02  0.7816164E-02  0.1300439E+00
        -11   -1    0    0    0    0  0.00000000000E+00  0.00000000000E+00  0.45593999997E+02  0.45594000000E+02  0.51100000000E-03 0.  1.
         11   -1    0    0    0    0 -0.00000000000E+00 -0.00000000000E+00 -0.45593999997E+02  0.45594000000E+02  0.51100000000E-03 0. -1.
    9900012    2    1    2    0    0  0.91409399142E+00  0.37891849681E+02 -0.14715228147E+02  0.50528858598E+02  0.29999996196E+02 0.  0.
        -12    1    1    2    0    0 -0.91409399142E+00 -0.37891849681E+02  0.14715228147E+02  0.40659141402E+02  0.00000000000E+00 0.  1.
         11    1    3    3    0    0 -0.49975008225E+01  0.17518753939E+02  0.17645277067E+01  0.18302877160E+02  0.51100000000E-03 0. -1.
        -11    1    3    3    0    0 -0.13324988678E+01  0.12768047691E+01 -0.10897589699E+02  0.11052748308E+02  0.51100000000E-03 0.  1.
         12    1    3    3    0    0  0.72440936817E+01  0.19096290973E+02 -0.55821661548E+01  0.21173233130E+02  0.00000000000E+00 0. -1.
</event>
<event>
 7    1  0.5138511E-013  0.5052880E+02  0.7816164E-02  0.1300439E+00
        -11   -1    0    0    0    0  0.00000000000E+00  0.00000000000E+00  0.45593999997E+02  0.45594000000E+02  0.51100000000E-03 0.  1.
         11   -1    0    0    0    0 -0.00000000000E+00 -0.00000000000E+00 -0.45593999997E+02  0.45594000000E+02  0.51100000000E-03 0. -1.
    9900012    2    1    2    0    0 -0.24497800664E+02 -0.72592937195E+01 -0.31628007955E+02  0.50528800919E+02  0.29999820874E+02 0.  0.
        -12    1    1    2    0    0  0.24497800664E+02  0.72592937195E+01  0.31628007955E+02  0.40659199081E+02  0.00000000000E+00 0.  1.
         11    1    3    3    0    0 -0.87793342356E+01  0.30144817037E+01  0.15083445694E+01  0.94041965719E+01  0.51100000000E-03 0. -1.
        -11    1    3    3    0    0 -0.17878152873E+01 -0.63102398612E+01 -0.21191697171E+01  0.68924807695E+01  0.51100000000E-03 0.  1.
        -12    1    3    3    0    0 -0.13930651141E+02 -0.39635355620E+01 -0.31017182807E+02  0.34232123578E+02  0.00000000000E+00 0.  1.
</event>
<event>
 7    1  0.6501043E-013  0.5052888E+02  0.7816164E-02  0.1300439E+00
        -11   -1    0    0    0    0  0.00000000000E+00  0.00000000000E+00  0.45593999997E+02  0.45594000000E+02  0.51100000000E-03 0. -1.
         11   -1    0    0    0    0 -0.00000000000E+00 -0.00000000000E+00 -0.45593999997E+02  0.45594000000E+02  0.51100000000E-03 0.  1.
    9900012    2    1    2    0    0  0.10436353415E+02  0.14066019826E+02  0.36693233152E+02  0.50528883611E+02  0.30000072225E+02 0.  0.
        -12    1    1    2    0    0 -0.10436353415E+02 -0.14066019826E+02 -0.36693233152E+02  0.40659116389E+02  0.00000000000E+00 0.  1.
         11    1    3    3    0    0  0.40436382809E+01  0.63698235538E+01  0.16899061656E+02  0.18506862180E+02  0.51100000000E-03 0. -1.
        -11    1    3    3    0    0  0.15033778753E+02  0.52666910912E+01  0.10372307185E+02  0.19008874119E+02  0.51100000000E-03 0.  1.
        -12    1    3    3    0    0 -0.86410636186E+01  0.24295051807E+01  0.94218643110E+01  0.13013147313E+02  0.00000000000E+00 0.  1.
</event>
<event>
 7    1  0.5138511E-013  0.5052885E+02  0.7816164E-02  0.1300439E+00
        -11   -1    0    0    0    0  0.00000000000E+00  0.00000000000E+00  0.45593999997E+02  0.45594000000E+02  0.51100000000E-03 0.  1.
         11   -1    0    0    0    0 -0.00000000000E+00 -0.00000000000E+00 -0.45593999997E+02  0.45594000000E+02  0.51100000000E-03 0. -1.
    9900012    2    1    2    0    0 -0.26343535664E-01 -0.33150587138E+02 -0.23541540463E+02  0.50528852826E+02  0.29999978649E+02 0.  0.
        -12    1    1    2    0    0  0.26343535664E-01  0.33150587138E+02  0.23541540463E+02  0.40659147174E+02  0.00000000000E+00 0.  1.
         11    1    3    3    0    0 -0.37873747794E+01  0.67700944236E+00  0.13741164644E+01  0.40854309226E+01  0.51100000000E-03 0.  1.
        -11    1    3    3    0    0  0.59000704184E+01 -0.80620401769E+00 -0.24063549737E+01  0.64227206370E+01  0.51100000000E-03 0. -1.
         12    1    3    3    0    0 -0.21390391747E+01 -0.33021392563E+02 -0.22509301954E+02  0.40020701266E+02  0.00000000000E+00 0. -1.
</event>
<event>
 7    1  0.5138511E-013  0.5052886E+02  0.7816164E-02  0.1300439E+00
        -11   -1    0    0    0    0  0.00000000000E+00  0.00000000000E+00  0.45593999997E+02  0.45594000000E+02  0.51100000000E-03 0.  1.
         11   -1    0    0    0    0 -0.00000000000E+00 -0.00000000000E+00 -0.45593999997E+02  0.45594000000E+02  0.51100000000E-03 0. -1.
    9900012    2    1    2    0    0  0.26585386266E+02 -0.21631376355E+02 -0.21873878539E+02  0.50528858737E+02  0.29999996617E+02 0.  0.
        -12    1    1    2    0    0 -0.26585386266E+02  0.21631376355E+02  0.21873878539E+02  0.40659141263E+02  0.00000000000E+00 0.  1.
         11    1    3    3    0    0  0.16541258911E+02 -0.67787573912E+01 -0.12866382508E+02  0.22025180980E+02  0.51100000000E-03 0. -1.
        -11    1    3    3    0    0  0.84066254533E+01 -0.34547090908E+01 -0.13389731157E+02  0.16183054938E+02  0.51100000000E-03 0.  1.
        -12    1    3    3    0    0  0.16375019016E+01 -0.11397909873E+02  0.43822351254E+01  0.12320622819E+02  0.00000000000E+00 0.  1.
</event>
<event>
 7    1  0.5138511E-013  0.5052887E+02  0.7816164E-02  0.1300439E+00
        -11   -1    0    0    0    0  0.00000000000E+00  0.00000000000E+00  0.45593999997E+02  0.45594000000E+02  0.51100000000E-03 0.  1.
         11   -1    0    0    0    0 -0.00000000000E+00 -0.00000000000E+00 -0.45593999997E+02  0.45594000000E+02  0.51100000000E-03 0. -1.
    9900012    2    1    2    0    0  0.29524820914E+02 -0.22840102854E+02 -0.16117688875E+02  0.50528865196E+02  0.30000016248E+02 0.  0.
        -12    1    1    2    0    0 -0.29524820914E+02  0.22840102854E+02  0.16117688875E+02  0.40659134804E+02  0.00000000000E+00 0.  1.
         11    1    3    3    0    0  0.23526356709E+02 -0.15296349475E+02 -0.80496220741E+01  0.29193564070E+02  0.51100000000E-03 0. -1.
        -11    1    3    3    0    0 -0.11577787607E+01 -0.10638455210E+02 -0.89122416797E+00  0.10738317452E+02  0.51100000000E-03 0.  1.
        -12    1    3    3    0    0  0.71562429650E+01  0.30947018318E+01 -0.71768426332E+01  0.10596983674E+02  0.00000000000E+00 0.  1.
</event>
<event>
 7    1  0.5138511E-013  0.5052886E+02  0.7816164E-02  0.1300439E+00
        -11   -1    0    0    0    0  0.00000000000E+00  0.00000000000E+00  0.45593999997E+02  0.45594000000E+02  0.51100000000E-03 0.  1.
         11   -1    0    0    0    0 -0.00000000000E+00 -0.00000000000E+00 -0.45593999997E+02  0.45594000000E+02  0.51100000000E-03 0. -1.
    9900012    2    1    2    0    0 -0.42791679701E+01 -0.33130216537E+02  0.23178505014E+02  0.50528860548E+02  0.30000002122E+02 0.  0.
        -12    1    1    2    0    0  0.42791679701E+01  0.33130216537E+02 -0.23178505014E+02  0.40659139452E+02  0.00000000000E+00 0.  1.
         11    1    3    3    0    0  0.91442097463E+01 -0.67344063765E+01  0.22563346223E+01  0.11578421625E+02  0.51100000000E-03 0. -1.
        -11    1    3    3    0    0  0.55235818935E+00  0.15294751234E+01  0.10942810529E+01  0.19600625006E+01  0.51100000000E-03 0.  1.
        -12    1    3    3    0    0 -0.13975735906E+02 -0.27925285283E+02  0.19827889339E+02  0.36990376423E+02  0.00000000000E+00 0.  1.
</event>
<event>
 7    1  0.5138511E-013  0.5052886E+02  0.7816164E-02  0.1300439E+00
        -11   -1    0    0    0    0  0.00000000000E+00  0.00000000000E+00  0.45593999997E+02  0.45594000000E+02  0.51100000000E-03 0.  1.
         11   -1    0    0    0    0 -0.00000000000E+00 -0.00000000000E+00 -0.45593999997E+02  0.45594000000E+02  0.51100000000E-03 0. -1.
    9900012    2    1    2    0    0  0.31805466136E+02 -0.87760419770E+01 -0.23760444095E+02  0.50528864587E+02  0.30000014399E+02 0.  0.
        -12    1    1    2    0    0 -0.31805466136E+02  0.87760419770E+01  0.23760444095E+02  0.40659135413E+02  0.00000000000E+00 0.  1.
         11    1    3    3    0    0  0.24765986109E+02 -0.51459537779E+01 -0.76290488117E+01  0.26420395422E+02  0.51100000000E-03 0. -1.
        -11    1    3    3    0    0  0.17979597498E+01  0.61621151538E+01 -0.35854731486E+01  0.73525465242E+01  0.51100000000E-03 0.  1.
        -12    1    3    3    0    0  0.52415202773E+01 -0.97922033528E+01 -0.12545922135E+02  0.16755922640E+02  0.00000000000E+00 0.  1.
</event>
<event>
 7    1  0.5138511E-013  0.5052886E+02  0.7816164E-02  0.1300439E+00
        -11   -1    0    0    0    0  0.00000000000E+00  0.00000000000E+00  0.45593999997E+02  0.45594000000E+02  0.51100000000E-03 0. -1.
         11   -1    0    0    0    0 -0.00000000000E+00 -0.00000000000E+00 -0.45593999997E+02  0.45594000000E+02  0.51100000000E-03 0.  1.
    9900012    2    1    2    0    0 -0.16517827321E+02  0.26671379950E+02  0.25864341517E+02  0.50528864619E+02  0.30000014495E+02 0.  0.
        -12    1    1    2    0    0  0.16517827321E+02 -0.26671379950E+02 -0.25864341517E+02  0.40659135381E+02  0.00000000000E+00 0.  1.
         11    1    3    3    0    0 -0.46177381007E+01  0.12364895771E+02  0.16733823857E+02  0.21312789910E+02  0.51100000000E-03 0. -1.
        -11    1    3    3    0    0 -0.13936444939E+02  0.18421604162E+02  0.83299166878E+01  0.24555396754E+02  0.51100000000E-03 0.  1.
        -12    1    3    3    0    0  0.20363557193E+01 -0.41151199825E+01  0.80060097212E+00  0.46606779552E+01  0.00000000000E+00 0.  1.
</event>
<event>
 7    1  0.5138511E-013  0.5052886E+02  0.7816164E-02  0.1300439E+00
        -11   -1    0    0    0    0  0.00000000000E+00  0.00000000000E+00  0.45593999997E+02  0.45594000000E+02  0.51100000000E-03 0.  1.
         11   -1    0    0    0    0 -0.00000000000E+00 -0.00000000000E+00 -0.45593999997E+02  0.45594000000E+02  0.51100000000E-03 0. -1.
    9900012    2    1    2    0    0  0.31349405761E+02 -0.32624971050E+01 -0.25685337744E+02  0.50528859528E+02  0.29999999020E+02 0.  0.
        -12    1    1    2    0    0 -0.31349405761E+02  0.32624971050E+01  0.25685337744E+02  0.40659140472E+02  0.00000000000E+00 0.  1.
         11    1    3    3    0    0  0.92200431256E+01 -0.81429497815E+01 -0.21096871411E+02  0.24421195916E+02  0.51100000000E-03 0. -1.
        -11    1    3    3    0    0  0.32280463369E+00  0.36326784829E+01  0.49846204105E+00  0.36808994090E+01  0.51100000000E-03 0.  1.
        -12    1    3    3    0    0  0.21806558001E+02  0.12477741936E+01 -0.50869283741E+01  0.22426764202E+02  0.00000000000E+00 0.  1.
</event>
<event>
 7    1  0.5138511E-013  0.5052889E+02  0.7816164E-02  0.1300439E+00
        -11   -1    0    0    0    0  0.00000000000E+00  0.00000000000E+00  0.45593999997E+02  0.45594000000E+02  0.51100000000E-03 0.  1.
         11   -1    0    0    0    0 -0.00000000000E+00 -0.00000000000E+00 -0.45593999997E+02  0.45594000000E+02  0.51100000000E-03 0. -1.
    9900012    2    1    2    0    0 -0.10224315354E+02  0.36003870836E+02 -0.15885459023E+02  0.50528890959E+02  0.30000094560E+02 0.  0.
        -12    1    1    2    0    0  0.10224315354E+02 -0.36003870836E+02  0.15885459023E+02  0.40659109041E+02  0.00000000000E+00 0.  1.
         11    1    3    3    0    0 -0.66593138544E+01 -0.90588243607E+00 -0.45486828790E+01  0.81152695701E+01  0.51100000000E-03 0. -1.
        -11    1    3    3    0    0 -0.96198146611E+01  0.23795519618E+02 -0.32830342161E+01  0.25875585055E+02  0.51100000000E-03 0.  1.
         12    1    3    3    0    0  0.60548131619E+01  0.13114233654E+02 -0.80537419278E+01  0.16538036334E+02  0.00000000000E+00 0. -1.
</event>
<event>
 7    1  0.5138511E-013  0.5052886E+02  0.7816164E-02  0.1300439E+00
        -11   -1    0    0    0    0  0.00000000000E+00  0.00000000000E+00  0.45593999997E+02  0.45594000000E+02  0.51100000000E-03 0.  1.
         11   -1    0    0    0    0 -0.00000000000E+00 -0.00000000000E+00 -0.45593999997E+02  0.45594000000E+02  0.51100000000E-03 0. -1.
    9900012    2    1    2    0    0  0.14969104728E+00 -0.23902104550E+02 -0.32891222596E+02  0.50528861628E+02  0.30000005404E+02 0.  0.
        -12    1    1    2    0    0 -0.14969104728E+00  0.23902104550E+02  0.32891222596E+02  0.40659138372E+02  0.00000000000E+00 0.  1.
         11    1    3    3    0    0 -0.40064867291E+01 -0.30152508128E+01 -0.20287815848E+01  0.54092169816E+01  0.51100000000E-03 0. -1.
        -11    1    3    3    0    0  0.64191316819E+01 -0.12759389512E+02 -0.12601338386E+01  0.14338591626E+02  0.51100000000E-03 0.  1.
         12    1    3    3    0    0 -0.22629539056E+01 -0.81274642248E+01 -0.29602307172E+02  0.30781053020E+02  0.00000000000E+00 0. -1.
</event>
<event>
 7    1  0.5138511E-013  0.5052886E+02  0.7816164E-02  0.1300439E+00
        -11   -1    0    0    0    0  0.00000000000E+00  0.00000000000E+00  0.45593999997E+02  0.45594000000E+02  0.51100000000E-03 0. -1.
         11   -1    0    0    0    0 -0.00000000000E+00 -0.00000000000E+00 -0.45593999997E+02  0.45594000000E+02  0.51100000000E-03 0.  1.
    9900012    2    1    2    0    0 -0.82957930656E+01 -0.19980586437E+02  0.34425601075E+02  0.50528855563E+02  0.29999986969E+02 0.  0.
        -12    1    1    2    0    0  0.82957930656E+01  0.19980586437E+02 -0.34425601075E+02  0.40659144437E+02  0.00000000000E+00 0.  1.
         11    1    3    3    0    0  0.74437088939E+00 -0.10126271076E+02  0.66920705908E+01  0.12160561787E+02  0.51100000000E-03 0. -1.
        -11    1    3    3    0    0 -0.42971155828E+00 -0.34289137613E+01 -0.37515747482E+01  0.51006288787E+01  0.51100000000E-03 0.  1.
         12    1    3    3    0    0 -0.86104523967E+01 -0.64254016007E+01  0.31485105233E+02  0.33267664897E+02  0.00000000000E+00 0. -1.
</event>
<event>
 7    1  0.5138511E-013  0.5052886E+02  0.7816164E-02  0.1300439E+00
        -11   -1    0    0    0    0  0.00000000000E+00  0.00000000000E+00  0.45593999997E+02  0.45594000000E+02  0.51100000000E-03 0. -1.
         11   -1    0    0    0    0 -0.00000000000E+00 -0.00000000000E+00 -0.45593999997E+02  0.45594000000E+02  0.51100000000E-03 0.  1.
    9900012    2    1    2    0    0 -0.19235877228E+02 -0.58739560048E+01  0.35336148501E+02  0.50528859296E+02  0.29999998316E+02 0.  0.
        -12    1    1    2    0    0  0.19235877228E+02  0.58739560048E+01 -0.35336148501E+02  0.40659140704E+02  0.00000000000E+00 0.  1.
         11    1    3    3    0    0 -0.70354824004E+01  0.50265497235E+01  0.29429929059E+02  0.30673847809E+02  0.51100000000E-03 0. -1.
        -11    1    3    3    0    0 -0.51565967782E+00 -0.61201106756E+01  0.32694984067E+01  0.69578214750E+01  0.51100000000E-03 0.  1.
        -12    1    3    3    0    0 -0.11684735150E+02 -0.47803950526E+01  0.26367210360E+01  0.12897190012E+02  0.00000000000E+00 0.  1.
</event>
<event>
 7    1  0.5138511E-013  0.5052888E+02  0.7816164E-02  0.1300439E+00
        -11   -1    0    0    0    0  0.00000000000E+00  0.00000000000E+00  0.45593999997E+02  0.45594000000E+02  0.51100000000E-03 0. -1.
         11   -1    0    0    0    0 -0.00000000000E+00 -0.00000000000E+00 -0.45593999997E+02  0.45594000000E+02  0.51100000000E-03 0.  1.
    9900012    2    1    2    0    0  0.17736453060E+02 -0.31939535805E+02  0.17845116253E+02  0.50528881850E+02  0.30000066872E+02 0.  0.
        -12    1    1    2    0    0 -0.17736453060E+02  0.31939535805E+02 -0.17845116253E+02  0.40659118150E+02  0.00000000000E+00 0.  1.
         11    1    3    3    0    0  0.38631454526E+01  0.35352266275E+01  0.38470382440E+01  0.64978014442E+01  0.51100000000E-03 0. -1.
        -11    1    3    3    0    0  0.64891562234E+00 -0.86757296765E+01 -0.35263783052E+01  0.93874768238E+01  0.51100000000E-03 0.  1.
         12    1    3    3    0    0  0.13224391985E+02 -0.26799032756E+02  0.17524456315E+02  0.34643603582E+02  0.00000000000E+00 0. -1.
</event>
<event>
 7    1  0.5138511E-013  0.5052886E+02  0.7816164E-02  0.1300439E+00
        -11   -1    0    0    0    0  0.00000000000E+00  0.00000000000E+00  0.45593999997E+02  0.45594000000E+02  0.51100000000E-03 0.  1.
         11   -1    0    0    0    0 -0.00000000000E+00 -0.00000000000E+00 -0.45593999997E+02  0.45594000000E+02  0.51100000000E-03 0. -1.
    9900012    2    1    2    0    0  0.14563560938E+02 -0.37629682678E+02 -0.50075167624E+01  0.50528861424E+02  0.30000004783E+02 0.  0.
        -12    1    1    2    0    0 -0.14563560938E+02  0.37629682678E+02  0.50075167624E+01  0.40659138576E+02  0.00000000000E+00 0.  1.
         11    1    3    3    0    0  0.63394101348E+01 -0.14976615753E+02 -0.96313035997E+01  0.18901035675E+02  0.51100000000E-03 0. -1.
        -11    1    3    3    0    0 -0.13276038865E+01  0.20558053932E+01 -0.31789066972E+01  0.40117721701E+01  0.51100000000E-03 0.  1.
        -12    1    3    3    0    0  0.95517546893E+01 -0.24708872318E+02  0.78026935345E+01  0.27616053579E+02  0.00000000000E+00 0.  1.
</event>
<event>
 7    1  0.5138511E-013  0.5052885E+02  0.7816164E-02  0.1300439E+00
        -11   -1    0    0    0    0  0.00000000000E+00  0.00000000000E+00  0.45593999997E+02  0.45594000000E+02  0.51100000000E-03 0. -1.
         11   -1    0    0    0    0 -0.00000000000E+00 -0.00000000000E+00 -0.45593999997E+02  0.45594000000E+02  0.51100000000E-03 0.  1.
    9900012    2    1    2    0    0  0.24877042958E+02 -0.32024439426E+02  0.29553707186E+01  0.50528853392E+02  0.29999980369E+02 0.  0.
        -12    1    1    2    0    0 -0.24877042958E+02  0.32024439426E+02 -0.29553707186E+01  0.40659146608E+02  0.00000000000E+00 0.  1.
         11    1    3    3    0    0  0.15087827117E+02 -0.26494656900E+01  0.51362322513E+01  0.16156827583E+02  0.51100000000E-03 0. -1.
        -11    1    3    3    0    0  0.21498597728E+00 -0.65178214133E+01  0.53894425316E+01  0.84601599280E+01  0.51100000000E-03 0.  1.
         12    1    3    3    0    0  0.95742298633E+01 -0.22857152322E+02 -0.75703040642E+01  0.25911865880E+02  0.00000000000E+00 0. -1.
</event>
<event>
 7    1  0.5138511E-013  0.5052886E+02  0.7816164E-02  0.1300439E+00
        -11   -1    0    0    0    0  0.00000000000E+00  0.00000000000E+00  0.45593999997E+02  0.45594000000E+02  0.51100000000E-03 0.  1.
         11   -1    0    0    0    0 -0.00000000000E+00 -0.00000000000E+00 -0.45593999997E+02  0.45594000000E+02  0.51100000000E-03 0. -1.
    9900012    2    1    2    0    0  0.31492169223E+02 -0.75011578333E+01 -0.24599625889E+02  0.50528859760E+02  0.29999999726E+02 0.  0.
        -12    1    1    2    0    0 -0.31492169223E+02  0.75011578333E+01  0.24599625889E+02  0.40659140240E+02  0.00000000000E+00 0.  1.
         11    1    3    3    0    0  0.18468315592E+02 -0.11643866921E+02 -0.13466135043E+02  0.25651415379E+02  0.51100000000E-03 0. -1.
        -11    1    3    3    0    0  0.15504719059E+02 -0.10287987148E+01 -0.46471948406E+01  0.16218851996E+02  0.51100000000E-03 0.  1.
         12    1    3    3    0    0 -0.24808654290E+01  0.51715078021E+01 -0.64862960053E+01  0.86585923852E+01  0.00000000000E+00 0. -1.
</event>
<event>
 7    1  0.5399194E-013  0.5052886E+02  0.7816164E-02  0.1300439E+00
        -11   -1    0    0    0    0  0.00000000000E+00  0.00000000000E+00  0.45593999997E+02  0.45594000000E+02  0.51100000000E-03 0.  1.
         11   -1    0    0    0    0 -0.00000000000E+00 -0.00000000000E+00 -0.45593999997E+02  0.45594000000E+02  0.51100000000E-03 0. -1.
    9900012    2    1    2    0    0  0.47144479056E+01  0.40376040248E+02  0.84567006215E+00  0.50528858310E+02  0.29999995318E+02 0.  0.
        -12    1    1    2    0    0 -0.47144479056E+01 -0.40376040248E+02 -0.84567006215E+00  0.40659141690E+02  0.00000000000E+00 0.  1.
         11    1    3    3    0    0  0.51737997780E+01  0.19119271425E+02 -0.12684252809E+01  0.19847509842E+02  0.51100000000E-03 0. -1.
        -11    1    3    3    0    0  0.10458896516E+02  0.67502951611E+01  0.61088204780E+00  0.12463072584E+02  0.51100000000E-03 0.  1.
        -12    1    3    3    0    0 -0.10918248388E+02  0.14506473662E+02  0.15032132952E+01  0.18218275884E+02  0.00000000000E+00 0.  1.
</event>
<event>
 7    1  0.5138511E-013  0.5052886E+02  0.7816164E-02  0.1300439E+00
        -11   -1    0    0    0    0  0.00000000000E+00  0.00000000000E+00  0.45593999997E+02  0.45594000000E+02  0.51100000000E-03 0.  1.
         11   -1    0    0    0    0 -0.00000000000E+00 -0.00000000000E+00 -0.45593999997E+02  0.45594000000E+02  0.51100000000E-03 0. -1.
    9900012    2    1    2    0    0 -0.11740101904E+02 -0.38161629117E+02 -0.76828227518E+01  0.50528859637E+02  0.29999999354E+02 0.  0.
        -12    1    1    2    0    0  0.11740101904E+02  0.38161629117E+02  0.76828227518E+01  0.40659140363E+02  0.00000000000E+00 0.  1.
         11    1    3    3    0    0  0.39172536217E+01  0.15433194908E+01 -0.21941810708E+01  0.47477512382E+01  0.51100000000E-03 0. -1.
        -11    1    3    3    0    0 -0.53229275611E+01 -0.20366547637E+02 -0.10141651444E+02  0.23366277297E+02  0.51100000000E-03 0.  1.
        -12    1    3    3    0    0 -0.10334427965E+02 -0.19338400971E+02  0.46530097629E+01  0.22414831102E+02  0.00000000000E+00 0.  1.
</event>
<event>
 7    1  0.5138511E-013  0.5052886E+02  0.7816164E-02  0.1300439E+00
        -11   -1    0    0    0    0  0.00000000000E+00  0.00000000000E+00  0.45593999997E+02  0.45594000000E+02  0.51100000000E-03 0.  1.
         11   -1    0    0    0    0 -0.00000000000E+00 -0.00000000000E+00 -0.45593999997E+02  0.45594000000E+02  0.51100000000E-03 0. -1.
    9900012    2    1    2    0    0  0.27567847934E+02  0.13355134523E+02 -0.26736116637E+02  0.50528858461E+02  0.29999995778E+02 0.  0.
        -12    1    1    2    0    0 -0.27567847934E+02 -0.13355134523E+02  0.26736116637E+02  0.40659141539E+02  0.00000000000E+00 0.  1.
         11    1    3    3    0    0  0.84237829146E+01  0.49115549828E+01  0.20418020892E+01  0.99625522320E+01  0.51100000000E-03 0. -1.
        -11    1    3    3    0    0  0.13722820926E+01  0.10594467276E+02 -0.10330343332E+02  0.14860749935E+02  0.51100000000E-03 0.  1.
         12    1    3    3    0    0  0.17771782927E+02 -0.21508877360E+01 -0.18447575394E+02  0.25705556294E+02  0.00000000000E+00 0. -1.
</event>
<event>
 7    1  0.5138511E-013  0.5052887E+02  0.7816164E-02  0.1300439E+00
        -11   -1    0    0    0    0  0.00000000000E+00  0.00000000000E+00  0.45593999997E+02  0.45594000000E+02  0.51100000000E-03 0.  1.
         11   -1    0    0    0    0 -0.00000000000E+00 -0.00000000000E+00 -0.45593999997E+02  0.45594000000E+02  0.51100000000E-03 0. -1.
    9900012    2    1    2    0    0 -0.55458572882E+01  0.23514746756E+02 -0.32702681432E+02  0.50528865468E+02  0.30000017075E+02 0.  0.
        -12    1    1    2    0    0  0.55458572882E+01 -0.23514746756E+02  0.32702681432E+02  0.40659134532E+02  0.00000000000E+00 0.  1.
         11    1    3    3    0    0  0.14771563753E+00 -0.56464733491E+00 -0.18596384920E+02  0.18605541617E+02  0.51100000000E-03 0. -1.
        -11    1    3    3    0    0  0.13116138633E+00  0.11806172349E+02 -0.14031171431E+02  0.18337848315E+02  0.51100000000E-03 0.  1.
        -12    1    3    3    0    0 -0.58247343121E+01  0.12273221742E+02 -0.75125081489E-01  0.13585475535E+02  0.00000000000E+00 0.  1.
</event>
<event>
 7    1  0.5138511E-013  0.5052886E+02  0.7816164E-02  0.1300439E+00
        -11   -1    0    0    0    0  0.00000000000E+00  0.00000000000E+00  0.45593999997E+02  0.45594000000E+02  0.51100000000E-03 0. -1.
         11   -1    0    0    0    0 -0.00000000000E+00 -0.00000000000E+00 -0.45593999997E+02  0.45594000000E+02  0.51100000000E-03 0.  1.
    9900012    2    1    2    0    0 -0.16113115260E+02 -0.37104134850E+02 -0.41007621998E+01  0.50528861335E+02  0.30000004513E+02 0.  0.
        -12    1    1    2    0    0  0.16113115260E+02  0.37104134850E+02  0.41007621998E+01  0.40659138665E+02  0.00000000000E+00 0.  1.
         11    1    3    3    0    0  0.54924998640E+01 -0.36109375698E+01  0.39140835174E+00  0.65848026279E+01  0.51100000000E-03 0. -1.
        -11    1    3    3    0    0 -0.89690295471E+00  0.11436676999E+01  0.25918513153E+01  0.29715491279E+01  0.51100000000E-03 0.  1.
         12    1    3    3    0    0 -0.20708712169E+02 -0.34636864981E+02 -0.70840218669E+01  0.40972509579E+02  0.00000000000E+00 0. -1.
</event>
<event>
 7    1  0.5138511E-013  0.5052892E+02  0.7816164E-02  0.1300439E+00
        -11   -1    0    0    0    0  0.00000000000E+00  0.00000000000E+00  0.45593999997E+02  0.45594000000E+02  0.51100000000E-03 0.  1.
         11   -1    0    0    0    0 -0.00000000000E+00 -0.00000000000E+00 -0.45593999997E+02  0.45594000000E+02  0.51100000000E-03 0. -1.
    9900012    2    1    2    0    0 -0.26674919158E+01  0.18093950774E+02 -0.36313280339E+02  0.50528918644E+02  0.30000178709E+02 0.  0.
        -12    1    1    2    0    0  0.26674919158E+01 -0.18093950774E+02  0.36313280339E+02  0.40659081356E+02  0.00000000000E+00 0.  1.
         11    1    3    3    0    0 -0.57867987802E+01  0.10377549625E+02 -0.73367615539E+01  0.13964549642E+02  0.51100000000E-03 0. -1.
        -11    1    3    3    0    0  0.95920459071E+01  0.32564715603E+01 -0.49300638181E+01  0.11265765896E+02  0.51100000000E-03 0.  1.
         12    1    3    3    0    0 -0.64727390427E+01  0.44599295896E+01 -0.24046454967E+02  0.25298603107E+02  0.00000000000E+00 0. -1.
</event>
<event>
 7    1  0.5138511E-013  0.5052882E+02  0.7816164E-02  0.1300439E+00
        -11   -1    0    0    0    0  0.00000000000E+00  0.00000000000E+00  0.45593999997E+02  0.45594000000E+02  0.51100000000E-03 0. -1.
         11   -1    0    0    0    0 -0.00000000000E+00 -0.00000000000E+00 -0.45593999997E+02  0.45594000000E+02  0.51100000000E-03 0.  1.
    9900012    2    1    2    0    0 -0.27447385270E+02 -0.16491180523E+02  0.25056959514E+02  0.50528816372E+02  0.29999867844E+02 0.  0.
        -12    1    1    2    0    0  0.27447385270E+02  0.16491180523E+02 -0.25056959514E+02  0.40659183628E+02  0.00000000000E+00 0.  1.
         11    1    3    3    0    0 -0.12225220813E+02  0.17454336013E+00  0.82824141821E+01  0.14767696986E+02  0.51100000000E-03 0. -1.
        -11    1    3    3    0    0 -0.10336344951E+02 -0.62496170368E+01 -0.33897934982E+01  0.12545454965E+02  0.51100000000E-03 0.  1.
        -12    1    3    3    0    0 -0.48858195058E+01 -0.10416106846E+02  0.20164338830E+02  0.23215664421E+02  0.00000000000E+00 0.  1.
</event>
<event>
 7    1  0.5138511E-013  0.5052886E+02  0.7816164E-02  0.1300439E+00
        -11   -1    0    0    0    0  0.00000000000E+00  0.00000000000E+00  0.45593999997E+02  0.45594000000E+02  0.51100000000E-03 0.  1.
         11   -1    0    0    0    0 -0.00000000000E+00 -0.00000000000E+00 -0.45593999997E+02  0.45594000000E+02  0.51100000000E-03 0. -1.
    9900012    2    1    2    0    0 -0.39567495593E+02  0.58581153014E+00 -0.93400212522E+01  0.50528857367E+02  0.29999992452E+02 0.  0.
        -12    1    1    2    0    0  0.39567495593E+02 -0.58581153014E+00  0.93400212522E+01  0.40659142633E+02  0.00000000000E+00 0.  1.
         11    1    3    3    0    0 -0.25208079709E+02 -0.12027139323E+01 -0.64594071089E+01  0.26050292587E+02  0.51100000000E-03 0. -1.
        -11    1    3    3    0    0 -0.58532995490E+01 -0.18681692027E+01 -0.10713906910E+02  0.12350666918E+02  0.51100000000E-03 0.  1.
        -12    1    3    3    0    0 -0.85061163352E+01  0.36566946652E+01  0.78332927665E+01  0.12127897862E+02  0.00000000000E+00 0.  1.
</event>
<event>
 7    1  0.5138511E-013  0.5052886E+02  0.7816164E-02  0.1300439E+00
        -11   -1    0    0    0    0  0.00000000000E+00  0.00000000000E+00  0.45593999997E+02  0.45594000000E+02  0.51100000000E-03 0.  1.
         11   -1    0    0    0    0 -0.00000000000E+00 -0.00000000000E+00 -0.45593999997E+02  0.45594000000E+02  0.51100000000E-03 0. -1.
    9900012    2    1    2    0    0  0.14270947818E+02 -0.13599454107E+02 -0.35560665546E+02  0.50528855424E+02  0.29999986546E+02 0.  0.
        -12    1    1    2    0    0 -0.14270947818E+02  0.13599454107E+02  0.35560665546E+02  0.40659144576E+02  0.00000000000E+00 0.  1.
         11    1    3    3    0    0  0.10902712799E+02 -0.78969898761E+01 -0.84776214182E+01  0.15909169075E+02  0.51100000000E-03 0. -1.
        -11    1    3    3    0    0 -0.28273469105E+01 -0.11331072940E+02 -0.91736155162E+01  0.14850667541E+02  0.51100000000E-03 0.  1.
         12    1    3    3    0    0  0.61955819296E+01  0.56286087091E+01 -0.17909428611E+02  0.19769018808E+02  0.00000000000E+00 0. -1.
</event>
<event>
 7    1  0.5138511E-013  0.5052886E+02  0.7816164E-02  0.1300439E+00
        -11   -1    0    0    0    0  0.00000000000E+00  0.00000000000E+00  0.45593999997E+02  0.45594000000E+02  0.51100000000E-03 0.  1.
         11   -1    0    0    0    0 -0.00000000000E+00 -0.00000000000E+00 -0.45593999997E+02  0.45594000000E+02  0.51100000000E-03 0. -1.
    9900012    2    1    2    0    0  0.33358340374E+02  0.88544696454E+01 -0.21493847509E+02  0.50528856060E+02  0.29999988480E+02 0.  0.
        -12    1    1    2    0    0 -0.33358340374E+02 -0.88544696454E+01  0.21493847509E+02  0.40659143940E+02  0.00000000000E+00 0.  1.
         11    1    3    3    0    0 -0.25150076846E+01 -0.31045817928E-03  0.18931525049E+01  0.31479025426E+01  0.51100000000E-03 0. -1.
        -11    1    3    3    0    0  0.13426784858E+02  0.74241093278E+01 -0.58698293782E+00  0.15353843172E+02  0.51100000000E-03 0.  1.
         12    1    3    3    0    0  0.22446563201E+02  0.14306707758E+01 -0.22800017076E+02  0.32027110345E+02  0.00000000000E+00 0. -1.
</event>
<event>
 7    1  0.5138511E-013  0.5052884E+02  0.7816164E-02  0.1300439E+00
        -11   -1    0    0    0    0  0.00000000000E+00  0.00000000000E+00  0.45593999997E+02  0.45594000000E+02  0.51100000000E-03 0.  1.
         11   -1    0    0    0    0 -0.00000000000E+00 -0.00000000000E+00 -0.45593999997E+02  0.45594000000E+02  0.51100000000E-03 0. -1.
    9900012    2    1    2    0    0 -0.29225452568E+02  0.17075436399E+02 -0.22527086237E+02  0.50528840880E+02  0.29999942338E+02 0.  0.
        -12    1    1    2    0    0  0.29225452568E+02 -0.17075436399E+02  0.22527086237E+02  0.40659159120E+02  0.00000000000E+00 0.  1.
         11    1    3    3    0    0 -0.19731122464E+02  0.24828630875E+02 -0.14336122520E+02  0.34803771548E+02  0.51100000000E-03 0.  1.
        -11    1    3    3    0    0 -0.56817970746E+01 -0.14649380502E+01 -0.22984236846E+01  0.63017150985E+01  0.51100000000E-03 0. -1.
        -12    1    3    3    0    0 -0.38125330291E+01 -0.62882564252E+01 -0.58925400322E+01  0.94233542329E+01  0.00000000000E+00 0.  1.
</event>
<event>
 7    1  0.5138511E-013  0.5052886E+02  0.7816164E-02  0.1300439E+00
        -11   -1    0    0    0    0  0.00000000000E+00  0.00000000000E+00  0.45593999997E+02  0.45594000000E+02  0.51100000000E-03 0.  1.
         11   -1    0    0    0    0 -0.00000000000E+00 -0.00000000000E+00 -0.45593999997E+02  0.45594000000E+02  0.51100000000E-03 0. -1.
    9900012    2    1    2    0    0  0.99091584547E+01 -0.80103597664E+01 -0.38610987401E+02  0.50528860401E+02  0.30000001675E+02 0.  0.
        -12    1    1    2    0    0 -0.99091584547E+01  0.80103597664E+01  0.38610987401E+02  0.40659139599E+02  0.00000000000E+00 0.  1.
         11    1    3    3    0    0  0.63693224801E+00  0.72976260981E+01 -0.10767983761E+02  0.13023459751E+02  0.51100000000E-03 0. -1.
        -11    1    3    3    0    0 -0.20274602234E+01 -0.92374573623E+01 -0.20853051055E+02  0.22897400552E+02  0.51100000000E-03 0.  1.
         12    1    3    3    0    0  0.11299686430E+02 -0.60705285022E+01 -0.69899525850E+01  0.14608000098E+02  0.00000000000E+00 0. -1.
</event>
<event>
 7    1  0.5138511E-013  0.5052886E+02  0.7816164E-02  0.1300439E+00
        -11   -1    0    0    0    0  0.00000000000E+00  0.00000000000E+00  0.45593999997E+02  0.45594000000E+02  0.51100000000E-03 0.  1.
         11   -1    0    0    0    0 -0.00000000000E+00 -0.00000000000E+00 -0.45593999997E+02  0.45594000000E+02  0.51100000000E-03 0. -1.
    9900012    2    1    2    0    0 -0.32340979189E+02 -0.97277084054E+01 -0.22640631012E+02  0.50528863040E+02  0.30000009695E+02 0.  0.
        -12    1    1    2    0    0  0.32340979189E+02  0.97277084054E+01  0.22640631012E+02  0.40659136960E+02  0.00000000000E+00 0.  1.
         11    1    3    3    0    0  0.19542269103E+01  0.10553866366E+00 -0.50467639112E+01  0.54129444356E+01  0.51100000000E-03 0. -1.
        -11    1    3    3    0    0 -0.57915823002E+01  0.26755675320E+00  0.47672538926E+01  0.75060457029E+01  0.51100000000E-03 0.  1.
         12    1    3    3    0    0 -0.28503623799E+02 -0.10100803822E+02 -0.22361120994E+02  0.37609872901E+02  0.00000000000E+00 0. -1.
</event>
<event>
 7    1  0.7501128E-013  0.5052886E+02  0.7816164E-02  0.1300439E+00
        -11   -1    0    0    0    0  0.00000000000E+00  0.00000000000E+00  0.45593999997E+02  0.45594000000E+02  0.51100000000E-03 0. -1.
         11   -1    0    0    0    0 -0.00000000000E+00 -0.00000000000E+00 -0.45593999997E+02  0.45594000000E+02  0.51100000000E-03 0.  1.
    9900012    2    1    2    0    0 -0.10561670918E+02  0.10788424643E+02  0.37752171895E+02  0.50528862261E+02  0.30000007328E+02 0.  0.
        -12    1    1    2    0    0  0.10561670918E+02 -0.10788424643E+02 -0.37752171895E+02  0.40659137739E+02  0.00000000000E+00 0.  1.
         11    1    3    3    0    0  0.68387142178E+00  0.10885792804E+02  0.24545404151E+02  0.26859728782E+02  0.51100000000E-03 0. -1.
        -11    1    3    3    0    0 -0.16639485144E+01 -0.63686463509E+01  0.96439809480E+01  0.11676247248E+02  0.51100000000E-03 0.  1.
        -12    1    3    3    0    0 -0.95815938258E+01  0.62712781908E+01  0.35627867968E+01  0.11992886231E+02  0.00000000000E+00 0.  1.
</event>
<event>
 7    1  0.5138511E-013  0.5052885E+02  0.7816164E-02  0.1300439E+00
        -11   -1    0    0    0    0  0.00000000000E+00  0.00000000000E+00  0.45593999997E+02  0.45594000000E+02  0.51100000000E-03 0.  1.
         11   -1    0    0    0    0 -0.00000000000E+00 -0.00000000000E+00 -0.45593999997E+02  0.45594000000E+02  0.51100000000E-03 0. -1.
    9900012    2    1    2    0    0  0.32365428908E+02 -0.10639583530E+02 -0.22191087593E+02  0.50528854723E+02  0.29999984417E+02 0.  0.
        -12    1    1    2    0    0 -0.32365428908E+02  0.10639583530E+02  0.22191087593E+02  0.40659145277E+02  0.00000000000E+00 0.  1.
         11    1    3    3    0    0  0.37980546637E+01 -0.94458145976E+01 -0.57123967340E+01  0.11673907201E+02  0.51100000000E-03 0. -1.
        -11    1    3    3    0    0  0.83406549728E+00 -0.11142226397E+01  0.40939986817E+01  0.43241164197E+01  0.51100000000E-03 0.  1.
         12    1    3    3    0    0  0.27733308747E+02 -0.79546293080E-01 -0.20572689541E+02  0.34530831102E+02  0.00000000000E+00 0. -1.
</event>
<event>
 7    1  0.5138511E-013  0.5052886E+02  0.7816164E-02  0.1300439E+00
        -11   -1    0    0    0    0  0.00000000000E+00  0.00000000000E+00  0.45593999997E+02  0.45594000000E+02  0.51100000000E-03 0.  1.
         11   -1    0    0    0    0 -0.00000000000E+00 -0.00000000000E+00 -0.45593999997E+02  0.45594000000E+02  0.51100000000E-03 0. -1.
    9900012    2    1    2    0    0  0.35364785198E+01 -0.36040862720E+01 -0.40344383740E+02  0.50528863050E+02  0.30000009726E+02 0.  0.
        -12    1    1    2    0    0 -0.35364785198E+01  0.36040862720E+01  0.40344383740E+02  0.40659136950E+02  0.00000000000E+00 0.  1.
         11    1    3    3    0    0  0.40858893092E+01  0.21919109056E+01 -0.13239260157E+02  0.14027721648E+02  0.51100000000E-03 0. -1.
        -11    1    3    3    0    0 -0.93399596307E+01 -0.31603805033E+00 -0.23893303094E+02  0.25655889362E+02  0.51100000000E-03 0.  1.
        -12    1    3    3    0    0  0.87905488412E+01 -0.54799591272E+01 -0.32118204895E+01  0.10845252041E+02  0.00000000000E+00 0.  1.
</event>
<event>
 7    1  0.5138511E-013  0.5052878E+02  0.7816164E-02  0.1300439E+00
        -11   -1    0    0    0    0  0.00000000000E+00  0.00000000000E+00  0.45593999997E+02  0.45594000000E+02  0.51100000000E-03 0. -1.
         11   -1    0    0    0    0 -0.00000000000E+00 -0.00000000000E+00 -0.45593999997E+02  0.45594000000E+02  0.51100000000E-03 0.  1.
    9900012    2    1    2    0    0 -0.18725717347E+02 -0.18893794482E+02  0.30749700021E+02  0.50528781962E+02  0.29999763252E+02 0.  0.
        -12    1    1    2    0    0  0.18725717347E+02  0.18893794482E+02 -0.30749700021E+02  0.40659218038E+02  0.00000000000E+00 0.  1.
         11    1    3    3    0    0 -0.35867926910E+01 -0.12953304076E+02  0.23278997462E+02  0.26880567170E+02  0.51100000000E-03 0. -1.
        -11    1    3    3    0    0 -0.14217778744E+01  0.44960827096E+01  0.37262803369E+01  0.60101062774E+01  0.51100000000E-03 0.  1.
        -12    1    3    3    0    0 -0.13717146781E+02 -0.10436573116E+02  0.37444222224E+01  0.17638108515E+02  0.00000000000E+00 0.  1.
</event>
<event>
 7    1  0.5138511E-013  0.5052885E+02  0.7816164E-02  0.1300439E+00
        -11   -1    0    0    0    0  0.00000000000E+00  0.00000000000E+00  0.45593999997E+02  0.45594000000E+02  0.51100000000E-03 0.  1.
         11   -1    0    0    0    0 -0.00000000000E+00 -0.00000000000E+00 -0.45593999997E+02  0.45594000000E+02  0.51100000000E-03 0. -1.
    9900012    2    1    2    0    0  0.28766258814E+02 -0.24648661407E+02  0.14768615583E+02  0.50528853901E+02  0.29999981917E+02 0.  0.
        -12    1    1    2    0    0 -0.28766258814E+02  0.24648661407E+02 -0.14768615583E+02  0.40659146099E+02  0.00000000000E+00 0.  1.
         11    1    3    3    0    0  0.13264916968E+02 -0.11154957535E+02 -0.11574639905E+01  0.17370400771E+02  0.51100000000E-03 0. -1.
        -11    1    3    3    0    0 -0.56235483264E+00 -0.34480458038E+00 -0.41960742111E+01  0.42476078212E+01  0.51100000000E-03 0.  1.
         12    1    3    3    0    0  0.16063696678E+02 -0.13148899292E+02  0.20122153785E+02  0.28910845309E+02  0.00000000000E+00 0. -1.
</event>
<event>
 7    1  0.5138511E-013  0.5052887E+02  0.7816164E-02  0.1300439E+00
        -11   -1    0    0    0    0  0.00000000000E+00  0.00000000000E+00  0.45593999997E+02  0.45594000000E+02  0.51100000000E-03 0.  1.
         11   -1    0    0    0    0 -0.00000000000E+00 -0.00000000000E+00 -0.45593999997E+02  0.45594000000E+02  0.51100000000E-03 0. -1.
    9900012    2    1    2    0    0  0.24589011120E+02 -0.28509651338E+02 -0.15353992799E+02  0.50528870863E+02  0.30000033476E+02 0.  0.
        -12    1    1    2    0    0 -0.24589011120E+02  0.28509651338E+02  0.15353992799E+02  0.40659129137E+02  0.00000000000E+00 0.  1.
         11    1    3    3    0    0  0.10213131374E+02 -0.16582643108E+02  0.29056655042E+01  0.19690987715E+02  0.51100000000E-03 0. -1.
        -11    1    3    3    0    0  0.53435664828E+01  0.12733428394E+01  0.12259673706E+01  0.56283302140E+01  0.51100000000E-03 0.  1.
        -12    1    3    3    0    0  0.90323132636E+01 -0.13200351069E+02 -0.19485625674E+02  0.25209552934E+02  0.00000000000E+00 0.  1.
</event>
<event>
 7    1  0.5138511E-013  0.5052887E+02  0.7816164E-02  0.1300439E+00
        -11   -1    0    0    0    0  0.00000000000E+00  0.00000000000E+00  0.45593999997E+02  0.45594000000E+02  0.51100000000E-03 0.  1.
         11   -1    0    0    0    0 -0.00000000000E+00 -0.00000000000E+00 -0.45593999997E+02  0.45594000000E+02  0.51100000000E-03 0. -1.
    9900012    2    1    2    0    0  0.13592626616E+02  0.81129372250E+01 -0.37451104339E+02  0.50528874764E+02  0.30000045331E+02 0.  0.
        -12    1    1    2    0    0 -0.13592626616E+02 -0.81129372250E+01  0.37451104339E+02  0.40659125236E+02  0.00000000000E+00 0.  1.
         11    1    3    3    0    0  0.20843894116E+01 -0.80988532512E-01 -0.23155328520E+02  0.23249096273E+02  0.51100000000E-03 0. -1.
        -11    1    3    3    0    0 -0.16762722801E+01 -0.38844669460E+01  0.23804398687E+00  0.42374092807E+01  0.51100000000E-03 0.  1.
        -12    1    3    3    0    0  0.13184509485E+02  0.12078392704E+02 -0.14533819806E+02  0.23042369210E+02  0.00000000000E+00 0.  1.
</event>
<event>
 7    1  0.5138511E-013  0.5052886E+02  0.7816164E-02  0.1300439E+00
        -11   -1    0    0    0    0  0.00000000000E+00  0.00000000000E+00  0.45593999997E+02  0.45594000000E+02  0.51100000000E-03 0.  1.
         11   -1    0    0    0    0 -0.00000000000E+00 -0.00000000000E+00 -0.45593999997E+02  0.45594000000E+02  0.51100000000E-03 0. -1.
    9900012    2    1    2    0    0  0.37100473348E+02  0.13007861442E+02 -0.10368979246E+02  0.50528864341E+02  0.30000013651E+02 0.  0.
        -12    1    1    2    0    0 -0.37100473348E+02 -0.13007861442E+02  0.10368979246E+02  0.40659135659E+02  0.00000000000E+00 0.  1.
         11    1    3    3    0    0  0.38676730473E+01  0.96211511954E+01 -0.78415796557E+01  0.13000608327E+02  0.51100000000E-03 0. -1.
        -11    1    3    3    0    0  0.11978661743E+02  0.87241564090E+01  0.25423597070E+01  0.15035386106E+02  0.51100000000E-03 0.  1.
        -12    1    3    3    0    0  0.21254138558E+02 -0.53374461621E+01 -0.50697592973E+01  0.22492869908E+02  0.00000000000E+00 0.  1.
</event>
<event>
 7    1  0.6623670E-013  0.5052884E+02  0.7816164E-02  0.1300439E+00
        -11   -1    0    0    0    0  0.00000000000E+00  0.00000000000E+00  0.45593999997E+02  0.45594000000E+02  0.51100000000E-03 0. -1.
         11   -1    0    0    0    0 -0.00000000000E+00 -0.00000000000E+00 -0.45593999997E+02  0.45594000000E+02  0.51100000000E-03 0.  1.
    9900012    2    1    2    0    0  0.23248724834E+02  0.18182496609E+02  0.27965348557E+02  0.50528842247E+02  0.29999946493E+02 0.  0.
        -12    1    1    2    0    0 -0.23248724834E+02 -0.18182496609E+02 -0.27965348557E+02  0.40659157753E+02  0.00000000000E+00 0.  1.
         11    1    3    3    0    0  0.11127999845E+02  0.54413197078E+01  0.17960906468E+02  0.21818214916E+02  0.51100000000E-03 0. -1.
        -11    1    3    3    0    0  0.16335243919E+02  0.14864136733E+02  0.91915385700E+01  0.23922105598E+02  0.51100000000E-03 0.  1.
        -12    1    3    3    0    0 -0.42145189297E+01 -0.21229598319E+01  0.81290351906E+00  0.47885217331E+01  0.00000000000E+00 0.  1.
</event>
<event>
 7    1  0.5138511E-013  0.5052886E+02  0.7816164E-02  0.1300439E+00
        -11   -1    0    0    0    0  0.00000000000E+00  0.00000000000E+00  0.45593999997E+02  0.45594000000E+02  0.51100000000E-03 0.  1.
         11   -1    0    0    0    0 -0.00000000000E+00 -0.00000000000E+00 -0.45593999997E+02  0.45594000000E+02  0.51100000000E-03 0. -1.
    9900012    2    1    2    0    0  0.90054391585E+00 -0.38849581570E+02  0.11960967805E+02  0.50528859351E+02  0.29999998483E+02 0.  0.
        -12    1    1    2    0    0 -0.90054391585E+00  0.38849581570E+02 -0.11960967805E+02  0.40659140649E+02  0.00000000000E+00 0.  1.
         11    1    3    3    0    0  0.96533556324E+01 -0.22065676784E+02  0.37509322603E+01  0.24375209947E+02  0.51100000000E-03 0. -1.
        -11    1    3    3    0    0  0.23580548355E+01  0.14076914012E+01  0.32739877550E+01  0.42732907424E+01  0.51100000000E-03 0.  1.
         12    1    3    3    0    0 -0.11110866552E+02 -0.18191596187E+02  0.49360477897E+01  0.21880358661E+02  0.00000000000E+00 0. -1.
</event>
<event>
 7    1  0.5138511E-013  0.5052886E+02  0.7816164E-02  0.1300439E+00
        -11   -1    0    0    0    0  0.00000000000E+00  0.00000000000E+00  0.45593999997E+02  0.45594000000E+02  0.51100000000E-03 0. -1.
         11   -1    0    0    0    0 -0.00000000000E+00 -0.00000000000E+00 -0.45593999997E+02  0.45594000000E+02  0.51100000000E-03 0.  1.
    9900012    2    1    2    0    0 -0.10204880712E+02  0.20249375315E+02  0.33748911340E+02  0.50528858253E+02  0.29999995144E+02 0.  0.
        -12    1    1    2    0    0  0.10204880712E+02 -0.20249375315E+02 -0.33748911340E+02  0.40659141747E+02  0.00000000000E+00 0.  1.
         11    1    3    3    0    0 -0.30546696773E+01  0.21387200059E+02  0.20357329078E+02  0.29684409724E+02  0.51100000000E-03 0. -1.
        -11    1    3    3    0    0  0.23577106996E+01 -0.49012662680E+01  0.27814769484E+01  0.61088317253E+01  0.51100000000E-03 0.  1.
        -12    1    3    3    0    0 -0.95079217347E+01  0.37634415245E+01  0.10610105313E+02  0.14735616804E+02  0.00000000000E+00 0.  1.
</event>
<event>
 7    1  0.5138511E-013  0.5052886E+02  0.7816164E-02  0.1300439E+00
        -11   -1    0    0    0    0  0.00000000000E+00  0.00000000000E+00  0.45593999997E+02  0.45594000000E+02  0.51100000000E-03 0.  1.
         11   -1    0    0    0    0 -0.00000000000E+00 -0.00000000000E+00 -0.45593999997E+02  0.45594000000E+02  0.51100000000E-03 0. -1.
    9900012    2    1    2    0    0 -0.66973082449E+01 -0.33655900672E+02 -0.21808082727E+02  0.50528855149E+02  0.29999985710E+02 0.  0.
        -12    1    1    2    0    0  0.66973082449E+01  0.33655900672E+02  0.21808082727E+02  0.40659144851E+02  0.00000000000E+00 0.  1.
         11    1    3    3    0    0 -0.12146360191E+01 -0.15790251041E+02 -0.52617662217E+01  0.16688126097E+02  0.51100000000E-03 0. -1.
        -11    1    3    3    0    0 -0.10513181064E+02 -0.19689312244E+02 -0.17553624502E+02  0.28395875161E+02  0.51100000000E-03 0.  1.
         12    1    3    3    0    0  0.50305088377E+01  0.18236626131E+01  0.10073079965E+01  0.54448538908E+01  0.00000000000E+00 0. -1.
</event>
<event>
 7    1  0.5138511E-013  0.5052888E+02  0.7816164E-02  0.1300439E+00
        -11   -1    0    0    0    0  0.00000000000E+00  0.00000000000E+00  0.45593999997E+02  0.45594000000E+02  0.51100000000E-03 0.  1.
         11   -1    0    0    0    0 -0.00000000000E+00 -0.00000000000E+00 -0.45593999997E+02  0.45594000000E+02  0.51100000000E-03 0. -1.
    9900012    2    1    2    0    0  0.39523719038E+02  0.90789659198E+01 -0.29346478820E+01  0.50528878674E+02  0.30000057219E+02 0.  0.
        -12    1    1    2    0    0 -0.39523719038E+02 -0.90789659198E+01  0.29346478820E+01  0.40659121326E+02  0.00000000000E+00 0.  1.
         11    1    3    3    0    0  0.42689498855E+01  0.25942600289E+01  0.20682997984E+01  0.54066609418E+01  0.51100000000E-03 0. -1.
        -11    1    3    3    0    0 -0.83750254612E+00 -0.13312278984E+01 -0.79234664803E+01  0.80780504800E+01  0.51100000000E-03 0.  1.
        -12    1    3    3    0    0  0.36092271699E+02  0.78159337893E+01  0.29205187999E+01  0.37044167253E+02  0.00000000000E+00 0.  1.
</event>
<event>
 7    1  0.7695803E-013  0.5052891E+02  0.7816164E-02  0.1300439E+00
        -11   -1    0    0    0    0  0.00000000000E+00  0.00000000000E+00  0.45593999997E+02  0.45594000000E+02  0.51100000000E-03 0.  1.
         11   -1    0    0    0    0 -0.00000000000E+00 -0.00000000000E+00 -0.45593999997E+02  0.45594000000E+02  0.51100000000E-03 0. -1.
    9900012    2    1    2    0    0  0.33315223707E+02  0.32687037880E+01 -0.23077538128E+02  0.50528913424E+02  0.30000162844E+02 0.  0.
        -12    1    1    2    0    0 -0.33315223707E+02 -0.32687037880E+01  0.23077538128E+02  0.40659086576E+02  0.00000000000E+00 0.  1.
         11    1    3    3    0    0  0.23808321113E+02  0.23306479047E+01 -0.18106010991E+02  0.30001595093E+02  0.51100000000E-03 0. -1.
        -11    1    3    3    0    0  0.69045857823E+01 -0.51813071341E+01 -0.92246300309E+01  0.12633805757E+02  0.51100000000E-03 0.  1.
        -12    1    3    3    0    0  0.26023168117E+01  0.61193630174E+01  0.42531028938E+01  0.78935125738E+01  0.00000000000E+00 0.  1.
</event>
<event>
 7    1  0.5138511E-013  0.5052886E+02  0.7816164E-02  0.1300439E+00
        -11   -1    0    0    0    0  0.00000000000E+00  0.00000000000E+00  0.45593999997E+02  0.45594000000E+02  0.51100000000E-03 0. -1.
         11   -1    0    0    0    0 -0.00000000000E+00 -0.00000000000E+00 -0.45593999997E+02  0.45594000000E+02  0.51100000000E-03 0.  1.
    9900012    2    1    2    0    0  0.38587892158E+02 -0.10311234477E+02  0.76038631844E+01  0.50528859417E+02  0.29999998683E+02 0.  0.
        -12    1    1    2    0    0 -0.38587892158E+02  0.10311234477E+02 -0.76038631844E+01  0.40659140583E+02  0.00000000000E+00 0.  1.
         11    1    3    3    0    0  0.12315050299E+02 -0.13095572309E+02 -0.33523521467E+01  0.18286408700E+02  0.51100000000E-03 0. -1.
        -11    1    3    3    0    0  0.57246177309E+01 -0.23570070699E+01  0.90639567410E+01  0.10976431230E+02  0.51100000000E-03 0.  1.
         12    1    3    3    0    0  0.20548224128E+02  0.51413449013E+01  0.18922585901E+01  0.21266019486E+02  0.00000000000E+00 0. -1.
</event>
<event>
 7    1  0.5138511E-013  0.5052885E+02  0.7816164E-02  0.1300439E+00
        -11   -1    0    0    0    0  0.00000000000E+00  0.00000000000E+00  0.45593999997E+02  0.45594000000E+02  0.51100000000E-03 0. -1.
         11   -1    0    0    0    0 -0.00000000000E+00 -0.00000000000E+00 -0.45593999997E+02  0.45594000000E+02  0.51100000000E-03 0.  1.
    9900012    2    1    2    0    0  0.35858498746E+02 -0.19146949485E+02  0.85351106778E+00  0.50528854805E+02  0.29999984664E+02 0.  0.
        -12    1    1    2    0    0 -0.35858498746E+02  0.19146949485E+02 -0.85351106778E+00  0.40659145195E+02  0.00000000000E+00 0.  1.
         11    1    3    3    0    0  0.10344485832E+02 -0.17721425427E+02 -0.87012416311E+01  0.22288313361E+02  0.51100000000E-03 0. -1.
        -11    1    3    3    0    0  0.83864310537E+01 -0.36232594134E+01  0.18004836414E+01  0.93113895955E+01  0.51100000000E-03 0.  1.
        -12    1    3    3    0    0  0.17127581860E+02  0.21977353557E+01  0.77542690575E+01  0.18929151848E+02  0.00000000000E+00 0.  1.
</event>
<event>
 7    1  0.5138511E-013  0.5052886E+02  0.7816164E-02  0.1300439E+00
        -11   -1    0    0    0    0  0.00000000000E+00  0.00000000000E+00  0.45593999997E+02  0.45594000000E+02  0.51100000000E-03 0. -1.
         11   -1    0    0    0    0 -0.00000000000E+00 -0.00000000000E+00 -0.45593999997E+02  0.45594000000E+02  0.51100000000E-03 0.  1.
    9900012    2    1    2    0    0 -0.16759990041E+02  0.21750307560E+02 -0.29986536275E+02  0.50528862000E+02  0.30000006536E+02 0.  0.
        -12    1    1    2    0    0  0.16759990041E+02 -0.21750307560E+02  0.29986536275E+02  0.40659138000E+02  0.00000000000E+00 0.  1.
         11    1    3    3    0    0 -0.18167806041E+02  0.13662879443E+02 -0.28616480155E+02  0.36546496245E+02  0.51100000000E-03 0. -1.
        -11    1    3    3    0    0  0.37648034539E+01  0.13028439285E+00 -0.37841118205E+01  0.53394963808E+01  0.51100000000E-03 0.  1.
        -12    1    3    3    0    0 -0.23569874532E+01  0.79571437241E+01  0.24140557006E+01  0.86428693745E+01  0.00000000000E+00 0.  1.
</event>
<event>
 7    1  0.5138511E-013  0.5052886E+02  0.7816164E-02  0.1300439E+00
        -11   -1    0    0    0    0  0.00000000000E+00  0.00000000000E+00  0.45593999997E+02  0.45594000000E+02  0.51100000000E-03 0.  1.
         11   -1    0    0    0    0 -0.00000000000E+00 -0.00000000000E+00 -0.45593999997E+02  0.45594000000E+02  0.51100000000E-03 0. -1.
    9900012    2    1    2    0    0  0.50045429593E+01  0.81660023773E+01 -0.39515014554E+02  0.50528863016E+02  0.30000009625E+02 0.  0.
        -12    1    1    2    0    0 -0.50045429593E+01 -0.81660023773E+01  0.39515014554E+02  0.40659136984E+02  0.00000000000E+00 0.  1.
         11    1    3    3    0    0 -0.66822613842E+01 -0.48076932783E+01 -0.19382776245E+02  0.21058455477E+02  0.51100000000E-03 0. -1.
        -11    1    3    3    0    0 -0.66112476924E+00  0.19967901048E+01  0.12515946864E+01  0.24476000905E+01  0.51100000000E-03 0.  1.
         12    1    3    3    0    0  0.12347929113E+02  0.10976905551E+02 -0.21383832995E+02  0.27022807449E+02  0.00000000000E+00 0. -1.
</event>
<event>
 7    1  0.5138511E-013  0.5052886E+02  0.7816164E-02  0.1300439E+00
        -11   -1    0    0    0    0  0.00000000000E+00  0.00000000000E+00  0.45593999997E+02  0.45594000000E+02  0.51100000000E-03 0.  1.
         11   -1    0    0    0    0 -0.00000000000E+00 -0.00000000000E+00 -0.45593999997E+02  0.45594000000E+02  0.51100000000E-03 0. -1.
    9900012    2    1    2    0    0 -0.15436809128E+02 -0.27520777684E+02 -0.25641322884E+02  0.50528859334E+02  0.29999998433E+02 0.  0.
        -12    1    1    2    0    0  0.15436809128E+02  0.27520777684E+02  0.25641322884E+02  0.40659140666E+02  0.00000000000E+00 0.  1.
         11    1    3    3    0    0 -0.92078210467E+00 -0.15019076787E+02 -0.21189472005E+01  0.15195737716E+02  0.51100000000E-03 0. -1.
        -11    1    3    3    0    0  0.32161792130E+01 -0.15914870635E+01  0.41041564789E+00  0.36117974844E+01  0.51100000000E-03 0.  1.
         12    1    3    3    0    0 -0.17732206236E+02 -0.10910213833E+02 -0.23932791332E+02  0.31721324134E+02  0.00000000000E+00 0. -1.
</event>
<event>
 7    1  0.5138511E-013  0.5052887E+02  0.7816164E-02  0.1300439E+00
        -11   -1    0    0    0    0  0.00000000000E+00  0.00000000000E+00  0.45593999997E+02  0.45594000000E+02  0.51100000000E-03 0.  1.
         11   -1    0    0    0    0 -0.00000000000E+00 -0.00000000000E+00 -0.45593999997E+02  0.45594000000E+02  0.51100000000E-03 0. -1.
    9900012    2    1    2    0    0 -0.84731898275E+01  0.33549068286E+01 -0.39624667013E+02  0.50528873330E+02  0.30000040972E+02 0.  0.
        -12    1    1    2    0    0  0.84731898275E+01 -0.33549068286E+01  0.39624667013E+02  0.40659126670E+02  0.00000000000E+00 0.  1.
         11    1    3    3    0    0 -0.93619789851E+01  0.14501893167E+01 -0.51367623255E+01  0.10776642660E+02  0.51100000000E-03 0. -1.
        -11    1    3    3    0    0 -0.33872634717E+00 -0.88937705529E+01 -0.15326246078E+02  0.17723084080E+02  0.51100000000E-03 0.  1.
         12    1    3    3    0    0  0.12275155048E+01  0.10798488065E+02 -0.19161658610E+02  0.22029146590E+02  0.00000000000E+00 0. -1.
</event>
<event>
 7    1  0.5138511E-013  0.5052886E+02  0.7816164E-02  0.1300439E+00
        -11   -1    0    0    0    0  0.00000000000E+00  0.00000000000E+00  0.45593999997E+02  0.45594000000E+02  0.51100000000E-03 0. -1.
         11   -1    0    0    0    0 -0.00000000000E+00 -0.00000000000E+00 -0.45593999997E+02  0.45594000000E+02  0.51100000000E-03 0.  1.
    9900012    2    1    2    0    0 -0.37907245325E+02 -0.58516417600E+01  0.13489418863E+02  0.50528863503E+02  0.30000011103E+02 0.  0.
        -12    1    1    2    0    0  0.37907245325E+02  0.58516417600E+01 -0.13489418863E+02  0.40659136497E+02  0.00000000000E+00 0.  1.
         11    1    3    3    0    0 -0.12601983786E+02 -0.42200473450E+01 -0.25388590016E+01  0.13530136741E+02  0.51100000000E-03 0. -1.
        -11    1    3    3    0    0 -0.50621425395E+01  0.80355164545E+01  0.12039034579E+00  0.94978579626E+01  0.51100000000E-03 0.  1.
         12    1    3    3    0    0 -0.20243119000E+02 -0.96671108696E+01  0.15907887519E+02  0.27500868799E+02  0.00000000000E+00 0. -1.
</event>
<event>
 7    1  0.5138511E-013  0.5052886E+02  0.7816164E-02  0.1300439E+00
        -11   -1    0    0    0    0  0.00000000000E+00  0.00000000000E+00  0.45593999997E+02  0.45594000000E+02  0.51100000000E-03 0.  1.
         11   -1    0    0    0    0 -0.00000000000E+00 -0.00000000000E+00 -0.45593999997E+02  0.45594000000E+02  0.51100000000E-03 0. -1.
    9900012    2    1    2    0    0 -0.83852011338E+00  0.21761743994E+02 -0.34334950619E+02  0.50528862630E+02  0.30000008450E+02 0.  0.
        -12    1    1    2    0    0  0.83852011338E+00 -0.21761743994E+02  0.34334950619E+02  0.40659137370E+02  0.00000000000E+00 0.  1.
         11    1    3    3    0    0  0.37894944653E+00  0.17033708340E+02 -0.28961698398E+02  0.33601648722E+02  0.51100000000E-03 0. -1.
        -11    1    3    3    0    0  0.14618320002E+01  0.99784946711E+01 -0.26109297750E+01  0.10417497936E+02  0.51100000000E-03 0.  1.
        -12    1    3    3    0    0 -0.26793015601E+01 -0.52504590167E+01 -0.27623224466E+01  0.65097159719E+01  0.00000000000E+00 0.  1.
</event>
<event>
 7    1  0.5138511E-013  0.5052880E+02  0.7816164E-02  0.1300439E+00
        -11   -1    0    0    0    0  0.00000000000E+00  0.00000000000E+00  0.45593999997E+02  0.45594000000E+02  0.51100000000E-03 0. -1.
         11   -1    0    0    0    0 -0.00000000000E+00 -0.00000000000E+00 -0.45593999997E+02  0.45594000000E+02  0.51100000000E-03 0.  1.
    9900012    2    1    2    0    0  0.10222906289E+02 -0.53608653803E+01  0.38986198463E+02  0.50528802256E+02  0.29999824936E+02 0.  0.
        -12    1    1    2    0    0 -0.10222906289E+02  0.53608653803E+01 -0.38986198463E+02  0.40659197744E+02  0.00000000000E+00 0.  1.
         11    1    3    3    0    0  0.16239679888E+01 -0.12839316644E+02  0.11693751955E+02  0.17442166120E+02  0.51100000000E-03 0. -1.
        -11    1    3    3    0    0  0.21001650717E+01 -0.45582653718E+01  0.69479464965E+01  0.85710231190E+01  0.51100000000E-03 0.  1.
         12    1    3    3    0    0  0.64987732282E+01  0.12036716636E+02  0.20344500012E+02  0.24515613016E+02  0.00000000000E+00 0. -1.
</event>
<event>
 7    1  0.5138511E-013  0.5052886E+02  0.7816164E-02  0.1300439E+00
        -11   -1    0    0    0    0  0.00000000000E+00  0.00000000000E+00  0.45593999997E+02  0.45594000000E+02  0.51100000000E-03 0.  1.
         11   -1    0    0    0    0 -0.00000000000E+00 -0.00000000000E+00 -0.45593999997E+02  0.45594000000E+02  0.51100000000E-03 0. -1.
    9900012    2    1    2    0    0 -0.32565660863E+02  0.10890677920E+02 -0.21772378630E+02  0.50528860754E+02  0.30000002748E+02 0.  0.
        -12    1    1    2    0    0  0.32565660863E+02 -0.10890677920E+02  0.21772378630E+02  0.40659139246E+02  0.00000000000E+00 0.  1.
         11    1    3    3    0    0 -0.22470777914E+02  0.91936638878E+00 -0.45710739726E+01  0.22949418558E+02  0.51100000000E-03 0. -1.
        -11    1    3    3    0    0 -0.14945352008E+01 -0.26129343368E+01 -0.10510829911E+02  0.10933371255E+02  0.51100000000E-03 0.  1.
         12    1    3    3    0    0 -0.86003477482E+01  0.12584245869E+02 -0.66904747467E+01  0.16646070942E+02  0.00000000000E+00 0. -1.
</event>
<event>
 7    1  0.5138511E-013  0.5052886E+02  0.7816164E-02  0.1300439E+00
        -11   -1    0    0    0    0  0.00000000000E+00  0.00000000000E+00  0.45593999997E+02  0.45594000000E+02  0.51100000000E-03 0.  1.
         11   -1    0    0    0    0 -0.00000000000E+00 -0.00000000000E+00 -0.45593999997E+02  0.45594000000E+02  0.51100000000E-03 0. -1.
    9900012    2    1    2    0    0 -0.20620155728E+02  0.61026164217E+01 -0.34506996415E+02  0.50528861408E+02  0.30000004737E+02 0.  0.
        -12    1    1    2    0    0  0.20620155728E+02 -0.61026164217E+01  0.34506996415E+02  0.40659138592E+02  0.00000000000E+00 0.  1.
         11    1    3    3    0    0 -0.21732458401E+02  0.48902177772E+00 -0.18419975136E+02  0.28492707395E+02  0.51100000000E-03 0. -1.
        -11    1    3    3    0    0 -0.21090941533E+01 -0.16493771334E+01  0.12577685587E+01  0.29581590701E+01  0.51100000000E-03 0.  1.
        -12    1    3    3    0    0  0.32213968258E+01  0.72629717774E+01 -0.17344789838E+02  0.19077994943E+02  0.00000000000E+00 0.  1.
</event>
<event>
 7    1  0.5138511E-013  0.5052886E+02  0.7816164E-02  0.1300439E+00
        -11   -1    0    0    0    0  0.00000000000E+00  0.00000000000E+00  0.45593999997E+02  0.45594000000E+02  0.51100000000E-03 0. -1.
         11   -1    0    0    0    0 -0.00000000000E+00 -0.00000000000E+00 -0.45593999997E+02  0.45594000000E+02  0.51100000000E-03 0.  1.
    9900012    2    1    2    0    0 -0.26375532402E+02  0.30166946940E+02  0.68885876522E+01  0.50528855432E+02  0.29999986571E+02 0.  0.
        -12    1    1    2    0    0  0.26375532402E+02 -0.30166946940E+02 -0.68885876522E+01  0.40659144568E+02  0.00000000000E+00 0.  1.
         11    1    3    3    0    0 -0.15502421387E+02  0.75454383942E+00  0.60167680124E+01  0.16646197849E+02  0.51100000000E-03 0. -1.
        -11    1    3    3    0    0  0.26943959788E+01  0.79335942871E+01 -0.83613643676E+00  0.84202620152E+01  0.51100000000E-03 0.  1.
        -12    1    3    3    0    0 -0.13567506994E+02  0.21478808814E+02  0.17079560766E+01  0.25462395568E+02  0.00000000000E+00 0.  1.
</event>
<event>
 7    1  0.5138511E-013  0.5052886E+02  0.7816164E-02  0.1300439E+00
        -11   -1    0    0    0    0  0.00000000000E+00  0.00000000000E+00  0.45593999997E+02  0.45594000000E+02  0.51100000000E-03 0. -1.
         11   -1    0    0    0    0 -0.00000000000E+00 -0.00000000000E+00 -0.45593999997E+02  0.45594000000E+02  0.51100000000E-03 0.  1.
    9900012    2    1    2    0    0 -0.18882857430E+02  0.24178778924E+02  0.26683145450E+02  0.50528857042E+02  0.29999991466E+02 0.  0.
        -12    1    1    2    0    0  0.18882857430E+02 -0.24178778924E+02 -0.26683145450E+02  0.40659142958E+02  0.00000000000E+00 0.  1.
         11    1    3    3    0    0 -0.77680167355E+01  0.42364589965E+01  0.54879704288E+01  0.10411891688E+02  0.51100000000E-03 0. -1.
        -11    1    3    3    0    0  0.37181517308E+01 -0.41176010334E+01  0.53815369233E+01  0.77291804534E+01  0.51100000000E-03 0.  1.
         12    1    3    3    0    0 -0.14832992425E+02  0.24059920961E+02  0.15813638098E+02  0.32387784901E+02  0.00000000000E+00 0. -1.
</event>
<event>
 7    1  0.5457031E-013  0.5052885E+02  0.7816164E-02  0.1300439E+00
        -11   -1    0    0    0    0  0.00000000000E+00  0.00000000000E+00  0.45593999997E+02  0.45594000000E+02  0.51100000000E-03 0. -1.
         11   -1    0    0    0    0 -0.00000000000E+00 -0.00000000000E+00 -0.45593999997E+02  0.45594000000E+02  0.51100000000E-03 0.  1.
    9900012    2    1    2    0    0 -0.40554289043E+02  0.26338257452E+01  0.12567178426E+01  0.50528846817E+02  0.29999960385E+02 0.  0.
        -12    1    1    2    0    0  0.40554289043E+02 -0.26338257452E+01 -0.12567178426E+01  0.40659153183E+02  0.00000000000E+00 0.  1.
         11    1    3    3    0    0 -0.22801225218E+02 -0.54036262331E+00 -0.28857116821E+01  0.22989458354E+02  0.51100000000E-03 0.  1.
        -11    1    3    3    0    0 -0.17709322809E+02 -0.45155616530E+01  0.66542709035E+01  0.19449671794E+02  0.51100000000E-03 0. -1.
        -12    1    3    3    0    0 -0.43741015350E-01  0.76897500215E+01 -0.25118413788E+01  0.80897166688E+01  0.00000000000E+00 0.  1.
</event>
<event>
 7    1  0.5138511E-013  0.5052886E+02  0.7816164E-02  0.1300439E+00
        -11   -1    0    0    0    0  0.00000000000E+00  0.00000000000E+00  0.45593999997E+02  0.45594000000E+02  0.51100000000E-03 0.  1.
         11   -1    0    0    0    0 -0.00000000000E+00 -0.00000000000E+00 -0.45593999997E+02  0.45594000000E+02  0.51100000000E-03 0. -1.
    9900012    2    1    2    0    0 -0.12074059194E+02  0.38781862305E+02  0.18303466362E+01  0.50528856895E+02  0.29999991018E+02 0.  0.
        -12    1    1    2    0    0  0.12074059194E+02 -0.38781862305E+02 -0.18303466362E+01  0.40659143105E+02  0.00000000000E+00 0.  1.
         11    1    3    3    0    0  0.47503269880E+01  0.14414241503E+02  0.10269936466E+02  0.18325052794E+02  0.51100000000E-03 0. -1.
        -11    1    3    3    0    0 -0.78736927620E+01  0.56868110457E+01  0.30938301431E+00  0.97175395904E+01  0.51100000000E-03 0.  1.
        -12    1    3    3    0    0 -0.89506934199E+01  0.18680809756E+02 -0.87489728443E+01  0.22486264511E+02  0.00000000000E+00 0.  1.
</event>
<event>
 7    1  0.5138511E-013  0.5052886E+02  0.7816164E-02  0.1300439E+00
        -11   -1    0    0    0    0  0.00000000000E+00  0.00000000000E+00  0.45593999997E+02  0.45594000000E+02  0.51100000000E-03 0. -1.
         11   -1    0    0    0    0 -0.00000000000E+00 -0.00000000000E+00 -0.45593999997E+02  0.45594000000E+02  0.51100000000E-03 0.  1.
    9900012    2    1    2    0    0  0.19277961076E+02 -0.26257855191E+02  0.24332093047E+02  0.50528862103E+02  0.30000006847E+02 0.  0.
        -12    1    1    2    0    0 -0.19277961076E+02  0.26257855191E+02 -0.24332093047E+02  0.40659137897E+02  0.00000000000E+00 0.  1.
         11    1    3    3    0    0  0.37492139787E+01 -0.47594550040E+01  0.60832047762E+00  0.60892586953E+01  0.51100000000E-03 0.  1.
        -11    1    3    3    0    0  0.96227118721E+01 -0.55523108939E+01  0.25030061823E+02  0.27384826732E+02  0.51100000000E-03 0. -1.
         12    1    3    3    0    0  0.59060352250E+01 -0.15946089293E+02 -0.13062892530E+01  0.17054776675E+02  0.00000000000E+00 0. -1.
</event>
<event>
 7    1  0.5138511E-013  0.5052885E+02  0.7816164E-02  0.1300439E+00
        -11   -1    0    0    0    0  0.00000000000E+00  0.00000000000E+00  0.45593999997E+02  0.45594000000E+02  0.51100000000E-03 0.  1.
         11   -1    0    0    0    0 -0.00000000000E+00 -0.00000000000E+00 -0.45593999997E+02  0.45594000000E+02  0.51100000000E-03 0. -1.
    9900012    2    1    2    0    0  0.37520791760E+01 -0.29233040615E+02 -0.28009243791E+02  0.50528849745E+02  0.29999969284E+02 0.  0.
        -12    1    1    2    0    0 -0.37520791760E+01  0.29233040615E+02  0.28009243791E+02  0.40659150255E+02  0.00000000000E+00 0.  1.
         11    1    3    3    0    0  0.11732848274E+02 -0.19946564499E+02 -0.29820642259E+02  0.37746468298E+02  0.51100000000E-03 0. -1.
        -11    1    3    3    0    0 -0.17212536854E+01 -0.38904068809E+00  0.77440515154E-01  0.17663703465E+01  0.51100000000E-03 0.  1.
        -12    1    3    3    0    0 -0.62595154123E+01 -0.88974354276E+01  0.17339579528E+01  0.11016011101E+02  0.00000000000E+00 0.  1.
</event>
<event>
 7    1  0.5138511E-013  0.5052885E+02  0.7816164E-02  0.1300439E+00
        -11   -1    0    0    0    0  0.00000000000E+00  0.00000000000E+00  0.45593999997E+02  0.45594000000E+02  0.51100000000E-03 0.  1.
         11   -1    0    0    0    0 -0.00000000000E+00 -0.00000000000E+00 -0.45593999997E+02  0.45594000000E+02  0.51100000000E-03 0. -1.
    9900012    2    1    2    0    0  0.25632382964E+02 -0.16032364771E+02 -0.27186595580E+02  0.50528846592E+02  0.29999959702E+02 0.  0.
        -12    1    1    2    0    0 -0.25632382964E+02  0.16032364771E+02  0.27186595580E+02  0.40659153408E+02  0.00000000000E+00 0.  1.
         11    1    3    3    0    0  0.13818968955E+02 -0.24274489137E+01 -0.91364245891E+01  0.16743078144E+02  0.51100000000E-03 0. -1.
        -11    1    3    3    0    0  0.45753868970E+01  0.49074281168E+01  0.32390905758E+00  0.67172861572E+01  0.51100000000E-03 0.  1.
        -12    1    3    3    0    0  0.72380271119E+01 -0.18512343975E+02 -0.18374080049E+02  0.27068482291E+02  0.00000000000E+00 0.  1.
</event>
<event>
 7    1  0.5138511E-013  0.5052885E+02  0.7816164E-02  0.1300439E+00
        -11   -1    0    0    0    0  0.00000000000E+00  0.00000000000E+00  0.45593999997E+02  0.45594000000E+02  0.51100000000E-03 0.  1.
         11   -1    0    0    0    0 -0.00000000000E+00 -0.00000000000E+00 -0.45593999997E+02  0.45594000000E+02  0.51100000000E-03 0. -1.
    9900012    2    1    2    0    0  0.15586991775E+02 -0.11795509991E+02 -0.35652187545E+02  0.50528845492E+02  0.29999956358E+02 0.  0.
        -12    1    1    2    0    0 -0.15586991775E+02  0.11795509991E+02  0.35652187545E+02  0.40659154508E+02  0.00000000000E+00 0.  1.
         11    1    3    3    0    0  0.13427026606E+02  0.50846234419E+01 -0.18400207543E+02  0.23338939069E+02  0.51100000000E-03 0. -1.
        -11    1    3    3    0    0 -0.38733409875E+01 -0.10587546587E+01 -0.42002757169E+01  0.58108560636E+01  0.51100000000E-03 0.  1.
        -12    1    3    3    0    0  0.60333061567E+01 -0.15821378775E+02 -0.13051704285E+02  0.21379050359E+02  0.00000000000E+00 0.  1.
</event>
<event>
 7    1  0.5138511E-013  0.5052885E+02  0.7816164E-02  0.1300439E+00
        -11   -1    0    0    0    0  0.00000000000E+00  0.00000000000E+00  0.45593999997E+02  0.45594000000E+02  0.51100000000E-03 0. -1.
         11   -1    0    0    0    0 -0.00000000000E+00 -0.00000000000E+00 -0.45593999997E+02  0.45594000000E+02  0.51100000000E-03 0.  1.
    9900012    2    1    2    0    0 -0.22200091179E+02 -0.31790076000E+02  0.12235737605E+02  0.50528852749E+02  0.29999978416E+02 0.  0.
        -12    1    1    2    0    0  0.22200091179E+02  0.31790076000E+02 -0.12235737605E+02  0.40659147251E+02  0.00000000000E+00 0.  1.
         11    1    3    3    0    0 -0.98921592624E+01 -0.16421721821E+02  0.12646617653E+02  0.22966599678E+02  0.51100000000E-03 0. -1.
        -11    1    3    3    0    0 -0.14816566345E+02 -0.64559297533E+01 -0.54058211603E+01  0.17042082323E+02  0.51100000000E-03 0.  1.
         12    1    3    3    0    0  0.25086344289E+01 -0.89124244253E+01  0.49949411128E+01  0.10520170747E+02  0.00000000000E+00 0. -1.
</event>
<event>
 7    1  0.5138511E-013  0.5052885E+02  0.7816164E-02  0.1300439E+00
        -11   -1    0    0    0    0  0.00000000000E+00  0.00000000000E+00  0.45593999997E+02  0.45594000000E+02  0.51100000000E-03 0.  1.
         11   -1    0    0    0    0 -0.00000000000E+00 -0.00000000000E+00 -0.45593999997E+02  0.45594000000E+02  0.51100000000E-03 0. -1.
    9900012    2    1    2    0    0 -0.79611043275E+01  0.39692274461E+02 -0.37828950495E+01  0.50528854301E+02  0.29999983133E+02 0.  0.
        -12    1    1    2    0    0  0.79611043275E+01 -0.39692274461E+02  0.37828950495E+01  0.40659145699E+02  0.00000000000E+00 0.  1.
         11    1    3    3    0    0  0.10098419413E+01  0.33824938421E+02  0.50908698139E+01  0.34220800629E+02  0.51100000000E-03 0. -1.
        -11    1    3    3    0    0 -0.61701737558E+01  0.63170076281E+01 -0.22650143653E+01  0.91162448347E+01  0.51100000000E-03 0.  1.
        -12    1    3    3    0    0 -0.28007725130E+01 -0.44967158799E+00 -0.66087504982E+01  0.71918088374E+01  0.00000000000E+00 0.  1.
</event>
<event>
 7    1  0.5138511E-013  0.5052886E+02  0.7816164E-02  0.1300439E+00
        -11   -1    0    0    0    0  0.00000000000E+00  0.00000000000E+00  0.45593999997E+02  0.45594000000E+02  0.51100000000E-03 0. -1.
         11   -1    0    0    0    0 -0.00000000000E+00 -0.00000000000E+00 -0.45593999997E+02  0.45594000000E+02  0.51100000000E-03 0.  1.
    9900012    2    1    2    0    0 -0.31644470237E+02  0.21184916831E+02 -0.14247541000E+02  0.50528860532E+02  0.30000002074E+02 0.  0.
        -12    1    1    2    0    0  0.31644470237E+02 -0.21184916831E+02  0.14247541000E+02  0.40659139468E+02  0.00000000000E+00 0.  1.
         11    1    3    3    0    0 -0.76364352444E+01  0.56793340609E+01 -0.82620074454E+01  0.12602807065E+02  0.51100000000E-03 0.  1.
        -11    1    3    3    0    0  0.27788647238E+01 -0.14551911048E+01 -0.53653175390E+01  0.62150062639E+01  0.51100000000E-03 0. -1.
         12    1    3    3    0    0 -0.26786899716E+02  0.16960773875E+02 -0.62021601536E+00  0.31711047204E+02  0.00000000000E+00 0. -1.
</event>
<event>
 7    1  0.5138511E-013  0.5052886E+02  0.7816164E-02  0.1300439E+00
        -11   -1    0    0    0    0  0.00000000000E+00  0.00000000000E+00  0.45593999997E+02  0.45594000000E+02  0.51100000000E-03 0.  1.
         11   -1    0    0    0    0 -0.00000000000E+00 -0.00000000000E+00 -0.45593999997E+02  0.45594000000E+02  0.51100000000E-03 0. -1.
    9900012    2    1    2    0    0 -0.65976492514E+01 -0.13990494405E+02 -0.37601896655E+02  0.50528861526E+02  0.30000005096E+02 0.  0.
        -12    1    1    2    0    0  0.65976492514E+01  0.13990494405E+02  0.37601896655E+02  0.40659138474E+02  0.00000000000E+00 0.  1.
         11    1    3    3    0    0 -0.70306141260E+01 -0.15253074094E+02 -0.15863829119E+02  0.23102962556E+02  0.51100000000E-03 0. -1.
        -11    1    3    3    0    0  0.30940045212E+01 -0.41506630058E+01 -0.20659535293E+02  0.21298292564E+02  0.51100000000E-03 0.  1.
         12    1    3    3    0    0 -0.26610396466E+01  0.54132426944E+01 -0.10785322435E+01  0.61276064062E+01  0.00000000000E+00 0. -1.
</event>
<event>
 7    1  0.5138511E-013  0.5052886E+02  0.7816164E-02  0.1300439E+00
        -11   -1    0    0    0    0  0.00000000000E+00  0.00000000000E+00  0.45593999997E+02  0.45594000000E+02  0.51100000000E-03 0.  1.
         11   -1    0    0    0    0 -0.00000000000E+00 -0.00000000000E+00 -0.45593999997E+02  0.45594000000E+02  0.51100000000E-03 0. -1.
    9900012    2    1    2    0    0  0.72214565976E+01 -0.16056928109E+02 -0.36649574264E+02  0.50528859952E+02  0.30000000311E+02 0.  0.
        -12    1    1    2    0    0 -0.72214565976E+01  0.16056928109E+02  0.36649574264E+02  0.40659140048E+02  0.00000000000E+00 0.  1.
         11    1    3    3    0    0 -0.33011962827E+01  0.34891867681E+01 -0.24457084439E+01  0.53901587410E+01  0.51100000000E-03 0. -1.
        -11    1    3    3    0    0 -0.27458010183E+01 -0.93801149024E+01 -0.23069618279E+02  0.25054605696E+02  0.51100000000E-03 0.  1.
        -12    1    3    3    0    0  0.13268453899E+02 -0.10165999974E+02 -0.11134247542E+02  0.20084095515E+02  0.00000000000E+00 0.  1.
</event>
<event>
 7    1  0.5138511E-013  0.5052874E+02  0.7816164E-02  0.1300439E+00
        -11   -1    0    0    0    0  0.00000000000E+00  0.00000000000E+00  0.45593999997E+02  0.45594000000E+02  0.51100000000E-03 0.  1.
         11   -1    0    0    0    0 -0.00000000000E+00 -0.00000000000E+00 -0.45593999997E+02  0.45594000000E+02  0.51100000000E-03 0. -1.
    9900012    2    1    2    0    0 -0.25837628458E+02 -0.10900882466E+02 -0.29440836547E+02  0.50528743496E+02  0.29999646328E+02 0.  0.
        -12    1    1    2    0    0  0.25837628458E+02  0.10900882466E+02  0.29440836547E+02  0.40659256504E+02  0.00000000000E+00 0.  1.
         11    1    3    3    0    0 -0.13527090192E+02 -0.77671177069E+01 -0.26475098550E+02  0.30728506798E+02  0.51100000000E-03 0. -1.
        -11    1    3    3    0    0 -0.81138760243E+01  0.27799025387E+01 -0.73765609939E+01  0.11312669650E+02  0.51100000000E-03 0.  1.
        -12    1    3    3    0    0 -0.41966622419E+01 -0.59136672980E+01  0.44108229965E+01  0.84875670478E+01  0.00000000000E+00 0.  1.
</event>
<event>
 7    1  0.5138511E-013  0.5052886E+02  0.7816164E-02  0.1300439E+00
        -11   -1    0    0    0    0  0.00000000000E+00  0.00000000000E+00  0.45593999997E+02  0.45594000000E+02  0.51100000000E-03 0.  1.
         11   -1    0    0    0    0 -0.00000000000E+00 -0.00000000000E+00 -0.45593999997E+02  0.45594000000E+02  0.51100000000E-03 0. -1.
    9900012    2    1    2    0    0  0.40504796323E+02 -0.20949729388E+01  0.28527895435E+01  0.50528857794E+02  0.29999993750E+02 0.  0.
        -12    1    1    2    0    0 -0.40504796323E+02  0.20949729388E+01 -0.28527895435E+01  0.40659142206E+02  0.00000000000E+00 0.  1.
         11    1    3    3    0    0  0.29822689843E+02  0.60654247457E+01  0.64664851393E+01  0.31112660400E+02  0.51100000000E-03 0. -1.
        -11    1    3    3    0    0  0.11951370252E+02 -0.22648801797E+01 -0.51241538141E+01  0.13199313834E+02  0.51100000000E-03 0.  1.
        -12    1    3    3    0    0 -0.12692637720E+01 -0.58955175048E+01  0.15104582182E+01  0.62168835602E+01  0.00000000000E+00 0.  1.
</event>
<event>
 7    1  0.5138511E-013  0.5052886E+02  0.7816164E-02  0.1300439E+00
        -11   -1    0    0    0    0  0.00000000000E+00  0.00000000000E+00  0.45593999997E+02  0.45594000000E+02  0.51100000000E-03 0.  1.
         11   -1    0    0    0    0 -0.00000000000E+00 -0.00000000000E+00 -0.45593999997E+02  0.45594000000E+02  0.51100000000E-03 0. -1.
    9900012    2    1    2    0    0 -0.19805290445E+02  0.51840621655E+01 -0.35128930689E+02  0.50528858328E+02  0.29999995374E+02 0.  0.
        -12    1    1    2    0    0  0.19805290445E+02 -0.51840621655E+01  0.35128930689E+02  0.40659141672E+02  0.00000000000E+00 0.  1.
         11    1    3    3    0    0 -0.27360140747E+00  0.13311820786E+01  0.29084102182E+01  0.32102575777E+01  0.51100000000E-03 0. -1.
        -11    1    3    3    0    0  0.86184089123E+00  0.72654907579E+01 -0.12206065506E+02  0.14230887572E+02  0.51100000000E-03 0.  1.
         12    1    3    3    0    0 -0.20393529929E+02 -0.34126106710E+01 -0.25831275401E+02  0.33087713179E+02  0.00000000000E+00 0. -1.
</event>
<event>
 7    1  0.5138511E-013  0.5052887E+02  0.7816164E-02  0.1300439E+00
        -11   -1    0    0    0    0  0.00000000000E+00  0.00000000000E+00  0.45593999997E+02  0.45594000000E+02  0.51100000000E-03 0. -1.
         11   -1    0    0    0    0 -0.00000000000E+00 -0.00000000000E+00 -0.45593999997E+02  0.45594000000E+02  0.51100000000E-03 0.  1.
    9900012    2    1    2    0    0  0.26783779370E+02  0.24015341068E+02  0.18948803493E+02  0.50528873131E+02  0.30000040369E+02 0.  0.
        -12    1    1    2    0    0 -0.26783779370E+02 -0.24015341068E+02 -0.18948803493E+02  0.40659126869E+02  0.00000000000E+00 0.  1.
         11    1    3    3    0    0  0.13650813412E+02 -0.47414112476E+01  0.52842190660E+01  0.15386638971E+02  0.51100000000E-03 0. -1.
        -11    1    3    3    0    0  0.28643237799E+01  0.15232952957E+01  0.18152646602E+01  0.37175213950E+01  0.51100000000E-03 0.  1.
        -12    1    3    3    0    0  0.10268642178E+02  0.27233457019E+02  0.11849319767E+02  0.31424712765E+02  0.00000000000E+00 0.  1.
</event>
<event>
 7    1  0.5138511E-013  0.5052886E+02  0.7816164E-02  0.1300439E+00
        -11   -1    0    0    0    0  0.00000000000E+00  0.00000000000E+00  0.45593999997E+02  0.45594000000E+02  0.51100000000E-03 0.  1.
         11   -1    0    0    0    0 -0.00000000000E+00 -0.00000000000E+00 -0.45593999997E+02  0.45594000000E+02  0.51100000000E-03 0. -1.
    9900012    2    1    2    0    0 -0.12420636728E+02  0.10238411345E+01 -0.38702007994E+02  0.50528857237E+02  0.29999992058E+02 0.  0.
        -12    1    1    2    0    0  0.12420636728E+02 -0.10238411345E+01  0.38702007994E+02  0.40659142763E+02  0.00000000000E+00 0.  1.
         11    1    3    3    0    0 -0.53619839927E+00 -0.32367864281E+01  0.21645487792E+01  0.39305936935E+01  0.51100000000E-03 0. -1.
        -11    1    3    3    0    0  0.26647525353E+01 -0.27733938507E+01 -0.16548700684E+01  0.41870293443E+01  0.51100000000E-03 0.  1.
         12    1    3    3    0    0 -0.14549190864E+02  0.70340214133E+01 -0.39211686705E+02  0.42411234199E+02  0.00000000000E+00 0. -1.
</event>
<event>
 7    1  0.5138511E-013  0.5052886E+02  0.7816164E-02  0.1300439E+00
        -11   -1    0    0    0    0  0.00000000000E+00  0.00000000000E+00  0.45593999997E+02  0.45594000000E+02  0.51100000000E-03 0.  1.
         11   -1    0    0    0    0 -0.00000000000E+00 -0.00000000000E+00 -0.45593999997E+02  0.45594000000E+02  0.51100000000E-03 0. -1.
    9900012    2    1    2    0    0 -0.40039491170E+02  0.23212699731E+01 -0.66795677799E+01  0.50528858676E+02  0.29999996432E+02 0.  0.
        -12    1    1    2    0    0  0.40039491170E+02 -0.23212699731E+01  0.66795677799E+01  0.40659141324E+02  0.00000000000E+00 0.  1.
         11    1    3    3    0    0 -0.25898971772E+02 -0.58525062340E+01 -0.51358705621E+01  0.27044144186E+02  0.51100000000E-03 0. -1.
        -11    1    3    3    0    0 -0.36080795494E+01 -0.51193445479E+01  0.97592763675E+00  0.63386403627E+01  0.51100000000E-03 0.  1.
        -12    1    3    3    0    0 -0.10532439849E+02  0.13293120755E+02 -0.25196248546E+01  0.17146074128E+02  0.00000000000E+00 0.  1.
</event>
<event>
 7    1  0.5138511E-013  0.5052886E+02  0.7816164E-02  0.1300439E+00
        -11   -1    0    0    0    0  0.00000000000E+00  0.00000000000E+00  0.45593999997E+02  0.45594000000E+02  0.51100000000E-03 0.  1.
         11   -1    0    0    0    0 -0.00000000000E+00 -0.00000000000E+00 -0.45593999997E+02  0.45594000000E+02  0.51100000000E-03 0. -1.
    9900012    2    1    2    0    0 -0.79276451485E+01 -0.49749735260E+01 -0.39567251684E+02  0.50528864188E+02  0.30000013186E+02 0.  0.
        -12    1    1    2    0    0  0.79276451485E+01  0.49749735260E+01  0.39567251684E+02  0.40659135812E+02  0.00000000000E+00 0.  1.
         11    1    3    3    0    0 -0.22096210678E+01  0.82160986203E+01 -0.66216255735E+01  0.10781123657E+02  0.51100000000E-03 0. -1.
        -11    1    3    3    0    0 -0.10368352217E+02 -0.47577108825E+01 -0.24133837808E+02  0.26694206640E+02  0.51100000000E-03 0.  1.
         12    1    3    3    0    0  0.46503281359E+01 -0.84333612638E+01 -0.88117883019E+01  0.13053533891E+02  0.00000000000E+00 0. -1.
</event>
<event>
 7    1  0.5138511E-013  0.5052886E+02  0.7816164E-02  0.1300439E+00
        -11   -1    0    0    0    0  0.00000000000E+00  0.00000000000E+00  0.45593999997E+02  0.45594000000E+02  0.51100000000E-03 0.  1.
         11   -1    0    0    0    0 -0.00000000000E+00 -0.00000000000E+00 -0.45593999997E+02  0.45594000000E+02  0.51100000000E-03 0. -1.
    9900012    2    1    2    0    0 -0.37924822464E+02  0.30993862146E+01 -0.14327166093E+02  0.50528855370E+02  0.29999986381E+02 0.  0.
        -12    1    1    2    0    0  0.37924822464E+02 -0.30993862146E+01  0.14327166093E+02  0.40659144630E+02  0.00000000000E+00 0.  1.
         11    1    3    3    0    0 -0.24074305894E+02 -0.24938682790E+01 -0.21960621776E+02  0.32681194781E+02  0.51100000000E-03 0. -1.
        -11    1    3    3    0    0 -0.33755336368E+01  0.32135195732E+01 -0.15739480391E-01  0.46605990358E+01  0.51100000000E-03 0.  1.
        -12    1    3    3    0    0 -0.10474982933E+02  0.23797349204E+01  0.76491951636E+01  0.13187061552E+02  0.00000000000E+00 0.  1.
</event>
<event>
 7    1  0.5138511E-013  0.5052887E+02  0.7816164E-02  0.1300439E+00
        -11   -1    0    0    0    0  0.00000000000E+00  0.00000000000E+00  0.45593999997E+02  0.45594000000E+02  0.51100000000E-03 0. -1.
         11   -1    0    0    0    0 -0.00000000000E+00 -0.00000000000E+00 -0.45593999997E+02  0.45594000000E+02  0.51100000000E-03 0.  1.
    9900012    2    1    2    0    0 -0.38473322292E+02  0.11658437469E+02  0.60868157385E+01  0.50528867960E+02  0.30000024651E+02 0.  0.
        -12    1    1    2    0    0  0.38473322292E+02 -0.11658437469E+02 -0.60868157385E+01  0.40659132040E+02  0.00000000000E+00 0.  1.
         11    1    3    3    0    0 -0.51389470445E+01 -0.63526851129E+00  0.94117858642E+01  0.10742162549E+02  0.51100000000E-03 0. -1.
        -11    1    3    3    0    0  0.62104873803E+00 -0.86605955619E+00 -0.31971943092E+01  0.33701353685E+01  0.51100000000E-03 0.  1.
         12    1    3    3    0    0 -0.33955423986E+02  0.13159765537E+02 -0.12777581647E+00  0.36416570043E+02  0.00000000000E+00 0. -1.
</event>
<event>
 7    1  0.5138511E-013  0.5052886E+02  0.7816164E-02  0.1300439E+00
        -11   -1    0    0    0    0  0.00000000000E+00  0.00000000000E+00  0.45593999997E+02  0.45594000000E+02  0.51100000000E-03 0. -1.
         11   -1    0    0    0    0 -0.00000000000E+00 -0.00000000000E+00 -0.45593999997E+02  0.45594000000E+02  0.51100000000E-03 0.  1.
    9900012    2    1    2    0    0  0.11186292556E+02  0.93276407976E+01  0.37960869968E+02  0.50528859912E+02  0.30000000189E+02 0.  0.
        -12    1    1    2    0    0 -0.11186292556E+02 -0.93276407976E+01 -0.37960869968E+02  0.40659140088E+02  0.00000000000E+00 0.  1.
         11    1    3    3    0    0  0.31654970258E+01 -0.35999428356E+00  0.10623171455E+02  0.11090614921E+02  0.51100000000E-03 0. -1.
        -11    1    3    3    0    0  0.95108078540E+01 -0.63606677260E+01  0.16255526825E+02  0.19878523903E+02  0.51100000000E-03 0.  1.
        -12    1    3    3    0    0 -0.14900123239E+01  0.16048302807E+02  0.11082171688E+02  0.19559721088E+02  0.00000000000E+00 0.  1.
</event>
<event>
 7    1  0.6254512E-013  0.5052885E+02  0.7816164E-02  0.1300439E+00
        -11   -1    0    0    0    0  0.00000000000E+00  0.00000000000E+00  0.45593999997E+02  0.45594000000E+02  0.51100000000E-03 0.  1.
         11   -1    0    0    0    0 -0.00000000000E+00 -0.00000000000E+00 -0.45593999997E+02  0.45594000000E+02  0.51100000000E-03 0. -1.
    9900012    2    1    2    0    0  0.83866687069E+01  0.36667001805E+02 -0.15438939390E+02  0.50528854868E+02  0.29999984858E+02 0.  0.
        -12    1    1    2    0    0 -0.83866687069E+01 -0.36667001805E+02  0.15438939390E+02  0.40659145132E+02  0.00000000000E+00 0.  1.
         11    1    3    3    0    0  0.19679510244E+01  0.31901601137E+02 -0.12073054943E+02  0.34166411024E+02  0.51100000000E-03 0. -1.
        -11    1    3    3    0    0 -0.34361946937E+01  0.16508349507E+01  0.24222864888E+01  0.45166538613E+01  0.51100000000E-03 0.  1.
        -12    1    3    3    0    0  0.98549123762E+01  0.31145657171E+01 -0.57881709354E+01  0.11845789983E+02  0.00000000000E+00 0.  1.
</event>
<event>
 7    1  0.5138511E-013  0.5052886E+02  0.7816164E-02  0.1300439E+00
        -11   -1    0    0    0    0  0.00000000000E+00  0.00000000000E+00  0.45593999997E+02  0.45594000000E+02  0.51100000000E-03 0.  1.
         11   -1    0    0    0    0 -0.00000000000E+00 -0.00000000000E+00 -0.45593999997E+02  0.45594000000E+02  0.51100000000E-03 0. -1.
    9900012    2    1    2    0    0  0.27183954916E+02  0.68465068776E+00 -0.30227952483E+02  0.50528864954E+02  0.30000015513E+02 0.  0.
        -12    1    1    2    0    0 -0.27183954916E+02 -0.68465068776E+00  0.30227952483E+02  0.40659135046E+02  0.00000000000E+00 0.  1.
         11    1    3    3    0    0  0.17231517014E+02 -0.47211090769E+01 -0.89449310201E+01  0.19980636645E+02  0.51100000000E-03 0. -1.
        -11    1    3    3    0    0  0.58546313101E+00  0.76257150716E+01 -0.52433736027E+00  0.76661090104E+01  0.51100000000E-03 0.  1.
         12    1    3    3    0    0  0.93669747709E+01 -0.22199553070E+01 -0.20758684103E+02  0.22882119299E+02  0.00000000000E+00 0. -1.
</event>
<event>
 7    1  0.5138511E-013  0.5052884E+02  0.7816164E-02  0.1300439E+00
        -11   -1    0    0    0    0  0.00000000000E+00  0.00000000000E+00  0.45593999997E+02  0.45594000000E+02  0.51100000000E-03 0.  1.
         11   -1    0    0    0    0 -0.00000000000E+00 -0.00000000000E+00 -0.45593999997E+02  0.45594000000E+02  0.51100000000E-03 0. -1.
    9900012    2    1    2    0    0  0.35601589086E+02  0.10759751090E+01 -0.19609607102E+02  0.50528836720E+02  0.29999929695E+02 0.  0.
        -12    1    1    2    0    0 -0.35601589086E+02 -0.10759751090E+01  0.19609607102E+02  0.40659163280E+02  0.00000000000E+00 0.  1.
         11    1    3    3    0    0  0.18912030645E+01  0.66533370846E+01 -0.82498734817E+00  0.69659276323E+01  0.51100000000E-03 0. -1.
        -11    1    3    3    0    0 -0.11225431997E+01 -0.40857108208E+01 -0.72627637762E+00  0.42989084410E+01  0.51100000000E-03 0.  1.
         12    1    3    3    0    0  0.34832929221E+02 -0.14916511548E+01 -0.18058343376E+02  0.39264000647E+02  0.00000000000E+00 0. -1.
</event>
<event>
 7    1  0.5138511E-013  0.5052885E+02  0.7816164E-02  0.1300439E+00
        -11   -1    0    0    0    0  0.00000000000E+00  0.00000000000E+00  0.45593999997E+02  0.45594000000E+02  0.51100000000E-03 0.  1.
         11   -1    0    0    0    0 -0.00000000000E+00 -0.00000000000E+00 -0.45593999997E+02  0.45594000000E+02  0.51100000000E-03 0. -1.
    9900012    2    1    2    0    0  0.10250725994E+02  0.98498644677E+01 -0.38092901215E+02  0.50528851750E+02  0.29999975379E+02 0.  0.
        -12    1    1    2    0    0 -0.10250725994E+02 -0.98498644677E+01  0.38092901215E+02  0.40659148250E+02  0.00000000000E+00 0.  1.
         11    1    3    3    0    0  0.12887932814E+02  0.46737434068E+01 -0.29475312490E+02  0.32507487388E+02  0.51100000000E-03 0. -1.
        -11    1    3    3    0    0  0.41684358043E+01  0.62442146220E+01 -0.72117392816E+00  0.75422917867E+01  0.51100000000E-03 0.  1.
        -12    1    3    3    0    0 -0.68056426244E+01 -0.10680935611E+01 -0.78964147972E+01  0.10479072575E+02  0.00000000000E+00 0.  1.
</event>
<event>
 7    1  0.5138511E-013  0.5052886E+02  0.7816164E-02  0.1300439E+00
        -11   -1    0    0    0    0  0.00000000000E+00  0.00000000000E+00  0.45593999997E+02  0.45594000000E+02  0.51100000000E-03 0.  1.
         11   -1    0    0    0    0 -0.00000000000E+00 -0.00000000000E+00 -0.45593999997E+02  0.45594000000E+02  0.51100000000E-03 0. -1.
    9900012    2    1    2    0    0 -0.19965295530E+02 -0.27325757714E+02 -0.22535655077E+02  0.50528858223E+02  0.29999995056E+02 0.  0.
        -12    1    1    2    0    0  0.19965295530E+02  0.27325757714E+02  0.22535655077E+02  0.40659141777E+02  0.00000000000E+00 0.  1.
         11    1    3    3    0    0 -0.22855033344E+01 -0.19116466349E+02 -0.87713799600E+01  0.21156557325E+02  0.51100000000E-03 0. -1.
        -11    1    3    3    0    0 -0.13832363033E+02 -0.11815540982E+02 -0.45442314516E+01  0.18750768398E+02  0.51100000000E-03 0.  1.
         12    1    3    3    0    0 -0.38474291625E+01  0.36062496172E+01 -0.92200436658E+01  0.10621532501E+02  0.00000000000E+00 0. -1.
</event>
<event>
 7    1  0.5138511E-013  0.5052886E+02  0.7816164E-02  0.1300439E+00
        -11   -1    0    0    0    0  0.00000000000E+00  0.00000000000E+00  0.45593999997E+02  0.45594000000E+02  0.51100000000E-03 0.  1.
         11   -1    0    0    0    0 -0.00000000000E+00 -0.00000000000E+00 -0.45593999997E+02  0.45594000000E+02  0.51100000000E-03 0. -1.
    9900012    2    1    2    0    0  0.30769476067E+02  0.26062937401E+02  0.52084717697E+01  0.50528861524E+02  0.30000005089E+02 0.  0.
        -12    1    1    2    0    0 -0.30769476067E+02 -0.26062937401E+02 -0.52084717697E+01  0.40659138476E+02  0.00000000000E+00 0.  1.
         11    1    3    3    0    0  0.14845110326E+02  0.55141806839E+01  0.38086783785E+01  0.16287710719E+02  0.51100000000E-03 0. -1.
        -11    1    3    3    0    0  0.33702449568E+01 -0.39251867116E+01 -0.35754232274E+01  0.62888228872E+01  0.51100000000E-03 0.  1.
         12    1    3    3    0    0  0.12554120784E+02  0.24473943429E+02  0.49752166187E+01  0.27952327918E+02  0.00000000000E+00 0. -1.
</event>
<event>
 7    1  0.5138511E-013  0.5052883E+02  0.7816164E-02  0.1300439E+00
        -11   -1    0    0    0    0  0.00000000000E+00  0.00000000000E+00  0.45593999997E+02  0.45594000000E+02  0.51100000000E-03 0. -1.
         11   -1    0    0    0    0 -0.00000000000E+00 -0.00000000000E+00 -0.45593999997E+02  0.45594000000E+02  0.51100000000E-03 0.  1.
    9900012    2    1    2    0    0  0.39461048727E+02 -0.73616772694E+01 -0.64652388666E+01  0.50528831631E+02  0.29999914226E+02 0.  0.
        -12    1    1    2    0    0 -0.39461048727E+02  0.73616772694E+01  0.64652388666E+01  0.40659168369E+02  0.00000000000E+00 0.  1.
         11    1    3    3    0    0  0.10623604966E+02 -0.31568813669E+01 -0.13998534168E+02  0.17854574808E+02  0.51100000000E-03 0.  1.
        -11    1    3    3    0    0 -0.79597147723E+00 -0.48895882120E+00  0.21274047194E+01  0.23234677581E+01  0.51100000000E-03 0. -1.
        -12    1    3    3    0    0  0.29633415238E+02 -0.37158370813E+01  0.54058905824E+01  0.30350789065E+02  0.00000000000E+00 0.  1.
</event>
<event>
 7    1  0.5138511E-013  0.5052886E+02  0.7816164E-02  0.1300439E+00
        -11   -1    0    0    0    0  0.00000000000E+00  0.00000000000E+00  0.45593999997E+02  0.45594000000E+02  0.51100000000E-03 0.  1.
         11   -1    0    0    0    0 -0.00000000000E+00 -0.00000000000E+00 -0.45593999997E+02  0.45594000000E+02  0.51100000000E-03 0. -1.
    9900012    2    1    2    0    0  0.16347836778E+02 -0.74107021495E+01 -0.36482814258E+02  0.50528855766E+02  0.29999987587E+02 0.  0.
        -12    1    1    2    0    0 -0.16347836778E+02  0.74107021495E+01  0.36482814258E+02  0.40659144234E+02  0.00000000000E+00 0.  1.
         11    1    3    3    0    0 -0.36598876279E+01  0.62942946081E+01 -0.70565656659E+01  0.10139430029E+02  0.51100000000E-03 0. -1.
        -11    1    3    3    0    0  0.20423099835E+01 -0.20050704035E+01  0.11173791911E+01  0.30724377796E+01  0.51100000000E-03 0.  1.
        -12    1    3    3    0    0  0.17965414422E+02 -0.11699926354E+02 -0.30543627783E+02  0.37316987957E+02  0.00000000000E+00 0.  1.
</event>
<event>
 7    1  0.5138511E-013  0.5052885E+02  0.7816164E-02  0.1300439E+00
        -11   -1    0    0    0    0  0.00000000000E+00  0.00000000000E+00  0.45593999997E+02  0.45594000000E+02  0.51100000000E-03 0. -1.
         11   -1    0    0    0    0 -0.00000000000E+00 -0.00000000000E+00 -0.45593999997E+02  0.45594000000E+02  0.51100000000E-03 0.  1.
    9900012    2    1    2    0    0 -0.45988259589E+01  0.60131994511E+01  0.39948201009E+02  0.50528849348E+02  0.29999968079E+02 0.  0.
        -12    1    1    2    0    0  0.45988259589E+01 -0.60131994511E+01 -0.39948201009E+02  0.40659150652E+02  0.00000000000E+00 0.  1.
         11    1    3    3    0    0 -0.47797502236E+01  0.29207865504E+01  0.19420033198E+02  0.20211746484E+02  0.51100000000E-03 0. -1.
        -11    1    3    3    0    0 -0.10669302834E+02 -0.75715755497E+00  0.84527834893E+01  0.13632932902E+02  0.51100000000E-03 0.  1.
         12    1    3    3    0    0  0.10850227099E+02  0.38495704557E+01  0.12075384322E+02  0.16684169962E+02  0.00000000000E+00 0. -1.
</event>
<event>
 7    1  0.5138511E-013  0.5052887E+02  0.7816164E-02  0.1300439E+00
        -11   -1    0    0    0    0  0.00000000000E+00  0.00000000000E+00  0.45593999997E+02  0.45594000000E+02  0.51100000000E-03 0. -1.
         11   -1    0    0    0    0 -0.00000000000E+00 -0.00000000000E+00 -0.45593999997E+02  0.45594000000E+02  0.51100000000E-03 0.  1.
    9900012    2    1    2    0    0 -0.19771248467E+02  0.15279190153E+02  0.32075047261E+02  0.50528873418E+02  0.30000041241E+02 0.  0.
        -12    1    1    2    0    0  0.19771248467E+02 -0.15279190153E+02 -0.32075047261E+02  0.40659126582E+02  0.00000000000E+00 0.  1.
         11    1    3    3    0    0  0.12022396519E+01  0.77942973107E+01 -0.47485438159E+00  0.79007555141E+01  0.51100000000E-03 0. -1.
        -11    1    3    3    0    0 -0.50917876281E+00  0.54542396664E+01  0.20628089501E+01  0.58534754101E+01  0.51100000000E-03 0.  1.
         12    1    3    3    0    0 -0.20464309356E+02  0.20306531757E+01  0.30487092692E+02  0.36774642494E+02  0.00000000000E+00 0. -1.
</event>
<event>
 7    1  0.5138511E-013  0.5052885E+02  0.7816164E-02  0.1300439E+00
        -11   -1    0    0    0    0  0.00000000000E+00  0.00000000000E+00  0.45593999997E+02  0.45594000000E+02  0.51100000000E-03 0.  1.
         11   -1    0    0    0    0 -0.00000000000E+00 -0.00000000000E+00 -0.45593999997E+02  0.45594000000E+02  0.51100000000E-03 0. -1.
    9900012    2    1    2    0    0  0.41898472647E+00 -0.38738013772E+02 -0.12343291082E+02  0.50528854732E+02  0.29999984444E+02 0.  0.
        -12    1    1    2    0    0 -0.41898472647E+00  0.38738013772E+02  0.12343291082E+02  0.40659145268E+02  0.00000000000E+00 0.  1.
         11    1    3    3    0    0 -0.71105143226E+01 -0.18381767272E+02 -0.80558447473E+01  0.21291909657E+02  0.51100000000E-03 0. -1.
        -11    1    3    3    0    0 -0.13814469812E+01  0.18839457180E+01 -0.47283008325E+01  0.52739431410E+01  0.51100000000E-03 0.  1.
        -12    1    3    3    0    0  0.89109460303E+01 -0.22240192218E+02  0.44085449792E+00  0.23963001935E+02  0.00000000000E+00 0.  1.
</event>
<event>
 7    1  0.5138511E-013  0.5052884E+02  0.7816164E-02  0.1300439E+00
        -11   -1    0    0    0    0  0.00000000000E+00  0.00000000000E+00  0.45593999997E+02  0.45594000000E+02  0.51100000000E-03 0. -1.
         11   -1    0    0    0    0 -0.00000000000E+00 -0.00000000000E+00 -0.45593999997E+02  0.45594000000E+02  0.51100000000E-03 0.  1.
    9900012    2    1    2    0    0 -0.26799675900E+02  0.21234158656E+02  0.22001261111E+02  0.50528836055E+02  0.29999927673E+02 0.  0.
        -12    1    1    2    0    0  0.26799675900E+02 -0.21234158656E+02 -0.22001261111E+02  0.40659163945E+02  0.00000000000E+00 0.  1.
         11    1    3    3    0    0 -0.16472795386E+02  0.17071230208E+02  0.24909254915E+02  0.34398413762E+02  0.51100000000E-03 0. -1.
        -11    1    3    3    0    0 -0.64214966777E+00 -0.34687366068E+01 -0.86283092422E+00  0.36316617833E+01  0.51100000000E-03 0.  1.
        -12    1    3    3    0    0 -0.96847308462E+01  0.76316650555E+01 -0.20451628797E+01  0.12498760510E+02  0.00000000000E+00 0.  1.
</event>
<event>
 7    1  0.5138511E-013  0.5052888E+02  0.7816164E-02  0.1300439E+00
        -11   -1    0    0    0    0  0.00000000000E+00  0.00000000000E+00  0.45593999997E+02  0.45594000000E+02  0.51100000000E-03 0. -1.
         11   -1    0    0    0    0 -0.00000000000E+00 -0.00000000000E+00 -0.45593999997E+02  0.45594000000E+02  0.51100000000E-03 0.  1.
    9900012    2    1    2    0    0 -0.21660427793E+02  0.16899345981E+02  0.29973355567E+02  0.50528879612E+02  0.30000060069E+02 0.  0.
        -12    1    1    2    0    0  0.21660427793E+02 -0.16899345981E+02 -0.29973355567E+02  0.40659120388E+02  0.00000000000E+00 0.  1.
         11    1    3    3    0    0 -0.90289385401E+01  0.59376437034E+01  0.13009923037E+02  0.16912582345E+02  0.51100000000E-03 0. -1.
        -11    1    3    3    0    0 -0.15829314239E+02 -0.17389419704E+01  0.91856664990E+01  0.18383894521E+02  0.51100000000E-03 0.  1.
         12    1    3    3    0    0  0.31978249865E+01  0.12700644248E+02  0.77777660315E+01  0.15232402746E+02  0.00000000000E+00 0. -1.
</event>
<event>
 7    1  0.5138511E-013  0.5052886E+02  0.7816164E-02  0.1300439E+00
        -11   -1    0    0    0    0  0.00000000000E+00  0.00000000000E+00  0.45593999997E+02  0.45594000000E+02  0.51100000000E-03 0.  1.
         11   -1    0    0    0    0 -0.00000000000E+00 -0.00000000000E+00 -0.45593999997E+02  0.45594000000E+02  0.51100000000E-03 0. -1.
    9900012    2    1    2    0    0  0.26081590331E+02 -0.16500002652E+02 -0.26470104526E+02  0.50528857420E+02  0.29999992613E+02 0.  0.
        -12    1    1    2    0    0 -0.26081590331E+02  0.16500002652E+02  0.26470104526E+02  0.40659142580E+02  0.00000000000E+00 0.  1.
         11    1    3    3    0    0  0.94751843571E+01  0.38485960615E+01 -0.63721423093E+01  0.12049689129E+02  0.51100000000E-03 0. -1.
        -11    1    3    3    0    0  0.19508482797E+02 -0.11265834789E+02 -0.10179991910E+02  0.24721087559E+02  0.51100000000E-03 0.  1.
        -12    1    3    3    0    0 -0.29020768232E+01 -0.90827639248E+01 -0.99179703074E+01  0.13758080732E+02  0.00000000000E+00 0.  1.
</event>
<event>
 7    1  0.5138511E-013  0.5052885E+02  0.7816164E-02  0.1300439E+00
        -11   -1    0    0    0    0  0.00000000000E+00  0.00000000000E+00  0.45593999997E+02  0.45594000000E+02  0.51100000000E-03 0.  1.
         11   -1    0    0    0    0 -0.00000000000E+00 -0.00000000000E+00 -0.45593999997E+02  0.45594000000E+02  0.51100000000E-03 0. -1.
    9900012    2    1    2    0    0 -0.37250188146E+02  0.12654812851E+02 -0.10268660377E+02  0.50528853536E+02  0.29999980809E+02 0.  0.
        -12    1    1    2    0    0  0.37250188146E+02 -0.12654812851E+02  0.10268660377E+02  0.40659146464E+02  0.00000000000E+00 0.  1.
         11    1    3    3    0    0 -0.10610880469E+02  0.48558914590E+01 -0.60716016031E+01  0.13154269743E+02  0.51100000000E-03 0. -1.
        -11    1    3    3    0    0 -0.98342629364E+01  0.14527883700E+02  0.31757642089E+01  0.17828561660E+02  0.51100000000E-03 0.  1.
        -12    1    3    3    0    0 -0.16805044741E+02 -0.67289623080E+01 -0.73728229829E+01  0.19546022133E+02  0.00000000000E+00 0.  1.
</event>
<event>
 7    1  0.5138511E-013  0.5052885E+02  0.7816164E-02  0.1300439E+00
        -11   -1    0    0    0    0  0.00000000000E+00  0.00000000000E+00  0.45593999997E+02  0.45594000000E+02  0.51100000000E-03 0.  1.
         11   -1    0    0    0    0 -0.00000000000E+00 -0.00000000000E+00 -0.45593999997E+02  0.45594000000E+02  0.51100000000E-03 0. -1.
    9900012    2    1    2    0    0  0.23145056675E+02  0.27887768083E+02 -0.18432178561E+02  0.50528850185E+02  0.29999970623E+02 0.  0.
        -12    1    1    2    0    0 -0.23145056675E+02 -0.27887768083E+02  0.18432178561E+02  0.40659149815E+02  0.00000000000E+00 0.  1.
         11    1    3    3    0    0  0.21151374031E+02  0.12479787947E+02  0.21708428341E+01  0.24654376680E+02  0.51100000000E-03 0.  1.
        -11    1    3    3    0    0 -0.18058884709E+00  0.23377906063E+01 -0.23526486226E+01  0.33215708713E+01  0.51100000000E-03 0. -1.
        -12    1    3    3    0    0  0.21742714907E+01  0.13070189530E+02 -0.18250372773E+02  0.22552902634E+02  0.00000000000E+00 0.  1.
</event>
<event>
 7    1  0.5138511E-013  0.5052886E+02  0.7816164E-02  0.1300439E+00
        -11   -1    0    0    0    0  0.00000000000E+00  0.00000000000E+00  0.45593999997E+02  0.45594000000E+02  0.51100000000E-03 0. -1.
         11   -1    0    0    0    0 -0.00000000000E+00 -0.00000000000E+00 -0.45593999997E+02  0.45594000000E+02  0.51100000000E-03 0.  1.
    9900012    2    1    2    0    0 -0.39480222100E+02 -0.66180861524E+00  0.96974249980E+01  0.50528856142E+02  0.29999988728E+02 0.  0.
        -12    1    1    2    0    0  0.39480222100E+02  0.66180861524E+00 -0.96974249980E+01  0.40659143858E+02  0.00000000000E+00 0.  1.
         11    1    3    3    0    0 -0.76663705422E+01  0.49609240737E+01  0.99995633297E+01  0.13541612607E+02  0.51100000000E-03 0. -1.
        -11    1    3    3    0    0 -0.90317661681E+01  0.38074801404E+01 -0.62482734122E+01  0.11623709650E+02  0.51100000000E-03 0.  1.
         12    1    3    3    0    0 -0.22782085390E+02 -0.94302128293E+01  0.59461350805E+01  0.25363533884E+02  0.00000000000E+00 0. -1.
</event>
<event>
 7    1  0.5138511E-013  0.5052886E+02  0.7816164E-02  0.1300439E+00
        -11   -1    0    0    0    0  0.00000000000E+00  0.00000000000E+00  0.45593999997E+02  0.45594000000E+02  0.51100000000E-03 0. -1.
         11   -1    0    0    0    0 -0.00000000000E+00 -0.00000000000E+00 -0.45593999997E+02  0.45594000000E+02  0.51100000000E-03 0.  1.
    9900012    2    1    2    0    0 -0.33454213541E+02  0.23085827397E+02  0.10128639563E+01  0.50528859285E+02  0.29999998282E+02 0.  0.
        -12    1    1    2    0    0  0.33454213541E+02 -0.23085827397E+02 -0.10128639563E+01  0.40659140715E+02  0.00000000000E+00 0.  1.
         11    1    3    3    0    0 -0.22544478239E+02  0.10480971553E+02 -0.80940781510E+01  0.26146096557E+02  0.51100000000E-03 0. -1.
        -11    1    3    3    0    0  0.31611852197E+00  0.38414264357E+00 -0.35048288944E+01  0.35399607809E+01  0.51100000000E-03 0.  1.
         12    1    3    3    0    0 -0.11225853824E+02  0.12220713201E+02  0.12611771002E+02  0.20842801947E+02  0.00000000000E+00 0. -1.
</event>
<event>
 7    1  0.5138511E-013  0.5052887E+02  0.7816164E-02  0.1300439E+00
        -11   -1    0    0    0    0  0.00000000000E+00  0.00000000000E+00  0.45593999997E+02  0.45594000000E+02  0.51100000000E-03 0.  1.
         11   -1    0    0    0    0 -0.00000000000E+00 -0.00000000000E+00 -0.45593999997E+02  0.45594000000E+02  0.51100000000E-03 0. -1.
    9900012    2    1    2    0    0 -0.38167378183E+02 -0.13961478354E+02 -0.12220974225E+01  0.50528866250E+02  0.30000019454E+02 0.  0.
        -12    1    1    2    0    0  0.38167378183E+02  0.13961478354E+02  0.12220974225E+01  0.40659133750E+02  0.00000000000E+00 0.  1.
         11    1    3    3    0    0 -0.34102316155E+02 -0.11350075132E+02  0.39487775540E+00  0.35943679574E+02  0.51100000000E-03 0. -1.
        -11    1    3    3    0    0 -0.77413969102E+01 -0.26012175662E+01 -0.50111375005E+01  0.95815999842E+01  0.51100000000E-03 0.  1.
        -12    1    3    3    0    0  0.36763348821E+01 -0.10185655639E-01  0.33941623226E+01  0.50035866920E+01  0.00000000000E+00 0.  1.
</event>
<event>
 7    1  0.5138511E-013  0.5052888E+02  0.7816164E-02  0.1300439E+00
        -11   -1    0    0    0    0  0.00000000000E+00  0.00000000000E+00  0.45593999997E+02  0.45594000000E+02  0.51100000000E-03 0. -1.
         11   -1    0    0    0    0 -0.00000000000E+00 -0.00000000000E+00 -0.45593999997E+02  0.45594000000E+02  0.51100000000E-03 0.  1.
    9900012    2    1    2    0    0  0.76496307353E+01  0.17346816115E+02  0.35968528439E+02  0.50528881493E+02  0.30000065786E+02 0.  0.
        -12    1    1    2    0    0 -0.76496307353E+01 -0.17346816115E+02 -0.35968528439E+02  0.40659118507E+02  0.00000000000E+00 0.  1.
         11    1    3    3    0    0 -0.28366499310E+01  0.48094642121E+00 -0.11084968743E+01  0.30832868619E+01  0.51100000000E-03 0. -1.
        -11    1    3    3    0    0  0.53576167828E+01 -0.46809436701E+01  0.12322410606E+02  0.14228741850E+02  0.51100000000E-03 0.  1.
         12    1    3    3    0    0  0.51286638836E+01  0.21546813364E+02  0.24754614708E+02  0.33216852781E+02  0.00000000000E+00 0. -1.
</event>
<event>
 7    1  0.5138511E-013  0.5052885E+02  0.7816164E-02  0.1300439E+00
        -11   -1    0    0    0    0  0.00000000000E+00  0.00000000000E+00  0.45593999997E+02  0.45594000000E+02  0.51100000000E-03 0.  1.
         11   -1    0    0    0    0 -0.00000000000E+00 -0.00000000000E+00 -0.45593999997E+02  0.45594000000E+02  0.51100000000E-03 0. -1.
    9900012    2    1    2    0    0  0.18857766678E+02  0.32426231256E+02 -0.15687281260E+02  0.50528848129E+02  0.29999964373E+02 0.  0.
        -12    1    1    2    0    0 -0.18857766678E+02 -0.32426231256E+02  0.15687281260E+02  0.40659151871E+02  0.00000000000E+00 0.  1.
         11    1    3    3    0    0  0.16619678236E+01  0.53897813768E+00  0.40603251808E+00  0.17937383160E+01  0.51100000000E-03 0. -1.
        -11    1    3    3    0    0  0.10898726198E+02  0.11185644676E+01  0.37559789827E+01  0.11581916835E+02  0.51100000000E-03 0.  1.
         12    1    3    3    0    0  0.62970726565E+01  0.30768688651E+02 -0.19849292761E+02  0.37153192978E+02  0.00000000000E+00 0. -1.
</event>
<event>
 7    1  0.5138511E-013  0.5052886E+02  0.7816164E-02  0.1300439E+00
        -11   -1    0    0    0    0  0.00000000000E+00  0.00000000000E+00  0.45593999997E+02  0.45594000000E+02  0.51100000000E-03 0.  1.
         11   -1    0    0    0    0 -0.00000000000E+00 -0.00000000000E+00 -0.45593999997E+02  0.45594000000E+02  0.51100000000E-03 0. -1.
    9900012    2    1    2    0    0  0.20287013054E+02 -0.33939102312E+02 -0.94731263551E+01  0.50528859733E+02  0.29999999643E+02 0.  0.
        -12    1    1    2    0    0 -0.20287013054E+02  0.33939102312E+02  0.94731263551E+01  0.40659140267E+02  0.00000000000E+00 0.  1.
         11    1    3    3    0    0  0.13551053465E+02 -0.31154598147E+02 -0.66624578957E+01  0.34621212879E+02  0.51100000000E-03 0. -1.
        -11    1    3    3    0    0  0.56426030872E+01 -0.32996598779E+01  0.48581166736E+01  0.81442017893E+01  0.51100000000E-03 0.  1.
        -12    1    3    3    0    0  0.10933565012E+01  0.51515571371E+00 -0.76687851330E+01  0.77634450642E+01  0.00000000000E+00 0.  1.
</event>
<event>
 7    1  0.5138511E-013  0.5052886E+02  0.7816164E-02  0.1300439E+00
        -11   -1    0    0    0    0  0.00000000000E+00  0.00000000000E+00  0.45593999997E+02  0.45594000000E+02  0.51100000000E-03 0.  1.
         11   -1    0    0    0    0 -0.00000000000E+00 -0.00000000000E+00 -0.45593999997E+02  0.45594000000E+02  0.51100000000E-03 0. -1.
    9900012    2    1    2    0    0 -0.27806551448E+02 -0.97119994310E+01 -0.28029245700E+02  0.50528857721E+02  0.29999993528E+02 0.  0.
        -12    1    1    2    0    0  0.27806551448E+02  0.97119994310E+01  0.28029245700E+02  0.40659142279E+02  0.00000000000E+00 0.  1.
         11    1    3    3    0    0 -0.91688565466E+01  0.46030464033E+00 -0.16217725804E+01  0.93225510080E+01  0.51100000000E-03 0. -1.
        -11    1    3    3    0    0 -0.12999107621E+02  0.43107747434E+01 -0.20342244285E+02  0.24522774734E+02  0.51100000000E-03 0.  1.
        -12    1    3    3    0    0 -0.56385872807E+01 -0.14483078815E+02 -0.60652288341E+01  0.16683531979E+02  0.00000000000E+00 0.  1.
</event>
<event>
 7    1  0.5138511E-013  0.5052886E+02  0.7816164E-02  0.1300439E+00
        -11   -1    0    0    0    0  0.00000000000E+00  0.00000000000E+00  0.45593999997E+02  0.45594000000E+02  0.51100000000E-03 0.  1.
         11   -1    0    0    0    0 -0.00000000000E+00 -0.00000000000E+00 -0.45593999997E+02  0.45594000000E+02  0.51100000000E-03 0. -1.
    9900012    2    1    2    0    0 -0.23662905531E+02 -0.56079827942E+01 -0.32585008428E+02  0.50528863961E+02  0.30000012494E+02 0.  0.
        -12    1    1    2    0    0  0.23662905531E+02  0.56079827942E+01  0.32585008428E+02  0.40659136039E+02  0.00000000000E+00 0.  1.
         11    1    3    3    0    0  0.57679236109E+00  0.29091386424E+01 -0.86624614681E+01  0.91560917436E+01  0.51100000000E-03 0.  1.
        -11    1    3    3    0    0 -0.18286901057E+02 -0.15381391776E+02 -0.21046201272E+02  0.31842433190E+02  0.51100000000E-03 0. -1.
         12    1    3    3    0    0 -0.59527968360E+01  0.68642703390E+01 -0.28763456885E+01  0.95303390274E+01  0.00000000000E+00 0. -1.
</event>
<event>
 7    1  0.5138511E-013  0.5052886E+02  0.7816164E-02  0.1300439E+00
        -11   -1    0    0    0    0  0.00000000000E+00  0.00000000000E+00  0.45593999997E+02  0.45594000000E+02  0.51100000000E-03 0.  1.
         11   -1    0    0    0    0 -0.00000000000E+00 -0.00000000000E+00 -0.45593999997E+02  0.45594000000E+02  0.51100000000E-03 0. -1.
    9900012    2    1    2    0    0  0.50468910251E+01 -0.39714936199E+02  0.71005659599E+01  0.50528864455E+02  0.30000013998E+02 0.  0.
        -12    1    1    2    0    0 -0.50468910251E+01  0.39714936199E+02 -0.71005659599E+01  0.40659135545E+02  0.00000000000E+00 0.  1.
         11    1    3    3    0    0  0.30399155735E+00 -0.37742146590E+02  0.12371817889E+01  0.37763642027E+02  0.51100000000E-03 0. -1.
        -11    1    3    3    0    0  0.79162859748E+00 -0.19113097265E+01 -0.26603149474E+01  0.33700232325E+01  0.51100000000E-03 0.  1.
        -12    1    3    3    0    0  0.39512708703E+01 -0.61479882128E-01  0.85236991184E+01  0.93951991957E+01  0.00000000000E+00 0.  1.
</event>
<event>
 7    1  0.5138511E-013  0.5052886E+02  0.7816164E-02  0.1300439E+00
        -11   -1    0    0    0    0  0.00000000000E+00  0.00000000000E+00  0.45593999997E+02  0.45594000000E+02  0.51100000000E-03 0. -1.
         11   -1    0    0    0    0 -0.00000000000E+00 -0.00000000000E+00 -0.45593999997E+02  0.45594000000E+02  0.51100000000E-03 0.  1.
    9900012    2    1    2    0    0  0.16697336997E+01 -0.37123206038E+02  0.16499867148E+02  0.50528855234E+02  0.29999985970E+02 0.  0.
        -12    1    1    2    0    0 -0.16697336997E+01  0.37123206038E+02 -0.16499867148E+02  0.40659144766E+02  0.00000000000E+00 0.  1.
         11    1    3    3    0    0  0.93170007489E+01 -0.56439527036E+01  0.86297642105E+01  0.13897249212E+02  0.51100000000E-03 0. -1.
        -11    1    3    3    0    0 -0.37466284961E+01 -0.33889927916E+00  0.31263047569E+01  0.48914066998E+01  0.51100000000E-03 0.  1.
         12    1    3    3    0    0 -0.39006385532E+01 -0.31140354056E+02  0.47437981803E+01  0.31740199322E+02  0.00000000000E+00 0. -1.
</event>
<event>
 7    1  0.5138511E-013  0.5052886E+02  0.7816164E-02  0.1300439E+00
        -11   -1    0    0    0    0  0.00000000000E+00  0.00000000000E+00  0.45593999997E+02  0.45594000000E+02  0.51100000000E-03 0. -1.
         11   -1    0    0    0    0 -0.00000000000E+00 -0.00000000000E+00 -0.45593999997E+02  0.45594000000E+02  0.51100000000E-03 0.  1.
    9900012    2    1    2    0    0  0.22729724060E+01  0.39833584384E+02  0.78284870275E+01  0.50528855179E+02  0.29999985801E+02 0.  0.
        -12    1    1    2    0    0 -0.22729724060E+01 -0.39833584384E+02 -0.78284870275E+01  0.40659144821E+02  0.00000000000E+00 0.  1.
         11    1    3    3    0    0  0.62965017029E+01  0.14212111306E+02  0.89745953673E+01  0.17949189501E+02  0.51100000000E-03 0. -1.
        -11    1    3    3    0    0  0.51174619578E+00 -0.25464970947E+01 -0.30249988285E+01  0.39871229974E+01  0.51100000000E-03 0.  1.
         12    1    3    3    0    0 -0.45352754927E+01  0.28167970173E+02  0.18788904887E+01  0.28592542680E+02  0.00000000000E+00 0. -1.
</event>
<event>
 7    1  0.5138511E-013  0.5052885E+02  0.7816164E-02  0.1300439E+00
        -11   -1    0    0    0    0  0.00000000000E+00  0.00000000000E+00  0.45593999997E+02  0.45594000000E+02  0.51100000000E-03 0.  1.
         11   -1    0    0    0    0 -0.00000000000E+00 -0.00000000000E+00 -0.45593999997E+02  0.45594000000E+02  0.51100000000E-03 0. -1.
    9900012    2    1    2    0    0  0.80970948416E+01 -0.35456970920E+02  0.18177084658E+02  0.50528854185E+02  0.29999982781E+02 0.  0.
        -12    1    1    2    0    0 -0.80970948416E+01  0.35456970920E+02 -0.18177084658E+02  0.40659145815E+02  0.00000000000E+00 0.  1.
         11    1    3    3    0    0 -0.29504637554E+01 -0.13463887029E+02  0.34723894151E+01  0.14214041607E+02  0.51100000000E-03 0. -1.
        -11    1    3    3    0    0 -0.31918572924E+01 -0.76928280628E+00 -0.36042868126E+01  0.48755135832E+01  0.51100000000E-03 0.  1.
         12    1    3    3    0    0  0.14239415889E+02 -0.21223801085E+02  0.18308982056E+02  0.31439298995E+02  0.00000000000E+00 0. -1.
</event>
<event>
 7    1  0.5138511E-013  0.5052886E+02  0.7816164E-02  0.1300439E+00
        -11   -1    0    0    0    0  0.00000000000E+00  0.00000000000E+00  0.45593999997E+02  0.45594000000E+02  0.51100000000E-03 0.  1.
         11   -1    0    0    0    0 -0.00000000000E+00 -0.00000000000E+00 -0.45593999997E+02  0.45594000000E+02  0.51100000000E-03 0. -1.
    9900012    2    1    2    0    0  0.18840593187E+01  0.28830422023E+02 -0.28608092599E+02  0.50528857416E+02  0.29999992601E+02 0.  0.
        -12    1    1    2    0    0 -0.18840593187E+01 -0.28830422023E+02  0.28608092599E+02  0.40659142584E+02  0.00000000000E+00 0.  1.
         11    1    3    3    0    0 -0.15947520825E+01  0.38021197739E+01  0.17402605851E+01  0.44752492830E+01  0.51100000000E-03 0. -1.
        -11    1    3    3    0    0  0.10767100156E+02  0.30481546049E+01 -0.12778656903E+02  0.16985751816E+02  0.51100000000E-03 0.  1.
         12    1    3    3    0    0 -0.72882887546E+01  0.21980147644E+02 -0.17569696281E+02  0.29067856317E+02  0.00000000000E+00 0. -1.
</event>
<event>
 7    1  0.5138511E-013  0.5052887E+02  0.7816164E-02  0.1300439E+00
        -11   -1    0    0    0    0  0.00000000000E+00  0.00000000000E+00  0.45593999997E+02  0.45594000000E+02  0.51100000000E-03 0. -1.
         11   -1    0    0    0    0 -0.00000000000E+00 -0.00000000000E+00 -0.45593999997E+02  0.45594000000E+02  0.51100000000E-03 0.  1.
    9900012    2    1    2    0    0  0.23268020929E+02 -0.32909842964E+02  0.53577954063E+01  0.50528873922E+02  0.30000042773E+02 0.  0.
        -12    1    1    2    0    0 -0.23268020929E+02  0.32909842964E+02 -0.53577954063E+01  0.40659126078E+02  0.00000000000E+00 0.  1.
         11    1    3    3    0    0  0.22202503388E+02 -0.25619200508E+02  0.16419445673E+01  0.33940986632E+02  0.51100000000E-03 0. -1.
        -11    1    3    3    0    0  0.54805595800E+01 -0.27424780870E+01  0.71189638381E+01  0.93934746371E+01  0.51100000000E-03 0.  1.
         12    1    3    3    0    0 -0.44150420391E+01 -0.45481643691E+01 -0.34031129992E+01  0.71944126529E+01  0.00000000000E+00 0. -1.
</event>
<event>
 7    1  0.5138511E-013  0.5052884E+02  0.7816164E-02  0.1300439E+00
        -11   -1    0    0    0    0  0.00000000000E+00  0.00000000000E+00  0.45593999997E+02  0.45594000000E+02  0.51100000000E-03 0.  1.
         11   -1    0    0    0    0 -0.00000000000E+00 -0.00000000000E+00 -0.45593999997E+02  0.45594000000E+02  0.51100000000E-03 0. -1.
    9900012    2    1    2    0    0 -0.34041277813E+02 -0.14686415448E+02 -0.16693352991E+02  0.50528838327E+02  0.29999934577E+02 0.  0.
        -12    1    1    2    0    0  0.34041277813E+02  0.14686415448E+02  0.16693352991E+02  0.40659161673E+02  0.00000000000E+00 0.  1.
         11    1    3    3    0    0 -0.41862399619E+01  0.36148547238E+01 -0.23742047398E+00  0.55360769897E+01  0.51100000000E-03 0. -1.
        -11    1    3    3    0    0 -0.13716300308E+02 -0.61626594650E+01  0.46915606901E+01  0.15752015992E+02  0.51100000000E-03 0.  1.
         12    1    3    3    0    0 -0.16138737543E+02 -0.12138610707E+02 -0.21147493208E+02  0.29240745345E+02  0.00000000000E+00 0. -1.
</event>
<event>
 7    1  0.5138511E-013  0.5052886E+02  0.7816164E-02  0.1300439E+00
        -11   -1    0    0    0    0  0.00000000000E+00  0.00000000000E+00  0.45593999997E+02  0.45594000000E+02  0.51100000000E-03 0.  1.
         11   -1    0    0    0    0 -0.00000000000E+00 -0.00000000000E+00 -0.45593999997E+02  0.45594000000E+02  0.51100000000E-03 0. -1.
    9900012    2    1    2    0    0  0.97906474908E+01  0.24248415959E+02 -0.31133960117E+02  0.50528856780E+02  0.29999990669E+02 0.  0.
        -12    1    1    2    0    0 -0.97906474908E+01 -0.24248415959E+02  0.31133960117E+02  0.40659143220E+02  0.00000000000E+00 0.  1.
         11    1    3    3    0    0  0.62474482695E+00  0.92512142463E+01 -0.83176429191E+01  0.12456261683E+02  0.51100000000E-03 0. -1.
        -11    1    3    3    0    0  0.13518600469E+02  0.10713759191E+02 -0.25987732223E+02  0.31191335672E+02  0.51100000000E-03 0.  1.
        -12    1    3    3    0    0 -0.43526978050E+01  0.42834425215E+01  0.31714150248E+01  0.68812594251E+01  0.00000000000E+00 0.  1.
</event>
<event>
 7    1  0.5138511E-013  0.5052885E+02  0.7816164E-02  0.1300439E+00
        -11   -1    0    0    0    0  0.00000000000E+00  0.00000000000E+00  0.45593999997E+02  0.45594000000E+02  0.51100000000E-03 0.  1.
         11   -1    0    0    0    0 -0.00000000000E+00 -0.00000000000E+00 -0.45593999997E+02  0.45594000000E+02  0.51100000000E-03 0. -1.
    9900012    2    1    2    0    0  0.19426984034E+02  0.12142745566E+02 -0.33590365410E+02  0.50528848178E+02  0.29999964521E+02 0.  0.
        -12    1    1    2    0    0 -0.19426984034E+02 -0.12142745566E+02  0.33590365410E+02  0.40659151822E+02  0.00000000000E+00 0.  1.
         11    1    3    3    0    0  0.74318564529E+01  0.12642688701E+02 -0.17128371812E+02  0.22548862258E+02  0.51100000000E-03 0. -1.
        -11    1    3    3    0    0  0.52894849780E+01 -0.10211836351E+00 -0.19788865917E+02  0.20483854472E+02  0.51100000000E-03 0.  1.
        -12    1    3    3    0    0  0.67056426031E+01 -0.39782477081E+00  0.33268723187E+01  0.74961314485E+01  0.00000000000E+00 0.  1.
</event>
<event>
 7    1  0.5138511E-013  0.5052886E+02  0.7816164E-02  0.1300439E+00
        -11   -1    0    0    0    0  0.00000000000E+00  0.00000000000E+00  0.45593999997E+02  0.45594000000E+02  0.51100000000E-03 0.  1.
         11   -1    0    0    0    0 -0.00000000000E+00 -0.00000000000E+00 -0.45593999997E+02  0.45594000000E+02  0.51100000000E-03 0. -1.
    9900012    2    1    2    0    0 -0.57941161760E+01  0.32743135850E+02  0.23398315729E+02  0.50528857037E+02  0.29999991450E+02 0.  0.
        -12    1    1    2    0    0  0.57941161760E+01 -0.32743135850E+02 -0.23398315729E+02  0.40659142963E+02  0.00000000000E+00 0.  1.
         11    1    3    3    0    0  0.14024213076E+01  0.27711168882E+02  0.18257234355E+02  0.33214488901E+02  0.51100000000E-03 0. -1.
        -11    1    3    3    0    0 -0.43733286428E+01  0.71459352556E+01  0.88566372331E+01  0.12191407525E+02  0.51100000000E-03 0.  1.
         12    1    3    3    0    0 -0.28232088408E+01 -0.21139682883E+01 -0.37155558596E+01  0.51229606116E+01  0.00000000000E+00 0. -1.
</event>
<event>
 7    1  0.5138511E-013  0.5052886E+02  0.7816164E-02  0.1300439E+00
        -11   -1    0    0    0    0  0.00000000000E+00  0.00000000000E+00  0.45593999997E+02  0.45594000000E+02  0.51100000000E-03 0.  1.
         11   -1    0    0    0    0 -0.00000000000E+00 -0.00000000000E+00 -0.45593999997E+02  0.45594000000E+02  0.51100000000E-03 0. -1.
    9900012    2    1    2    0    0  0.40516419074E+02 -0.29461105273E+01 -0.17046069332E+01  0.50528862446E+02  0.30000007890E+02 0.  0.
        -12    1    1    2    0    0 -0.40516419074E+02  0.29461105273E+01  0.17046069332E+01  0.40659137554E+02  0.00000000000E+00 0.  1.
         11    1    3    3    0    0  0.13761499905E+02  0.38731775954E+01  0.26732457594E+01  0.14543955015E+02  0.51100000000E-03 0. -1.
        -11    1    3    3    0    0 -0.32084921717E+01  0.27051458756E+01  0.25609168058E+00  0.42044999030E+01  0.51100000000E-03 0.  1.
        -12    1    3    3    0    0  0.29963411341E+02 -0.95244339984E+01 -0.46339443732E+01  0.31780407528E+02  0.00000000000E+00 0.  1.
</event>
<event>
 7    1  0.5138511E-013  0.5052887E+02  0.7816164E-02  0.1300439E+00
        -11   -1    0    0    0    0  0.00000000000E+00  0.00000000000E+00  0.45593999997E+02  0.45594000000E+02  0.51100000000E-03 0. -1.
         11   -1    0    0    0    0 -0.00000000000E+00 -0.00000000000E+00 -0.45593999997E+02  0.45594000000E+02  0.51100000000E-03 0.  1.
    9900012    2    1    2    0    0 -0.21407798900E+02 -0.24621272789E+02  0.24262405722E+02  0.50528865000E+02  0.30000015655E+02 0.  0.
        -12    1    1    2    0    0  0.21407798900E+02  0.24621272789E+02 -0.24262405722E+02  0.40659135000E+02  0.00000000000E+00 0.  1.
         11    1    3    3    0    0  0.10601862420E+01 -0.14411596444E+02  0.57382638084E+01  0.15548176058E+02  0.51100000000E-03 0. -1.
        -11    1    3    3    0    0 -0.81819670653E+01 -0.88094674749E+01  0.62851684129E+00  0.12039366093E+02  0.51100000000E-03 0.  1.
        -12    1    3    3    0    0 -0.14286018077E+02 -0.14002088707E+01  0.17895625072E+02  0.22941322849E+02  0.00000000000E+00 0.  1.
</event>
<event>
 7    1  0.5138511E-013  0.5052887E+02  0.7816164E-02  0.1300439E+00
        -11   -1    0    0    0    0  0.00000000000E+00  0.00000000000E+00  0.45593999997E+02  0.45594000000E+02  0.51100000000E-03 0.  1.
         11   -1    0    0    0    0 -0.00000000000E+00 -0.00000000000E+00 -0.45593999997E+02  0.45594000000E+02  0.51100000000E-03 0. -1.
    9900012    2    1    2    0    0 -0.21239306673E+01  0.26656139390E+01 -0.40516021492E+02  0.50528873390E+02  0.30000041155E+02 0.  0.
        -12    1    1    2    0    0  0.21239306673E+01 -0.26656139390E+01  0.40516021492E+02  0.40659126610E+02  0.00000000000E+00 0.  1.
         11    1    3    3    0    0  0.58484840815E+01  0.72055314019E+01 -0.24385565818E+02  0.26091766314E+02  0.51100000000E-03 0. -1.
        -11    1    3    3    0    0  0.16380193673E+01 -0.30583037681E+01  0.18971549619E+01  0.39541783718E+01  0.51100000000E-03 0.  1.
        -12    1    3    3    0    0 -0.96104341162E+01 -0.14816136949E+01 -0.18027610636E+02  0.20482928704E+02  0.00000000000E+00 0.  1.
</event>
<event>
 7    1  0.5138511E-013  0.5052886E+02  0.7816164E-02  0.1300439E+00
        -11   -1    0    0    0    0  0.00000000000E+00  0.00000000000E+00  0.45593999997E+02  0.45594000000E+02  0.51100000000E-03 0.  1.
         11   -1    0    0    0    0 -0.00000000000E+00 -0.00000000000E+00 -0.45593999997E+02  0.45594000000E+02  0.51100000000E-03 0. -1.
    9900012    2    1    2    0    0 -0.20959789648E+02 -0.20747356688E+02 -0.27989281320E+02  0.50528862523E+02  0.30000008124E+02 0.  0.
        -12    1    1    2    0    0  0.20959789648E+02  0.20747356688E+02  0.27989281320E+02  0.40659137477E+02  0.00000000000E+00 0.  1.
         11    1    3    3    0    0 -0.14094219957E+02 -0.10229586512E+02 -0.17964569412E+01  0.17507676436E+02  0.51100000000E-03 0. -1.
        -11    1    3    3    0    0 -0.31881741772E+01  0.33673949466E+01 -0.23817196760E+01  0.52130981371E+01  0.51100000000E-03 0.  1.
         12    1    3    3    0    0 -0.36773955138E+01 -0.13885165122E+02 -0.23811104702E+02  0.27808087949E+02  0.00000000000E+00 0. -1.
</event>
<event>
 7    1  0.7024381E-013  0.5052890E+02  0.7816164E-02  0.1300439E+00
        -11   -1    0    0    0    0  0.00000000000E+00  0.00000000000E+00  0.45593999997E+02  0.45594000000E+02  0.51100000000E-03 0. -1.
         11   -1    0    0    0    0 -0.00000000000E+00 -0.00000000000E+00 -0.45593999997E+02  0.45594000000E+02  0.51100000000E-03 0.  1.
    9900012    2    1    2    0    0  0.28117259645E+02 -0.10135221537E+02  0.27565541322E+02  0.50528904167E+02  0.30000134707E+02 0.  0.
        -12    1    1    2    0    0 -0.28117259645E+02  0.10135221537E+02 -0.27565541322E+02  0.40659095833E+02  0.00000000000E+00 0.  1.
         11    1    3    3    0    0  0.18537626968E+02 -0.14889632551E+02  0.20106690574E+02  0.31138782526E+02  0.51100000000E-03 0. -1.
        -11    1    3    3    0    0  0.44494055535E+01  0.29066814923E+00  0.10894172860E+02  0.11771350828E+02  0.51100000000E-03 0.  1.
        -12    1    3    3    0    0  0.51302271238E+01  0.44637428646E+01 -0.34353221113E+01  0.76187708137E+01  0.00000000000E+00 0.  1.
</event>
<event>
 7    1  0.5138511E-013  0.5052886E+02  0.7816164E-02  0.1300439E+00
        -11   -1    0    0    0    0  0.00000000000E+00  0.00000000000E+00  0.45593999997E+02  0.45594000000E+02  0.51100000000E-03 0.  1.
         11   -1    0    0    0    0 -0.00000000000E+00 -0.00000000000E+00 -0.45593999997E+02  0.45594000000E+02  0.51100000000E-03 0. -1.
    9900012    2    1    2    0    0  0.25717121453E+02 -0.31375346203E+02  0.27171260320E+01  0.50528862540E+02  0.30000008175E+02 0.  0.
        -12    1    1    2    0    0 -0.25717121453E+02  0.31375346203E+02 -0.27171260320E+01  0.40659137460E+02  0.00000000000E+00 0.  1.
         11    1    3    3    0    0  0.15279604960E+02 -0.49991866032E+01 -0.68986416936E+01  0.17494269116E+02  0.51100000000E-03 0. -1.
        -11    1    3    3    0    0  0.12542255236E+02 -0.15178709988E+02  0.31687019632E+01  0.19943472007E+02  0.51100000000E-03 0.  1.
        -12    1    3    3    0    0 -0.21047387438E+01 -0.11197449612E+02  0.64470657625E+01  0.13091121416E+02  0.00000000000E+00 0.  1.
</event>
<event>
 7    1  0.5138511E-013  0.5052885E+02  0.7816164E-02  0.1300439E+00
        -11   -1    0    0    0    0  0.00000000000E+00  0.00000000000E+00  0.45593999997E+02  0.45594000000E+02  0.51100000000E-03 0.  1.
         11   -1    0    0    0    0 -0.00000000000E+00 -0.00000000000E+00 -0.45593999997E+02  0.45594000000E+02  0.51100000000E-03 0. -1.
    9900012    2    1    2    0    0  0.11746137582E+02 -0.91680162886E+01 -0.37830437144E+02  0.50528852871E+02  0.29999978786E+02 0.  0.
        -12    1    1    2    0    0 -0.11746137582E+02  0.91680162886E+01  0.37830437144E+02  0.40659147129E+02  0.00000000000E+00 0.  1.
         11    1    3    3    0    0 -0.24486380843E+01  0.80930476450E+01 -0.16784263064E+02  0.18793741924E+02  0.51100000000E-03 0. -1.
        -11    1    3    3    0    0  0.54155111189E+01 -0.46835694568E+01 -0.23144329564E+01  0.75246384435E+01  0.51100000000E-03 0.  1.
        -12    1    3    3    0    0  0.87792645476E+01 -0.12577494477E+02 -0.18731741124E+02  0.24210472503E+02  0.00000000000E+00 0.  1.
</event>
<event>
 7    1  0.5138511E-013  0.5052886E+02  0.7816164E-02  0.1300439E+00
        -11   -1    0    0    0    0  0.00000000000E+00  0.00000000000E+00  0.45593999997E+02  0.45594000000E+02  0.51100000000E-03 0.  1.
         11   -1    0    0    0    0 -0.00000000000E+00 -0.00000000000E+00 -0.45593999997E+02  0.45594000000E+02  0.51100000000E-03 0. -1.
    9900012    2    1    2    0    0 -0.71500574910E+00  0.28468930751E+02  0.29020241365E+02  0.50528860066E+02  0.30000000656E+02 0.  0.
        -12    1    1    2    0    0  0.71500574910E+00 -0.28468930751E+02 -0.29020241365E+02  0.40659139934E+02  0.00000000000E+00 0.  1.
         11    1    3    3    0    0 -0.10820825302E+02  0.92957740866E+01  0.64444826267E+01  0.15653530997E+02  0.51100000000E-03 0. -1.
        -11    1    3    3    0    0  0.23292111397E+01  0.12257961693E+01  0.12688537254E+02  0.12958656515E+02  0.51100000000E-03 0.  1.
         12    1    3    3    0    0  0.77766084131E+01  0.17947360495E+02  0.98872214847E+01  0.21916672554E+02  0.00000000000E+00 0. -1.
</event>
<event>
 7    1  0.5138511E-013  0.5052888E+02  0.7816164E-02  0.1300439E+00
        -11   -1    0    0    0    0  0.00000000000E+00  0.00000000000E+00  0.45593999997E+02  0.45594000000E+02  0.51100000000E-03 0.  1.
         11   -1    0    0    0    0 -0.00000000000E+00 -0.00000000000E+00 -0.45593999997E+02  0.45594000000E+02  0.51100000000E-03 0. -1.
    9900012    2    1    2    0    0  0.38044528915E+01  0.21526966398E+02 -0.34282356376E+02  0.50528879218E+02  0.30000058870E+02 0.  0.
        -12    1    1    2    0    0 -0.38044528915E+01 -0.21526966398E+02  0.34282356376E+02  0.40659120782E+02  0.00000000000E+00 0.  1.
         11    1    3    3    0    0  0.80482470033E+01  0.22546596997E+02 -0.18206341047E+02  0.30076472043E+02  0.51100000000E-03 0. -1.
        -11    1    3    3    0    0 -0.27221263349E+01  0.33109383436E+01 -0.62208011126E+00  0.43311971122E+01  0.51100000000E-03 0.  1.
        -12    1    3    3    0    0 -0.15216677769E+01 -0.43305689423E+01 -0.15453935217E+02  0.16121210063E+02  0.00000000000E+00 0.  1.
</event>
<event>
 7    1  0.5138511E-013  0.5052886E+02  0.7816164E-02  0.1300439E+00
        -11   -1    0    0    0    0  0.00000000000E+00  0.00000000000E+00  0.45593999997E+02  0.45594000000E+02  0.51100000000E-03 0.  1.
         11   -1    0    0    0    0 -0.00000000000E+00 -0.00000000000E+00 -0.45593999997E+02  0.45594000000E+02  0.51100000000E-03 0. -1.
    9900012    2    1    2    0    0  0.20562874934E+01  0.22721372025E+02 -0.33655259948E+02  0.50528860964E+02  0.30000003387E+02 0.  0.
        -12    1    1    2    0    0 -0.20562874934E+01 -0.22721372025E+02  0.33655259948E+02  0.40659139036E+02  0.00000000000E+00 0.  1.
         11    1    3    3    0    0 -0.57237292303E+01  0.19199614667E+01 -0.73740167075E+01  0.95301338395E+01  0.51100000000E-03 0. -1.
        -11    1    3    3    0    0  0.60033338847E+01 -0.22388504731E+01 -0.12621718674E+02  0.14154866715E+02  0.51100000000E-03 0.  1.
        -12    1    3    3    0    0  0.17766828389E+01  0.23040261031E+02 -0.13659524567E+02  0.26843860410E+02  0.00000000000E+00 0.  1.
</event>
<event>
 7    1  0.5138511E-013  0.5052887E+02  0.7816164E-02  0.1300439E+00
        -11   -1    0    0    0    0  0.00000000000E+00  0.00000000000E+00  0.45593999997E+02  0.45594000000E+02  0.51100000000E-03 0.  1.
         11   -1    0    0    0    0 -0.00000000000E+00 -0.00000000000E+00 -0.45593999997E+02  0.45594000000E+02  0.51100000000E-03 0. -1.
    9900012    2    1    2    0    0  0.32031269726E+02 -0.10449645288E+02 -0.22758892755E+02  0.50528874009E+02  0.30000043037E+02 0.  0.
        -12    1    1    2    0    0 -0.32031269726E+02  0.10449645288E+02  0.22758892755E+02  0.40659125991E+02  0.00000000000E+00 0.  1.
         11    1    3    3    0    0  0.10635101733E+02  0.62544851855E+01 -0.17767088616E+01  0.12465178235E+02  0.51100000000E-03 0. -1.
        -11    1    3    3    0    0 -0.21744486951E+01  0.37089523939E+00 -0.34215083320E+01  0.40709347739E+01  0.51100000000E-03 0.  1.
         12    1    3    3    0    0  0.23570616688E+02 -0.17075025713E+02 -0.17560675562E+02  0.33992761000E+02  0.00000000000E+00 0. -1.
</event>
<event>
 7    1  0.5138511E-013  0.5052885E+02  0.7816164E-02  0.1300439E+00
        -11   -1    0    0    0    0  0.00000000000E+00  0.00000000000E+00  0.45593999997E+02  0.45594000000E+02  0.51100000000E-03 0. -1.
         11   -1    0    0    0    0 -0.00000000000E+00 -0.00000000000E+00 -0.45593999997E+02  0.45594000000E+02  0.51100000000E-03 0.  1.
    9900012    2    1    2    0    0 -0.24099898657E+02  0.28048800293E+02  0.16900466579E+02  0.50528854858E+02  0.29999984825E+02 0.  0.
        -12    1    1    2    0    0  0.24099898657E+02 -0.28048800293E+02 -0.16900466579E+02  0.40659145142E+02  0.00000000000E+00 0.  1.
         11    1    3    3    0    0  0.40804126224E+01 -0.17870228764E+01  0.96928187200E+00  0.45588074689E+01  0.51100000000E-03 0. -1.
        -11    1    3    3    0    0 -0.24646548521E+01  0.92020730463E+01  0.42647518338E+00  0.95359610545E+01  0.51100000000E-03 0.  1.
         12    1    3    3    0    0 -0.25715656427E+02  0.20633750123E+02  0.15504709523E+02  0.36434086334E+02  0.00000000000E+00 0. -1.
</event>
<event>
 7    1  0.5138511E-013  0.5052886E+02  0.7816164E-02  0.1300439E+00
        -11   -1    0    0    0    0  0.00000000000E+00  0.00000000000E+00  0.45593999997E+02  0.45594000000E+02  0.51100000000E-03 0.  1.
         11   -1    0    0    0    0 -0.00000000000E+00 -0.00000000000E+00 -0.45593999997E+02  0.45594000000E+02  0.51100000000E-03 0. -1.
    9900012    2    1    2    0    0 -0.38615690228E+02  0.53965331969E+01 -0.11526980494E+02  0.50528863491E+02  0.30000011068E+02 0.  0.
        -12    1    1    2    0    0  0.38615690228E+02 -0.53965331969E+01  0.11526980494E+02  0.40659136509E+02  0.00000000000E+00 0.  1.
         11    1    3    3    0    0 -0.13435374720E+01 -0.18615571283E+01 -0.76534117985E+01  0.79903191613E+01  0.51100000000E-03 0. -1.
        -11    1    3    3    0    0 -0.89970650879E+01  0.10473747705E+02 -0.26181241875E+01  0.14053510085E+02  0.51100000000E-03 0.  1.
         12    1    3    3    0    0 -0.28275087668E+02 -0.32156573797E+01 -0.12554445077E+01  0.28485034245E+02  0.00000000000E+00 0. -1.
</event>
<event>
 7    1  0.5138511E-013  0.5052876E+02  0.7816164E-02  0.1300439E+00
        -11   -1    0    0    0    0  0.00000000000E+00  0.00000000000E+00  0.45593999997E+02  0.45594000000E+02  0.51100000000E-03 0.  1.
         11   -1    0    0    0    0 -0.00000000000E+00 -0.00000000000E+00 -0.45593999997E+02  0.45594000000E+02  0.51100000000E-03 0. -1.
    9900012    2    1    2    0    0  0.15044841803E+02  0.34688676862E+02 -0.14950651533E+02  0.50528763059E+02  0.29999705793E+02 0.  0.
        -12    1    1    2    0    0 -0.15044841803E+02 -0.34688676862E+02  0.14950651533E+02  0.40659236941E+02  0.00000000000E+00 0.  1.
         11    1    3    3    0    0  0.80879059090E+01  0.93328946238E+01 -0.13338193654E+01  0.12421602892E+02  0.51100000000E-03 0. -1.
        -11    1    3    3    0    0  0.24623744114E+01  0.45775678956E+01  0.68490326333E+01  0.85980616335E+01  0.51100000000E-03 0.  1.
         12    1    3    3    0    0  0.44945614826E+01  0.20778214343E+02 -0.20465864801E+02  0.29509098533E+02  0.00000000000E+00 0. -1.
</event>
<event>
 7    1  0.5138511E-013  0.5052886E+02  0.7816164E-02  0.1300439E+00
        -11   -1    0    0    0    0  0.00000000000E+00  0.00000000000E+00  0.45593999997E+02  0.45594000000E+02  0.51100000000E-03 0.  1.
         11   -1    0    0    0    0 -0.00000000000E+00 -0.00000000000E+00 -0.45593999997E+02  0.45594000000E+02  0.51100000000E-03 0. -1.
    9900012    2    1    2    0    0 -0.24461768633E+02  0.32449613132E+02 -0.13454160188E+01  0.50528860052E+02  0.30000000615E+02 0.  0.
        -12    1    1    2    0    0  0.24461768633E+02 -0.32449613132E+02  0.13454160188E+01  0.40659139948E+02  0.00000000000E+00 0.  1.
         11    1    3    3    0    0 -0.80510411840E+01 -0.21460462092E+01 -0.10888733808E+01  0.84030008913E+01  0.51100000000E-03 0. -1.
        -11    1    3    3    0    0 -0.40144491245E+01  0.18048630437E+02 -0.78677129171E+01  0.20094023221E+02  0.51100000000E-03 0.  1.
         12    1    3    3    0    0 -0.12396278324E+02  0.16547028904E+02  0.76111702791E+01  0.22031835939E+02  0.00000000000E+00 0. -1.
</event>
<event>
 7    1  0.5138511E-013  0.5052886E+02  0.7816164E-02  0.1300439E+00
        -11   -1    0    0    0    0  0.00000000000E+00  0.00000000000E+00  0.45593999997E+02  0.45594000000E+02  0.51100000000E-03 0.  1.
         11   -1    0    0    0    0 -0.00000000000E+00 -0.00000000000E+00 -0.45593999997E+02  0.45594000000E+02  0.51100000000E-03 0. -1.
    9900012    2    1    2    0    0 -0.32064015807E+01  0.13199918517E+02 -0.38322928186E+02  0.50528859765E+02  0.29999999741E+02 0.  0.
        -12    1    1    2    0    0  0.32064015807E+01 -0.13199918517E+02  0.38322928186E+02  0.40659140235E+02  0.00000000000E+00 0.  1.
         11    1    3    3    0    0  0.44404283366E+01  0.51556191487E+01 -0.77011986717E+01  0.10276491321E+02  0.51100000000E-03 0.  1.
        -11    1    3    3    0    0 -0.13685813171E+02  0.28556911258E+01 -0.28903622584E+02  0.32107255453E+02  0.51100000000E-03 0. -1.
         12    1    3    3    0    0  0.60389832534E+01  0.51886082421E+01 -0.17181069299E+01  0.81451129916E+01  0.00000000000E+00 0. -1.
</event>
<event>
 7    1  0.5138511E-013  0.5052884E+02  0.7816164E-02  0.1300439E+00
        -11   -1    0    0    0    0  0.00000000000E+00  0.00000000000E+00  0.45593999997E+02  0.45594000000E+02  0.51100000000E-03 0. -1.
         11   -1    0    0    0    0 -0.00000000000E+00 -0.00000000000E+00 -0.45593999997E+02  0.45594000000E+02  0.51100000000E-03 0.  1.
    9900012    2    1    2    0    0  0.19255147187E+02  0.35324530919E+02  0.58807930796E+01  0.50528844757E+02  0.29999954124E+02 0.  0.
        -12    1    1    2    0    0 -0.19255147187E+02 -0.35324530919E+02 -0.58807930796E+01  0.40659155243E+02  0.00000000000E+00 0.  1.
         11    1    3    3    0    0  0.60243047837E+01  0.17614925314E+02 -0.57328520126E+01  0.19479307853E+02  0.51100000000E-03 0. -1.
        -11    1    3    3    0    0 -0.23051745033E+01 -0.14171600610E+01 -0.15437756761E+01  0.31153516219E+01  0.51100000000E-03 0.  1.
         12    1    3    3    0    0  0.15536016906E+02  0.19126765666E+02  0.13157420768E+02  0.27934185283E+02  0.00000000000E+00 0. -1.
</event>
<event>
 7    1  0.5138511E-013  0.5052891E+02  0.7816164E-02  0.1300439E+00
        -11   -1    0    0    0    0  0.00000000000E+00  0.00000000000E+00  0.45593999997E+02  0.45594000000E+02  0.51100000000E-03 0.  1.
         11   -1    0    0    0    0 -0.00000000000E+00 -0.00000000000E+00 -0.45593999997E+02  0.45594000000E+02  0.51100000000E-03 0. -1.
    9900012    2    1    2    0    0  0.32555050359E+02  0.15922073618E+02 -0.18434148640E+02  0.50528910385E+02  0.30000153607E+02 0.  0.
        -12    1    1    2    0    0 -0.32555050359E+02 -0.15922073618E+02  0.18434148640E+02  0.40659089615E+02  0.00000000000E+00 0.  1.
         11    1    3    3    0    0  0.11296221826E+02  0.47625206621E+01 -0.52822412793E+01  0.13348719182E+02  0.51100000000E-03 0. -1.
        -11    1    3    3    0    0  0.58223198778E+01  0.19248515838E+01 -0.17610754997E+02  0.18647872646E+02  0.51100000000E-03 0.  1.
        -12    1    3    3    0    0  0.15436508656E+02  0.92347013716E+01  0.44588476359E+01  0.18532318558E+02  0.00000000000E+00 0.  1.
</event>
<event>
 7    1  0.5138511E-013  0.5052887E+02  0.7816164E-02  0.1300439E+00
        -11   -1    0    0    0    0  0.00000000000E+00  0.00000000000E+00  0.45593999997E+02  0.45594000000E+02  0.51100000000E-03 0. -1.
         11   -1    0    0    0    0 -0.00000000000E+00 -0.00000000000E+00 -0.45593999997E+02  0.45594000000E+02  0.51100000000E-03 0.  1.
    9900012    2    1    2    0    0 -0.22009457176E+02 -0.32342331072E+02  0.11077995968E+02  0.50528873361E+02  0.30000041069E+02 0.  0.
        -12    1    1    2    0    0  0.22009457176E+02  0.32342331072E+02 -0.11077995968E+02  0.40659126639E+02  0.00000000000E+00 0.  1.
         11    1    3    3    0    0 -0.41840267698E+01 -0.14243279855E+02  0.29821833925E+01  0.15141681514E+02  0.51100000000E-03 0. -1.
        -11    1    3    3    0    0 -0.32116147660E+00 -0.85033732856E+01 -0.64585223822E+01  0.10682837336E+02  0.51100000000E-03 0.  1.
         12    1    3    3    0    0 -0.17504268930E+02 -0.95956779319E+01  0.14554334958E+02  0.24704354511E+02  0.00000000000E+00 0. -1.
</event>
<event>
 7    1  0.5138511E-013  0.5052887E+02  0.7816164E-02  0.1300439E+00
        -11   -1    0    0    0    0  0.00000000000E+00  0.00000000000E+00  0.45593999997E+02  0.45594000000E+02  0.51100000000E-03 0.  1.
         11   -1    0    0    0    0 -0.00000000000E+00 -0.00000000000E+00 -0.45593999997E+02  0.45594000000E+02  0.51100000000E-03 0. -1.
    9900012    2    1    2    0    0  0.22974393667E+02  0.24862460713E+02 -0.22521098485E+02  0.50528873177E+02  0.30000040509E+02 0.  0.
        -12    1    1    2    0    0 -0.22974393667E+02 -0.24862460713E+02  0.22521098485E+02  0.40659126823E+02  0.00000000000E+00 0.  1.
         11    1    3    3    0    0  0.13099374047E+02  0.69319251576E+01 -0.48630015752E+01  0.15597883555E+02  0.51100000000E-03 0. -1.
        -11    1    3    3    0    0  0.16399252719E+02  0.10214916881E+02 -0.78658324916E+01  0.20860281342E+02  0.51100000000E-03 0.  1.
        -12    1    3    3    0    0 -0.65242330995E+01  0.77156186740E+01 -0.97922644179E+01  0.14070708280E+02  0.00000000000E+00 0.  1.
</event>
<event>
 7    1  0.5138511E-013  0.5052885E+02  0.7816164E-02  0.1300439E+00
        -11   -1    0    0    0    0  0.00000000000E+00  0.00000000000E+00  0.45593999997E+02  0.45594000000E+02  0.51100000000E-03 0.  1.
         11   -1    0    0    0    0 -0.00000000000E+00 -0.00000000000E+00 -0.45593999997E+02  0.45594000000E+02  0.51100000000E-03 0. -1.
    9900012    2    1    2    0    0 -0.18696599993E+02  0.83010768623E+01 -0.35138241448E+02  0.50528846782E+02  0.29999960278E+02 0.  0.
        -12    1    1    2    0    0  0.18696599993E+02 -0.83010768623E+01  0.35138241448E+02  0.40659153218E+02  0.00000000000E+00 0.  1.
         11    1    3    3    0    0 -0.24407865001E+01 -0.72340886823E+01 -0.15910628146E+02  0.17647593776E+02  0.51100000000E-03 0. -1.
        -11    1    3    3    0    0 -0.68385925984E+01  0.35012838575E+01  0.76157604591E+00  0.77204491911E+01  0.51100000000E-03 0.  1.
        -12    1    3    3    0    0 -0.94172208949E+01  0.12033881687E+02 -0.19989189347E+02  0.25160803815E+02  0.00000000000E+00 0.  1.
</event>
<event>
 7    1  0.5138511E-013  0.5052885E+02  0.7816164E-02  0.1300439E+00
        -11   -1    0    0    0    0  0.00000000000E+00  0.00000000000E+00  0.45593999997E+02  0.45594000000E+02  0.51100000000E-03 0. -1.
         11   -1    0    0    0    0 -0.00000000000E+00 -0.00000000000E+00 -0.45593999997E+02  0.45594000000E+02  0.51100000000E-03 0.  1.
    9900012    2    1    2    0    0  0.51424062789E+01  0.57093865918E+01  0.39926498596E+02  0.50528846938E+02  0.29999960752E+02 0.  0.
        -12    1    1    2    0    0 -0.51424062789E+01 -0.57093865918E+01 -0.39926498596E+02  0.40659153062E+02  0.00000000000E+00 0.  1.
         11    1    3    3    0    0  0.83385754208E+01  0.37928266076E+01  0.68875609075E+01  0.11461058818E+02  0.51100000000E-03 0. -1.
        -11    1    3    3    0    0 -0.30590946004E+01 -0.70808873394E+01  0.40452810197E+01  0.87098406459E+01  0.51100000000E-03 0.  1.
         12    1    3    3    0    0 -0.13707454148E+00  0.89974473236E+01  0.28993656669E+02  0.30357947474E+02  0.00000000000E+00 0. -1.
</event>
<event>
 7    1  0.5138511E-013  0.5052886E+02  0.7816164E-02  0.1300439E+00
        -11   -1    0    0    0    0  0.00000000000E+00  0.00000000000E+00  0.45593999997E+02  0.45594000000E+02  0.51100000000E-03 0. -1.
         11   -1    0    0    0    0 -0.00000000000E+00 -0.00000000000E+00 -0.45593999997E+02  0.45594000000E+02  0.51100000000E-03 0.  1.
    9900012    2    1    2    0    0 -0.60874819233E+01 -0.38360054267E+02  0.12025582216E+02  0.50528858012E+02  0.29999994414E+02 0.  0.
        -12    1    1    2    0    0  0.60874819233E+01  0.38360054267E+02 -0.12025582216E+02  0.40659141988E+02  0.00000000000E+00 0.  1.
         11    1    3    3    0    0  0.70107307540E+00  0.13733262263E+01  0.41534315384E+01  0.44304088058E+01  0.51100000000E-03 0. -1.
        -11    1    3    3    0    0 -0.58552494805E+01 -0.18958543062E+02 -0.64314715445E+01  0.20858430621E+02  0.51100000000E-03 0.  1.
         12    1    3    3    0    0 -0.93330551819E+00 -0.20774837432E+02  0.14303622222E+02  0.25240018585E+02  0.00000000000E+00 0. -1.
</event>
<event>
 7    1  0.5138511E-013  0.5052885E+02  0.7816164E-02  0.1300439E+00
        -11   -1    0    0    0    0  0.00000000000E+00  0.00000000000E+00  0.45593999997E+02  0.45594000000E+02  0.51100000000E-03 0.  1.
         11   -1    0    0    0    0 -0.00000000000E+00 -0.00000000000E+00 -0.45593999997E+02  0.45594000000E+02  0.51100000000E-03 0. -1.
    9900012    2    1    2    0    0 -0.39606554727E+01  0.80792370567E+01 -0.39651051062E+02  0.50528847113E+02  0.29999961284E+02 0.  0.
        -12    1    1    2    0    0  0.39606554727E+01 -0.80792370567E+01  0.39651051062E+02  0.40659152887E+02  0.00000000000E+00 0.  1.
         11    1    3    3    0    0  0.57545596198E+01  0.22958915122E+01 -0.24596151943E+02  0.25364478408E+02  0.51100000000E-03 0. -1.
        -11    1    3    3    0    0 -0.67529877988E+01 -0.30038974585E+01 -0.14000359672E+02  0.15831497572E+02  0.51100000000E-03 0.  1.
         12    1    3    3    0    0 -0.29622272936E+01  0.87872430030E+01 -0.10545394461E+01  0.93328711325E+01  0.00000000000E+00 0. -1.
</event>
<event>
 7    1  0.5138511E-013  0.5052886E+02  0.7816164E-02  0.1300439E+00
        -11   -1    0    0    0    0  0.00000000000E+00  0.00000000000E+00  0.45593999997E+02  0.45594000000E+02  0.51100000000E-03 0. -1.
         11   -1    0    0    0    0 -0.00000000000E+00 -0.00000000000E+00 -0.45593999997E+02  0.45594000000E+02  0.51100000000E-03 0.  1.
    9900012    2    1    2    0    0 -0.22063047087E+02 -0.30964426039E+02  0.14408062277E+02  0.50528856068E+02  0.29999988504E+02 0.  0.
        -12    1    1    2    0    0  0.22063047087E+02  0.30964426039E+02 -0.14408062277E+02  0.40659143932E+02  0.00000000000E+00 0.  1.
         11    1    3    3    0    0 -0.79925126071E+01 -0.14669677801E+02 -0.52969153121E+00  0.16714074247E+02  0.51100000000E-03 0. -1.
        -11    1    3    3    0    0 -0.55100254274E+01  0.26031384770E+01 -0.26225440364E+01  0.66343385221E+01  0.51100000000E-03 0.  1.
        -12    1    3    3    0    0 -0.85605090529E+01 -0.18897886715E+02  0.17560297844E+02  0.27180443299E+02  0.00000000000E+00 0.  1.
</event>
<event>
 7    1  0.5138511E-013  0.5052885E+02  0.7816164E-02  0.1300439E+00
        -11   -1    0    0    0    0  0.00000000000E+00  0.00000000000E+00  0.45593999997E+02  0.45594000000E+02  0.51100000000E-03 0.  1.
         11   -1    0    0    0    0 -0.00000000000E+00 -0.00000000000E+00 -0.45593999997E+02  0.45594000000E+02  0.51100000000E-03 0. -1.
    9900012    2    1    2    0    0 -0.19125664361E+02  0.22751945682E+02 -0.27743910783E+02  0.50528847831E+02  0.29999963468E+02 0.  0.
        -12    1    1    2    0    0  0.19125664361E+02 -0.22751945682E+02  0.27743910783E+02  0.40659152169E+02  0.00000000000E+00 0.  1.
         11    1    3    3    0    0 -0.13732922551E+02  0.81983832113E+01 -0.16666225429E+02  0.23099128109E+02  0.51100000000E-03 0. -1.
        -11    1    3    3    0    0 -0.20976438822E+00  0.27661303143E+01 -0.13961263251E+02  0.14234196494E+02  0.51100000000E-03 0.  1.
         12    1    3    3    0    0 -0.51829774213E+01  0.11787432156E+02  0.28835778969E+01  0.13195523228E+02  0.00000000000E+00 0. -1.
</event>
<event>
 7    1  0.5138511E-013  0.5052889E+02  0.7816164E-02  0.1300439E+00
        -11   -1    0    0    0    0  0.00000000000E+00  0.00000000000E+00  0.45593999997E+02  0.45594000000E+02  0.51100000000E-03 0.  1.
         11   -1    0    0    0    0 -0.00000000000E+00 -0.00000000000E+00 -0.45593999997E+02  0.45594000000E+02  0.51100000000E-03 0. -1.
    9900012    2    1    2    0    0  0.18520344487E+02 -0.31095370189E+02 -0.18526691721E+02  0.50528886468E+02  0.30000080907E+02 0.  0.
        -12    1    1    2    0    0 -0.18520344487E+02  0.31095370189E+02  0.18526691721E+02  0.40659113532E+02  0.00000000000E+00 0.  1.
         11    1    3    3    0    0  0.45900334245E+00 -0.15513670314E+02 -0.69615464743E+01  0.17010225755E+02  0.51100000000E-03 0.  1.
        -11    1    3    3    0    0 -0.34263156022E+01  0.85850800849E+00 -0.41815221318E+01  0.54737374988E+01  0.51100000000E-03 0. -1.
         12    1    3    3    0    0  0.21487656747E+02 -0.16440207884E+02 -0.73836231149E+01  0.28044923213E+02  0.00000000000E+00 0. -1.
</event>
<event>
 7    1  0.5138511E-013  0.5052886E+02  0.7816164E-02  0.1300439E+00
        -11   -1    0    0    0    0  0.00000000000E+00  0.00000000000E+00  0.45593999997E+02  0.45594000000E+02  0.51100000000E-03 0. -1.
         11   -1    0    0    0    0 -0.00000000000E+00 -0.00000000000E+00 -0.45593999997E+02  0.45594000000E+02  0.51100000000E-03 0.  1.
    9900012    2    1    2    0    0 -0.81557729111E+01 -0.19004806612E+02  0.35006660359E+02  0.50528861106E+02  0.30000003818E+02 0.  0.
        -12    1    1    2    0    0  0.81557729111E+01  0.19004806612E+02 -0.35006660359E+02  0.40659138894E+02  0.00000000000E+00 0.  1.
         11    1    3    3    0    0 -0.62574312048E+01 -0.15453084968E+02  0.11798828214E+02  0.20424632868E+02  0.51100000000E-03 0. -1.
        -11    1    3    3    0    0 -0.39585437602E+00 -0.29035821006E+01  0.26376079772E+02  0.26538369846E+02  0.51100000000E-03 0.  1.
         12    1    3    3    0    0 -0.15024873303E+01 -0.64813954329E+00 -0.31682476270E+01  0.35658583919E+01  0.00000000000E+00 0. -1.
</event>
<event>
 7    1  0.5138511E-013  0.5052886E+02  0.7816164E-02  0.1300439E+00
        -11   -1    0    0    0    0  0.00000000000E+00  0.00000000000E+00  0.45593999997E+02  0.45594000000E+02  0.51100000000E-03 0.  1.
         11   -1    0    0    0    0 -0.00000000000E+00 -0.00000000000E+00 -0.45593999997E+02  0.45594000000E+02  0.51100000000E-03 0. -1.
    9900012    2    1    2    0    0 -0.65328639079E+01 -0.24059892175E+02 -0.32118671999E+02  0.50528858183E+02  0.29999994934E+02 0.  0.
        -12    1    1    2    0    0  0.65328639079E+01  0.24059892175E+02  0.32118671999E+02  0.40659141817E+02  0.00000000000E+00 0.  1.
         11    1    3    3    0    0  0.41294449071E+01 -0.99186383528E+01  0.12168220502E+00  0.10744603708E+02  0.51100000000E-03 0. -1.
        -11    1    3    3    0    0  0.23961087300E+01 -0.24826002428E+01 -0.43235300970E+00  0.34772935449E+01  0.51100000000E-03 0.  1.
         12    1    3    3    0    0 -0.13058417545E+02 -0.11658653580E+02 -0.31808001194E+02  0.36306960931E+02  0.00000000000E+00 0. -1.
</event>
<event>
 7    1  0.5138511E-013  0.5052885E+02  0.7816164E-02  0.1300439E+00
        -11   -1    0    0    0    0  0.00000000000E+00  0.00000000000E+00  0.45593999997E+02  0.45594000000E+02  0.51100000000E-03 0.  1.
         11   -1    0    0    0    0 -0.00000000000E+00 -0.00000000000E+00 -0.45593999997E+02  0.45594000000E+02  0.51100000000E-03 0. -1.
    9900012    2    1    2    0    0 -0.15607377629E+02  0.18293518145E+01 -0.37499732308E+02  0.50528847430E+02  0.29999962249E+02 0.  0.
        -12    1    1    2    0    0  0.15607377629E+02 -0.18293518145E+01  0.37499732308E+02  0.40659152570E+02  0.00000000000E+00 0.  1.
         11    1    3    3    0    0  0.31835278379E+01 -0.19652246608E+00 -0.10417008623E+02  0.10894381097E+02  0.51100000000E-03 0. -1.
        -11    1    3    3    0    0 -0.91657791109E+01 -0.23945434129E+01  0.10906011152E+01  0.95359716820E+01  0.51100000000E-03 0.  1.
        -12    1    3    3    0    0 -0.96251263560E+01  0.44204176934E+01 -0.28173324800E+02  0.30098494651E+02  0.00000000000E+00 0.  1.
</event>
<event>
 7    1  0.5138511E-013  0.5052886E+02  0.7816164E-02  0.1300439E+00
        -11   -1    0    0    0    0  0.00000000000E+00  0.00000000000E+00  0.45593999997E+02  0.45594000000E+02  0.51100000000E-03 0. -1.
         11   -1    0    0    0    0 -0.00000000000E+00 -0.00000000000E+00 -0.45593999997E+02  0.45594000000E+02  0.51100000000E-03 0.  1.
    9900012    2    1    2    0    0  0.39823971259E+02  0.53805220954E+01 -0.61860182258E+01  0.50528861712E+02  0.30000005659E+02 0.  0.
        -12    1    1    2    0    0 -0.39823971259E+02 -0.53805220954E+01  0.61860182258E+01  0.40659138288E+02  0.00000000000E+00 0.  1.
         11    1    3    3    0    0  0.32146820692E+02 -0.21883470484E+01 -0.14595092828E+02  0.35372640251E+02  0.51100000000E-03 0. -1.
        -11    1    3    3    0    0  0.44065717598E+00 -0.11450630080E+01  0.12771912748E+01  0.17710352488E+01  0.51100000000E-03 0.  1.
         12    1    3    3    0    0  0.72364933906E+01  0.87139321517E+01  0.71318833271E+01  0.13385186212E+02  0.00000000000E+00 0. -1.
</event>
<event>
 7    1  0.5138511E-013  0.5052888E+02  0.7816164E-02  0.1300439E+00
        -11   -1    0    0    0    0  0.00000000000E+00  0.00000000000E+00  0.45593999997E+02  0.45594000000E+02  0.51100000000E-03 0.  1.
         11   -1    0    0    0    0 -0.00000000000E+00 -0.00000000000E+00 -0.45593999997E+02  0.45594000000E+02  0.51100000000E-03 0. -1.
    9900012    2    1    2    0    0 -0.22400417384E+02  0.13560317248E+02 -0.31104717660E+02  0.50528876011E+02  0.30000049122E+02 0.  0.
        -12    1    1    2    0    0  0.22400417384E+02 -0.13560317248E+02  0.31104717660E+02  0.40659123989E+02  0.00000000000E+00 0.  1.
         11    1    3    3    0    0 -0.90043857332E+01 -0.26618500661E+01 -0.91599342389E+00  0.94341641082E+01  0.51100000000E-03 0.  1.
        -11    1    3    3    0    0 -0.70025002634E+01 -0.24258130773E+01 -0.12884940686E+02  0.14864093507E+02  0.51100000000E-03 0. -1.
         12    1    3    3    0    0 -0.63935313878E+01  0.18647980391E+02 -0.17303783550E+02  0.26230618396E+02  0.00000000000E+00 0. -1.
</event>
<event>
 7    1  0.5138511E-013  0.5052890E+02  0.7816164E-02  0.1300439E+00
        -11   -1    0    0    0    0  0.00000000000E+00  0.00000000000E+00  0.45593999997E+02  0.45594000000E+02  0.51100000000E-03 0. -1.
         11   -1    0    0    0    0 -0.00000000000E+00 -0.00000000000E+00 -0.45593999997E+02  0.45594000000E+02  0.51100000000E-03 0.  1.
    9900012    2    1    2    0    0  0.30088166185E+02  0.81615831325E+01  0.26100822090E+02  0.50528903879E+02  0.30000133831E+02 0.  0.
        -12    1    1    2    0    0 -0.30088166185E+02 -0.81615831325E+01 -0.26100822090E+02  0.40659096121E+02  0.00000000000E+00 0.  1.
         11    1    3    3    0    0  0.55314357849E+01 -0.52179734345E+01  0.19854539719E+01  0.78591383969E+01  0.51100000000E-03 0. -1.
        -11    1    3    3    0    0 -0.25845282642E+01  0.43637707937E+01  0.89774611695E+01  0.10311017952E+02  0.51100000000E-03 0.  1.
        -12    1    3    3    0    0  0.27141258664E+02  0.90157857734E+01  0.15137906948E+02  0.32358747531E+02  0.00000000000E+00 0.  1.
</event>
<event>
 7    1  0.5138511E-013  0.5052886E+02  0.7816164E-02  0.1300439E+00
        -11   -1    0    0    0    0  0.00000000000E+00  0.00000000000E+00  0.45593999997E+02  0.45594000000E+02  0.51100000000E-03 0.  1.
         11   -1    0    0    0    0 -0.00000000000E+00 -0.00000000000E+00 -0.45593999997E+02  0.45594000000E+02  0.51100000000E-03 0. -1.
    9900012    2    1    2    0    0  0.17078446673E+02  0.31536424888E+02 -0.19155836455E+02  0.50528861965E+02  0.30000006428E+02 0.  0.
        -12    1    1    2    0    0 -0.17078446673E+02 -0.31536424888E+02  0.19155836455E+02  0.40659138035E+02  0.00000000000E+00 0.  1.
         11    1    3    3    0    0  0.43418260794E+01  0.16592954008E+02 -0.16399448177E+01  0.17229828661E+02  0.51100000000E-03 0. -1.
        -11    1    3    3    0    0  0.90157330060E+01  0.17327071138E+02 -0.51974341379E+01  0.20211980549E+02  0.51100000000E-03 0.  1.
         12    1    3    3    0    0  0.37208875872E+01 -0.23836002578E+01 -0.12318457500E+02  0.13087052754E+02  0.00000000000E+00 0. -1.
</event>
<event>
 7    1  0.5138511E-013  0.5052886E+02  0.7816164E-02  0.1300439E+00
        -11   -1    0    0    0    0  0.00000000000E+00  0.00000000000E+00  0.45593999997E+02  0.45594000000E+02  0.51100000000E-03 0.  1.
         11   -1    0    0    0    0 -0.00000000000E+00 -0.00000000000E+00 -0.45593999997E+02  0.45594000000E+02  0.51100000000E-03 0. -1.
    9900012    2    1    2    0    0  0.30498500010E+02  0.67934418096E+01 -0.26016463140E+02  0.50528859468E+02  0.29999998840E+02 0.  0.
        -12    1    1    2    0    0 -0.30498500010E+02 -0.67934418096E+01  0.26016463140E+02  0.40659140532E+02  0.00000000000E+00 0.  1.
         11    1    3    3    0    0  0.74766573581E+01  0.46395579318E+00 -0.21512838046E+02  0.22779768683E+02  0.51100000000E-03 0. -1.
        -11    1    3    3    0    0  0.42394193073E+01 -0.39753617032E+01  0.20032732219E+00  0.58151791057E+01  0.51100000000E-03 0.  1.
        -12    1    3    3    0    0  0.18782423344E+02  0.10304847720E+02 -0.47039524163E+01  0.21933911679E+02  0.00000000000E+00 0.  1.
</event>
<event>
 7    1  0.5138511E-013  0.5052887E+02  0.7816164E-02  0.1300439E+00
        -11   -1    0    0    0    0  0.00000000000E+00  0.00000000000E+00  0.45593999997E+02  0.45594000000E+02  0.51100000000E-03 0.  1.
         11   -1    0    0    0    0 -0.00000000000E+00 -0.00000000000E+00 -0.45593999997E+02  0.45594000000E+02  0.51100000000E-03 0. -1.
    9900012    2    1    2    0    0 -0.30724959795E+02  0.24241090496E+02 -0.11023215302E+02  0.50528869433E+02  0.30000029130E+02 0.  0.
        -12    1    1    2    0    0  0.30724959795E+02 -0.24241090496E+02  0.11023215302E+02  0.40659130567E+02  0.00000000000E+00 0.  1.
         11    1    3    3    0    0 -0.10863659472E+02  0.17230158146E+02 -0.68087195127E+01  0.21476873807E+02  0.51100000000E-03 0. -1.
        -11    1    3    3    0    0 -0.21620641351E+02  0.78177315017E+01 -0.83708112127E+01  0.24467111372E+02  0.51100000000E-03 0.  1.
        -12    1    3    3    0    0  0.17593410286E+01 -0.80679915172E+00  0.41563154232E+01  0.45848842541E+01  0.00000000000E+00 0.  1.
</event>
<event>
 7    1  0.5138511E-013  0.5052880E+02  0.7816164E-02  0.1300439E+00
        -11   -1    0    0    0    0  0.00000000000E+00  0.00000000000E+00  0.45593999997E+02  0.45594000000E+02  0.51100000000E-03 0. -1.
         11   -1    0    0    0    0 -0.00000000000E+00 -0.00000000000E+00 -0.45593999997E+02  0.45594000000E+02  0.51100000000E-03 0.  1.
    9900012    2    1    2    0    0 -0.82290242491E+01  0.38993392921E+02  0.80603522267E+01  0.50528796741E+02  0.29999808175E+02 0.  0.
        -12    1    1    2    0    0  0.82290242491E+01 -0.38993392921E+02 -0.80603522267E+01  0.40659203259E+02  0.00000000000E+00 0.  1.
         11    1    3    3    0    0  0.58956956890E+01  0.96702492790E+01 -0.10599810803E+01  0.11375258631E+02  0.51100000000E-03 0. -1.
        -11    1    3    3    0    0 -0.20759045397E+01 -0.25897137798E+01  0.30467564924E+01  0.45054103591E+01  0.51100000000E-03 0.  1.
         12    1    3    3    0    0 -0.12048815398E+02  0.31912857422E+02  0.60735768147E+01  0.34648127751E+02  0.00000000000E+00 0. -1.
</event>
<event>
 7    1  0.5138511E-013  0.5052886E+02  0.7816164E-02  0.1300439E+00
        -11   -1    0    0    0    0  0.00000000000E+00  0.00000000000E+00  0.45593999997E+02  0.45594000000E+02  0.51100000000E-03 0.  1.
         11   -1    0    0    0    0 -0.00000000000E+00 -0.00000000000E+00 -0.45593999997E+02  0.45594000000E+02  0.51100000000E-03 0. -1.
    9900012    2    1    2    0    0  0.31381514617E+02  0.11069884856E+02 -0.23362878750E+02  0.50528856946E+02  0.29999991173E+02 0.  0.
        -12    1    1    2    0    0 -0.31381514617E+02 -0.11069884856E+02  0.23362878750E+02  0.40659143054E+02  0.00000000000E+00 0.  1.
         11    1    3    3    0    0  0.10675919968E+02  0.60338044169E+01 -0.16769099837E+02  0.20774618469E+02  0.51100000000E-03 0. -1.
        -11    1    3    3    0    0  0.20644641737E+02  0.98640857846E+01 -0.87106712417E+01  0.24482181572E+02  0.51100000000E-03 0.  1.
        -12    1    3    3    0    0  0.60952912296E-01 -0.48280053460E+01  0.21168923284E+01  0.52720569049E+01  0.00000000000E+00 0.  1.
</event>
<event>
 7    1  0.5140095E-013  0.5052886E+02  0.7816164E-02  0.1300439E+00
        -11   -1    0    0    0    0  0.00000000000E+00  0.00000000000E+00  0.45593999997E+02  0.45594000000E+02  0.51100000000E-03 0.  1.
         11   -1    0    0    0    0 -0.00000000000E+00 -0.00000000000E+00 -0.45593999997E+02  0.45594000000E+02  0.51100000000E-03 0. -1.
    9900012    2    1    2    0    0 -0.20854366884E+02  0.31939581501E+02 -0.14075649345E+02  0.50528863400E+02  0.30000010790E+02 0.  0.
        -12    1    1    2    0    0  0.20854366884E+02 -0.31939581501E+02  0.14075649345E+02  0.40659136600E+02  0.00000000000E+00 0.  1.
         11    1    3    3    0    0 -0.21988315223E+02  0.27941694927E+02 -0.76188268029E+01  0.36363042280E+02  0.51100000000E-03 0. -1.
        -11    1    3    3    0    0  0.39959810922E+01  0.72438573413E+01 -0.44814404850E+01  0.94087535386E+01  0.51100000000E-03 0.  1.
        -12    1    3    3    0    0 -0.28620327538E+01 -0.32459707670E+01 -0.19753820567E+01  0.47570675814E+01  0.00000000000E+00 0.  1.
</event>
<event>
 7    1  0.5138511E-013  0.5052886E+02  0.7816164E-02  0.1300439E+00
        -11   -1    0    0    0    0  0.00000000000E+00  0.00000000000E+00  0.45593999997E+02  0.45594000000E+02  0.51100000000E-03 0. -1.
         11   -1    0    0    0    0 -0.00000000000E+00 -0.00000000000E+00 -0.45593999997E+02  0.45594000000E+02  0.51100000000E-03 0.  1.
    9900012    2    1    2    0    0  0.12513607351E+02  0.14339214142E+02  0.35929959054E+02  0.50528863403E+02  0.30000010800E+02 0.  0.
        -12    1    1    2    0    0 -0.12513607351E+02 -0.14339214142E+02 -0.35929959054E+02  0.40659136597E+02  0.00000000000E+00 0.  1.
         11    1    3    3    0    0  0.42843314104E+01 -0.57907552644E+00  0.50900530769E+01  0.66782830642E+01  0.51100000000E-03 0. -1.
        -11    1    3    3    0    0 -0.43986272386E+00  0.97234630083E+00 -0.46367151222E+01  0.47579474492E+01  0.51100000000E-03 0.  1.
        -12    1    3    3    0    0  0.86691386641E+01  0.13945943368E+02  0.35476621100E+02  0.39092632890E+02  0.00000000000E+00 0.  1.
</event>
<event>
 7    1  0.5138511E-013  0.5052886E+02  0.7816164E-02  0.1300439E+00
        -11   -1    0    0    0    0  0.00000000000E+00  0.00000000000E+00  0.45593999997E+02  0.45594000000E+02  0.51100000000E-03 0. -1.
         11   -1    0    0    0    0 -0.00000000000E+00 -0.00000000000E+00 -0.45593999997E+02  0.45594000000E+02  0.51100000000E-03 0.  1.
    9900012    2    1    2    0    0 -0.74665624769E+01 -0.31510114215E+02  0.24587171193E+02  0.50528857851E+02  0.29999993923E+02 0.  0.
        -12    1    1    2    0    0  0.74665624769E+01  0.31510114215E+02 -0.24587171193E+02  0.40659142149E+02  0.00000000000E+00 0.  1.
         11    1    3    3    0    0  0.58201016280E+00  0.28756883379E+01 -0.12675770748E+01  0.31961024933E+01  0.51100000000E-03 0. -1.
        -11    1    3    3    0    0 -0.31292276801E+01 -0.19556512577E+02  0.35822337882E+01  0.20126640286E+02  0.51100000000E-03 0.  1.
         12    1    3    3    0    0 -0.49193449596E+01 -0.14829289976E+02  0.22272514480E+02  0.27206115071E+02  0.00000000000E+00 0. -1.
</event>
<event>
 7    1  0.5138511E-013  0.5052886E+02  0.7816164E-02  0.1300439E+00
        -11   -1    0    0    0    0  0.00000000000E+00  0.00000000000E+00  0.45593999997E+02  0.45594000000E+02  0.51100000000E-03 0.  1.
         11   -1    0    0    0    0 -0.00000000000E+00 -0.00000000000E+00 -0.45593999997E+02  0.45594000000E+02  0.51100000000E-03 0. -1.
    9900012    2    1    2    0    0  0.65225754706E+01  0.29412587724E+02 -0.27304240616E+02  0.50528857572E+02  0.29999993076E+02 0.  0.
        -12    1    1    2    0    0 -0.65225754706E+01 -0.29412587724E+02  0.27304240616E+02  0.40659142428E+02  0.00000000000E+00 0.  1.
         11    1    3    3    0    0 -0.24100542877E+01 -0.15033316131E+00 -0.52039163726E+01  0.57368726327E+01  0.51100000000E-03 0. -1.
        -11    1    3    3    0    0 -0.33305556207E+01  0.25667247412E+02 -0.12529358612E+02  0.28755608461E+02  0.51100000000E-03 0.  1.
        -12    1    3    3    0    0  0.12263185379E+02  0.38956734730E+01 -0.95709656314E+01  0.16036376479E+02  0.00000000000E+00 0.  1.
</event>
<event>
 7    1  0.5138511E-013  0.5052886E+02  0.7816164E-02  0.1300439E+00
        -11   -1    0    0    0    0  0.00000000000E+00  0.00000000000E+00  0.45593999997E+02  0.45594000000E+02  0.51100000000E-03 0. -1.
         11   -1    0    0    0    0 -0.00000000000E+00 -0.00000000000E+00 -0.45593999997E+02  0.45594000000E+02  0.51100000000E-03 0.  1.
    9900012    2    1    2    0    0 -0.23982484430E+02 -0.21769009876E+02  0.24578774047E+02  0.50528862232E+02  0.30000007239E+02 0.  0.
        -12    1    1    2    0    0  0.23982484430E+02  0.21769009876E+02 -0.24578774047E+02  0.40659137768E+02  0.00000000000E+00 0.  1.
         11    1    3    3    0    0 -0.47285282048E+01 -0.84733176524E+01 -0.89236389187E-01  0.97038164871E+01  0.51100000000E-03 0. -1.
        -11    1    3    3    0    0  0.38742760909E+01  0.13019466907E+01  0.74771043125E+01  0.85212774614E+01  0.51100000000E-03 0.  1.
         12    1    3    3    0    0 -0.23128232316E+02 -0.14597638914E+02  0.17190906124E+02  0.32303768283E+02  0.00000000000E+00 0. -1.
</event>
<event>
 7    1  0.5138511E-013  0.5052886E+02  0.7816164E-02  0.1300439E+00
        -11   -1    0    0    0    0  0.00000000000E+00  0.00000000000E+00  0.45593999997E+02  0.45594000000E+02  0.51100000000E-03 0.  1.
         11   -1    0    0    0    0 -0.00000000000E+00 -0.00000000000E+00 -0.45593999997E+02  0.45594000000E+02  0.51100000000E-03 0. -1.
    9900012    2    1    2    0    0  0.17135511542E+02  0.35108836675E+02  0.11265424520E+02  0.50528856403E+02  0.29999989522E+02 0.  0.
        -12    1    1    2    0    0 -0.17135511542E+02 -0.35108836675E+02 -0.11265424520E+02  0.40659143597E+02  0.00000000000E+00 0.  1.
         11    1    3    3    0    0 -0.17337481381E+01  0.93524877986E+01 -0.54959349540E+01  0.10985454561E+02  0.51100000000E-03 0. -1.
        -11    1    3    3    0    0  0.13735936630E+02  0.16136283313E+02  0.21326598147E+01  0.21297977191E+02  0.51100000000E-03 0.  1.
         12    1    3    3    0    0  0.51333230495E+01  0.96200655628E+01  0.14628699660E+02  0.18245424651E+02  0.00000000000E+00 0. -1.
</event>
<event>
 7    1  0.5138511E-013  0.5052886E+02  0.7816164E-02  0.1300439E+00
        -11   -1    0    0    0    0  0.00000000000E+00  0.00000000000E+00  0.45593999997E+02  0.45594000000E+02  0.51100000000E-03 0. -1.
         11   -1    0    0    0    0 -0.00000000000E+00 -0.00000000000E+00 -0.45593999997E+02  0.45594000000E+02  0.51100000000E-03 0.  1.
    9900012    2    1    2    0    0 -0.24811221347E+02 -0.53849098187E+01  0.31758014676E+02  0.50528862593E+02  0.30000008339E+02 0.  0.
        -12    1    1    2    0    0  0.24811221347E+02  0.53849098187E+01 -0.31758014676E+02  0.40659137407E+02  0.00000000000E+00 0.  1.
         11    1    3    3    0    0 -0.11926579386E+02  0.17025352739E+01  0.21009379279E+02  0.24218504086E+02  0.51100000000E-03 0. -1.
        -11    1    3    3    0    0 -0.11321168300E+02  0.34725263502E+01  0.10186895545E+02  0.15620503578E+02  0.51100000000E-03 0.  1.
        -12    1    3    3    0    0 -0.15634736606E+01 -0.10559971443E+02  0.56173985295E+00  0.10689854930E+02  0.00000000000E+00 0.  1.
</event>
<event>
 7    1  0.5138511E-013  0.5052885E+02  0.7816164E-02  0.1300439E+00
        -11   -1    0    0    0    0  0.00000000000E+00  0.00000000000E+00  0.45593999997E+02  0.45594000000E+02  0.51100000000E-03 0. -1.
         11   -1    0    0    0    0 -0.00000000000E+00 -0.00000000000E+00 -0.45593999997E+02  0.45594000000E+02  0.51100000000E-03 0.  1.
    9900012    2    1    2    0    0 -0.13685750880E+02  0.21919466573E+02  0.31391135699E+02  0.50528853520E+02  0.29999980759E+02 0.  0.
        -12    1    1    2    0    0  0.13685750880E+02 -0.21919466573E+02 -0.31391135699E+02  0.40659146480E+02  0.00000000000E+00 0.  1.
         11    1    3    3    0    0 -0.50866693692E+01  0.45150516348E+01  0.50964464337E+01  0.84990389486E+01  0.51100000000E-03 0. -1.
        -11    1    3    3    0    0  0.23444709189E+01  0.18778628861E+01  0.22448630757E+02  0.22648707161E+02  0.51100000000E-03 0.  1.
        -12    1    3    3    0    0 -0.10943552429E+02  0.15526552052E+02  0.38460585082E+01  0.19381107410E+02  0.00000000000E+00 0.  1.
</event>
<event>
 7    1  0.5138511E-013  0.5052888E+02  0.7816164E-02  0.1300439E+00
        -11   -1    0    0    0    0  0.00000000000E+00  0.00000000000E+00  0.45593999997E+02  0.45594000000E+02  0.51100000000E-03 0.  1.
         11   -1    0    0    0    0 -0.00000000000E+00 -0.00000000000E+00 -0.45593999997E+02  0.45594000000E+02  0.51100000000E-03 0. -1.
    9900012    2    1    2    0    0 -0.19771379752E+02  0.34748412080E+02 -0.74030099255E+01  0.50528878572E+02  0.30000056907E+02 0.  0.
        -12    1    1    2    0    0  0.19771379752E+02 -0.34748412080E+02  0.74030099255E+01  0.40659121428E+02  0.00000000000E+00 0.  1.
         11    1    3    3    0    0 -0.18465727965E+01  0.10744378637E+01  0.58889850985E+01  0.62645345850E+01  0.51100000000E-03 0. -1.
        -11    1    3    3    0    0  0.12978835976E+00  0.14351437791E+02 -0.10268638770E+02  0.17647253445E+02  0.51100000000E-03 0.  1.
         12    1    3    3    0    0 -0.18054595315E+02  0.19322536425E+02 -0.30233562539E+01  0.26617090542E+02  0.00000000000E+00 0. -1.
</event>
<event>
 7    1  0.5138511E-013  0.5052886E+02  0.7816164E-02  0.1300439E+00
        -11   -1    0    0    0    0  0.00000000000E+00  0.00000000000E+00  0.45593999997E+02  0.45594000000E+02  0.51100000000E-03 0.  1.
         11   -1    0    0    0    0 -0.00000000000E+00 -0.00000000000E+00 -0.45593999997E+02  0.45594000000E+02  0.51100000000E-03 0. -1.
    9900012    2    1    2    0    0  0.31936658923E+02 -0.24717013409E+02  0.47206765121E+01  0.50528859309E+02  0.29999998356E+02 0.  0.
        -12    1    1    2    0    0 -0.31936658923E+02  0.24717013409E+02 -0.47206765121E+01  0.40659140691E+02  0.00000000000E+00 0.  1.
         11    1    3    3    0    0  0.76059806581E+01 -0.51038814094E+01 -0.20808404165E+01  0.93931062122E+01  0.51100000000E-03 0. -1.
        -11    1    3    3    0    0  0.10213596110E+02  0.50101894797E+01 -0.17096402604E+01  0.11504017307E+02  0.51100000000E-03 0.  1.
        -12    1    3    3    0    0  0.14117082155E+02 -0.24623321479E+02  0.85111571891E+01  0.29631735790E+02  0.00000000000E+00 0.  1.
</event>
<event>
 7    1  0.5138511E-013  0.5052886E+02  0.7816164E-02  0.1300439E+00
        -11   -1    0    0    0    0  0.00000000000E+00  0.00000000000E+00  0.45593999997E+02  0.45594000000E+02  0.51100000000E-03 0.  1.
         11   -1    0    0    0    0 -0.00000000000E+00 -0.00000000000E+00 -0.45593999997E+02  0.45594000000E+02  0.51100000000E-03 0. -1.
    9900012    2    1    2    0    0  0.33076076262E+02  0.19678823793E+02 -0.13110414640E+02  0.50528857131E+02  0.29999991737E+02 0.  0.
        -12    1    1    2    0    0 -0.33076076262E+02 -0.19678823793E+02  0.13110414640E+02  0.40659142869E+02  0.00000000000E+00 0.  1.
         11    1    3    3    0    0  0.64905115974E+01 -0.69854130619E+00 -0.10615169178E+01  0.66137371569E+01  0.51100000000E-03 0. -1.
        -11    1    3    3    0    0  0.11440760919E+02 -0.30567699051E+01  0.29962814009E+01  0.12215259111E+02  0.51100000000E-03 0.  1.
         12    1    3    3    0    0  0.15144803745E+02  0.23434135004E+02 -0.15045179124E+02  0.31699860863E+02  0.00000000000E+00 0. -1.
</event>
<event>
 7    1  0.5138511E-013  0.5052889E+02  0.7816164E-02  0.1300439E+00
        -11   -1    0    0    0    0  0.00000000000E+00  0.00000000000E+00  0.45593999997E+02  0.45594000000E+02  0.51100000000E-03 0.  1.
         11   -1    0    0    0    0 -0.00000000000E+00 -0.00000000000E+00 -0.45593999997E+02  0.45594000000E+02  0.51100000000E-03 0. -1.
    9900012    2    1    2    0    0  0.17367178380E+01 -0.69446222341E+01 -0.40023988046E+02  0.50528885574E+02  0.30000078190E+02 0.  0.
        -12    1    1    2    0    0 -0.17367178380E+01  0.69446222341E+01  0.40023988046E+02  0.40659114426E+02  0.00000000000E+00 0.  1.
         11    1    3    3    0    0  0.30088978485E+01 -0.14971684708E+02 -0.32478801227E+02  0.35889794353E+02  0.51100000000E-03 0. -1.
        -11    1    3    3    0    0 -0.11920226231E+01  0.34674357312E+00  0.20204999136E+01  0.23714065871E+01  0.51100000000E-03 0.  1.
        -12    1    3    3    0    0 -0.80157387461E-01  0.76803189004E+01 -0.95656867322E+01  0.12267684634E+02  0.00000000000E+00 0.  1.
</event>
<event>
 7    1  0.5138511E-013  0.5052883E+02  0.7816164E-02  0.1300439E+00
        -11   -1    0    0    0    0  0.00000000000E+00  0.00000000000E+00  0.45593999997E+02  0.45594000000E+02  0.51100000000E-03 0. -1.
         11   -1    0    0    0    0 -0.00000000000E+00 -0.00000000000E+00 -0.45593999997E+02  0.45594000000E+02  0.51100000000E-03 0.  1.
    9900012    2    1    2    0    0 -0.52264346944E+01 -0.34755174012E+02  0.20443338095E+02  0.50528833596E+02  0.29999920197E+02 0.  0.
        -12    1    1    2    0    0  0.52264346944E+01  0.34755174012E+02 -0.20443338095E+02  0.40659166404E+02  0.00000000000E+00 0.  1.
         11    1    3    3    0    0  0.37227299368E+00 -0.86710030473E+01  0.10839291056E+02  0.13885788126E+02  0.51100000000E-03 0. -1.
        -11    1    3    3    0    0 -0.72450081245E+01  0.29556236061E+00  0.70091409115E+01  0.10084917273E+02  0.51100000000E-03 0.  1.
         12    1    3    3    0    0  0.16463004364E+01 -0.26379733326E+02  0.25949061270E+01  0.26558128196E+02  0.00000000000E+00 0. -1.
</event>
<event>
 7    1  0.5138511E-013  0.5052886E+02  0.7816164E-02  0.1300439E+00
        -11   -1    0    0    0    0  0.00000000000E+00  0.00000000000E+00  0.45593999997E+02  0.45594000000E+02  0.51100000000E-03 0. -1.
         11   -1    0    0    0    0 -0.00000000000E+00 -0.00000000000E+00 -0.45593999997E+02  0.45594000000E+02  0.51100000000E-03 0.  1.
    9900012    2    1    2    0    0  0.91122668059E+01  0.39039212787E+02 -0.67876623559E+01  0.50528857097E+02  0.29999991631E+02 0.  0.
        -12    1    1    2    0    0 -0.91122668059E+01 -0.39039212787E+02  0.67876623559E+01  0.40659142903E+02  0.00000000000E+00 0.  1.
         11    1    3    3    0    0 -0.64717973481E+01  0.67276185799E+01 -0.35595215080E+01  0.99907560424E+01  0.51100000000E-03 0. -1.
        -11    1    3    3    0    0  0.20639867992E+01 -0.22909195450E+01  0.75639354964E+00  0.31749780049E+01  0.51100000000E-03 0.  1.
        -12    1    3    3    0    0  0.13520077355E+02  0.34602513752E+02 -0.39845343975E+01  0.37363123049E+02  0.00000000000E+00 0.  1.
</event>
<event>
 7    1  0.5138511E-013  0.5052877E+02  0.7816164E-02  0.1300439E+00
        -11   -1    0    0    0    0  0.00000000000E+00  0.00000000000E+00  0.45593999997E+02  0.45594000000E+02  0.51100000000E-03 0. -1.
         11   -1    0    0    0    0 -0.00000000000E+00 -0.00000000000E+00 -0.45593999997E+02  0.45594000000E+02  0.51100000000E-03 0.  1.
    9900012    2    1    2    0    0  0.41966996824E+01  0.32622892630E+02  0.23902043475E+02  0.50528768649E+02  0.29999722785E+02 0.  0.
        -12    1    1    2    0    0 -0.41966996824E+01 -0.32622892630E+02 -0.23902043475E+02  0.40659231351E+02  0.00000000000E+00 0.  1.
         11    1    3    3    0    0 -0.96272672155E+01  0.24314890404E+02  0.16787989854E+02  0.31076273473E+02  0.51100000000E-03 0.  1.
        -11    1    3    3    0    0  0.51849962899E+01  0.78276332713E+01  0.45145412753E+01  0.10418114625E+02  0.51100000000E-03 0. -1.
        -12    1    3    3    0    0  0.86389706079E+01  0.48036895421E+00  0.25995123465E+01  0.90343805508E+01  0.00000000000E+00 0.  1.
</event>
<event>
 7    1  0.5138511E-013  0.5052887E+02  0.7816164E-02  0.1300439E+00
        -11   -1    0    0    0    0  0.00000000000E+00  0.00000000000E+00  0.45593999997E+02  0.45594000000E+02  0.51100000000E-03 0.  1.
         11   -1    0    0    0    0 -0.00000000000E+00 -0.00000000000E+00 -0.45593999997E+02  0.45594000000E+02  0.51100000000E-03 0. -1.
    9900012    2    1    2    0    0  0.48545066023E+01  0.21940980662E+02 -0.33884987482E+02  0.50528865191E+02  0.30000016236E+02 0.  0.
        -12    1    1    2    0    0 -0.48545066023E+01 -0.21940980662E+02  0.33884987482E+02  0.40659134809E+02  0.00000000000E+00 0.  1.
         11    1    3    3    0    0 -0.74152615609E+01  0.10497537866E+02 -0.94914991193E+01  0.15977263879E+02  0.51100000000E-03 0. -1.
        -11    1    3    3    0    0 -0.34336596563E+01  0.56358684612E+01 -0.12090864272E+02  0.13774688056E+02  0.51100000000E-03 0.  1.
         12    1    3    3    0    0  0.15703427820E+02  0.58075743343E+01 -0.12302624091E+02  0.20776913256E+02  0.00000000000E+00 0. -1.
</event>
<event>
 7    1  0.5138511E-013  0.5052886E+02  0.7816164E-02  0.1300439E+00
        -11   -1    0    0    0    0  0.00000000000E+00  0.00000000000E+00  0.45593999997E+02  0.45594000000E+02  0.51100000000E-03 0.  1.
         11   -1    0    0    0    0 -0.00000000000E+00 -0.00000000000E+00 -0.45593999997E+02  0.45594000000E+02  0.51100000000E-03 0. -1.
    9900012    2    1    2    0    0  0.12865840181E+02  0.30730882317E+02 -0.23307689391E+02  0.50528863803E+02  0.30000012015E+02 0.  0.
        -12    1    1    2    0    0 -0.12865840181E+02 -0.30730882317E+02  0.23307689391E+02  0.40659136197E+02  0.00000000000E+00 0.  1.
         11    1    3    3    0    0  0.23680002152E+01  0.55922327582E+01 -0.44392261184E+01  0.75224478086E+01  0.51100000000E-03 0. -1.
        -11    1    3    3    0    0  0.93708870270E+01  0.42564263254E+01  0.48563121716E+01  0.11380441859E+02  0.51100000000E-03 0.  1.
        -12    1    3    3    0    0  0.11269529386E+01  0.20882223234E+02 -0.23724775444E+02  0.31625974135E+02  0.00000000000E+00 0.  1.
</event>
<event>
 7    1  0.5138511E-013  0.5052886E+02  0.7816164E-02  0.1300439E+00
        -11   -1    0    0    0    0  0.00000000000E+00  0.00000000000E+00  0.45593999997E+02  0.45594000000E+02  0.51100000000E-03 0.  1.
         11   -1    0    0    0    0 -0.00000000000E+00 -0.00000000000E+00 -0.45593999997E+02  0.45594000000E+02  0.51100000000E-03 0. -1.
    9900012    2    1    2    0    0 -0.31460111117E+02 -0.24667558900E+02 -0.74120330347E+01  0.50528864651E+02  0.30000014593E+02 0.  0.
        -12    1    1    2    0    0  0.31460111117E+02  0.24667558900E+02  0.74120330347E+01  0.40659135349E+02  0.00000000000E+00 0.  1.
         11    1    3    3    0    0 -0.31480646303E+02 -0.15971541046E+02 -0.90212117487E+01  0.36434921116E+02  0.51100000000E-03 0. -1.
        -11    1    3    3    0    0 -0.57057210794E+00  0.18262539696E+01  0.29021173807E+01  0.34760669793E+01  0.51100000000E-03 0.  1.
        -12    1    3    3    0    0  0.59110729337E+00 -0.10522271824E+02 -0.12929386667E+01  0.10617876556E+02  0.00000000000E+00 0.  1.
</event>
<event>
 7    1  0.5983185E-013  0.5052886E+02  0.7816164E-02  0.1300439E+00
        -11   -1    0    0    0    0  0.00000000000E+00  0.00000000000E+00  0.45593999997E+02  0.45594000000E+02  0.51100000000E-03 0. -1.
         11   -1    0    0    0    0 -0.00000000000E+00 -0.00000000000E+00 -0.45593999997E+02  0.45594000000E+02  0.51100000000E-03 0.  1.
    9900012    2    1    2    0    0 -0.27481640681E+02 -0.14611036638E+02  0.26161854298E+02  0.50528860972E+02  0.30000003411E+02 0.  0.
        -12    1    1    2    0    0  0.27481640681E+02  0.14611036638E+02 -0.26161854298E+02  0.40659139028E+02  0.00000000000E+00 0.  1.
         11    1    3    3    0    0 -0.23157906032E+02  0.78971408306E+00  0.20275016329E+02  0.30789422657E+02  0.51100000000E-03 0. -1.
        -11    1    3    3    0    0  0.52242972091E+00 -0.67810754499E+01  0.70342487275E+01  0.97845067577E+01  0.51100000000E-03 0.  1.
        -12    1    3    3    0    0 -0.48461643702E+01 -0.86196752708E+01 -0.11474107584E+01  0.99549315580E+01  0.00000000000E+00 0.  1.
</event>
<event>
 7    1  0.5138511E-013  0.5052886E+02  0.7816164E-02  0.1300439E+00
        -11   -1    0    0    0    0  0.00000000000E+00  0.00000000000E+00  0.45593999997E+02  0.45594000000E+02  0.51100000000E-03 0.  1.
         11   -1    0    0    0    0 -0.00000000000E+00 -0.00000000000E+00 -0.45593999997E+02  0.45594000000E+02  0.51100000000E-03 0. -1.
    9900012    2    1    2    0    0  0.28542265614E+02 -0.80522749946E+01 -0.27814837776E+02  0.50528864994E+02  0.30000015635E+02 0.  0.
        -12    1    1    2    0    0 -0.28542265614E+02  0.80522749946E+01  0.27814837776E+02  0.40659135006E+02  0.00000000000E+00 0.  1.
         11    1    3    3    0    0  0.41091090123E+01  0.20397966114E+01 -0.11438186237E+02  0.12323865130E+02  0.51100000000E-03 0. -1.
        -11    1    3    3    0    0 -0.19576636515E+01 -0.24100323051E+00  0.32995044633E+01  0.38441201196E+01  0.51100000000E-03 0.  1.
        -12    1    3    3    0    0  0.26390820253E+02 -0.98510683754E+01 -0.19676156002E+02  0.34360879744E+02  0.00000000000E+00 0.  1.
</event>
<event>
 7    1  0.5138511E-013  0.5052887E+02  0.7816164E-02  0.1300439E+00
        -11   -1    0    0    0    0  0.00000000000E+00  0.00000000000E+00  0.45593999997E+02  0.45594000000E+02  0.51100000000E-03 0.  1.
         11   -1    0    0    0    0 -0.00000000000E+00 -0.00000000000E+00 -0.45593999997E+02  0.45594000000E+02  0.51100000000E-03 0. -1.
    9900012    2    1    2    0    0 -0.79185728970E+01 -0.23388570438E+02 -0.32302257436E+02  0.50528869915E+02  0.30000030593E+02 0.  0.
        -12    1    1    2    0    0  0.79185728970E+01  0.23388570438E+02  0.32302257436E+02  0.40659130085E+02  0.00000000000E+00 0.  1.
         11    1    3    3    0    0  0.28940096481E+01 -0.55971373221E+01 -0.28187234911E+01  0.69027849761E+01  0.51100000000E-03 0. -1.
        -11    1    3    3    0    0 -0.27483245039E+01  0.12219820538E+01  0.35592084095E+01  0.46598811661E+01  0.51100000000E-03 0.  1.
         12    1    3    3    0    0 -0.80642580412E+01 -0.19013415170E+02 -0.33042742354E+02  0.38966203773E+02  0.00000000000E+00 0. -1.
</event>
<event>
 7    1  0.5138511E-013  0.5052886E+02  0.7816164E-02  0.1300439E+00
        -11   -1    0    0    0    0  0.00000000000E+00  0.00000000000E+00  0.45593999997E+02  0.45594000000E+02  0.51100000000E-03 0. -1.
         11   -1    0    0    0    0 -0.00000000000E+00 -0.00000000000E+00 -0.45593999997E+02  0.45594000000E+02  0.51100000000E-03 0.  1.
    9900012    2    1    2    0    0 -0.29825837526E+02  0.27624399944E+02  0.69119333053E+00  0.50528858290E+02  0.29999995257E+02 0.  0.
        -12    1    1    2    0    0  0.29825837526E+02 -0.27624399944E+02 -0.69119333053E+00  0.40659141710E+02  0.00000000000E+00 0.  1.
         11    1    3    3    0    0 -0.12741894231E+02  0.10237243345E+02  0.79306196373E+00  0.16364167179E+02  0.51100000000E-03 0. -1.
        -11    1    3    3    0    0 -0.17369383972E+02  0.60565901926E+00 -0.15910982798E+00  0.17380668531E+02  0.51100000000E-03 0.  1.
        -12    1    3    3    0    0  0.28544067673E+00  0.16781497580E+02  0.57241194778E-01  0.16784022579E+02  0.00000000000E+00 0.  1.
</event>
<event>
 7    1  0.5138511E-013  0.5052886E+02  0.7816164E-02  0.1300439E+00
        -11   -1    0    0    0    0  0.00000000000E+00  0.00000000000E+00  0.45593999997E+02  0.45594000000E+02  0.51100000000E-03 0.  1.
         11   -1    0    0    0    0 -0.00000000000E+00 -0.00000000000E+00 -0.45593999997E+02  0.45594000000E+02  0.51100000000E-03 0. -1.
    9900012    2    1    2    0    0 -0.10534173468E+02 -0.11607069470E+02 -0.37516295666E+02  0.50528864337E+02  0.30000013639E+02 0.  0.
        -12    1    1    2    0    0  0.10534173468E+02  0.11607069470E+02  0.37516295666E+02  0.40659135663E+02  0.00000000000E+00 0.  1.
         11    1    3    3    0    0 -0.92955940020E+00  0.65222717149E+01 -0.34961245657E+01  0.74583507722E+01  0.51100000000E-03 0. -1.
        -11    1    3    3    0    0  0.26321560450E+01 -0.55542466504E+01 -0.18370640008E+01  0.64150374670E+01  0.51100000000E-03 0.  1.
         12    1    3    3    0    0 -0.12236770113E+02 -0.12575094534E+02 -0.32183107100E+02  0.36655476098E+02  0.00000000000E+00 0. -1.
</event>
<event>
 7    1  0.5138511E-013  0.5052886E+02  0.7816164E-02  0.1300439E+00
        -11   -1    0    0    0    0  0.00000000000E+00  0.00000000000E+00  0.45593999997E+02  0.45594000000E+02  0.51100000000E-03 0. -1.
         11   -1    0    0    0    0 -0.00000000000E+00 -0.00000000000E+00 -0.45593999997E+02  0.45594000000E+02  0.51100000000E-03 0.  1.
    9900012    2    1    2    0    0  0.32335145339E+02 -0.24625570781E+02 -0.10886694054E+01  0.50528861280E+02  0.30000004346E+02 0.  0.
        -12    1    1    2    0    0 -0.32335145339E+02  0.24625570781E+02  0.10886694054E+01  0.40659138720E+02  0.00000000000E+00 0.  1.
         11    1    3    3    0    0  0.15215381911E+02  0.16418426983E+01 -0.14119855336E+01  0.15368708389E+02  0.51100000000E-03 0.  1.
        -11    1    3    3    0    0 -0.79142083466E+00 -0.10976809191E+02  0.31338801765E+01  0.11442809627E+02  0.51100000000E-03 0. -1.
        -12    1    3    3    0    0  0.17911184263E+02 -0.15290604288E+02 -0.28105640483E+01  0.23717343264E+02  0.00000000000E+00 0.  1.
</event>
<event>
 7    1  0.5138511E-013  0.5052889E+02  0.7816164E-02  0.1300439E+00
        -11   -1    0    0    0    0  0.00000000000E+00  0.00000000000E+00  0.45593999997E+02  0.45594000000E+02  0.51100000000E-03 0. -1.
         11   -1    0    0    0    0 -0.00000000000E+00 -0.00000000000E+00 -0.45593999997E+02  0.45594000000E+02  0.51100000000E-03 0.  1.
    9900012    2    1    2    0    0  0.31848296288E+02 -0.20407015077E+02  0.14913191157E+02  0.50528886492E+02  0.30000080980E+02 0.  0.
        -12    1    1    2    0    0 -0.31848296288E+02  0.20407015077E+02 -0.14913191157E+02  0.40659113508E+02  0.00000000000E+00 0.  1.
         11    1    3    3    0    0  0.36146931522E+01 -0.36412571898E+01  0.48650344125E+01  0.70705954914E+01  0.51100000000E-03 0. -1.
        -11    1    3    3    0    0 -0.41823183749E+01 -0.19748818547E+01  0.60329304149E+01  0.76018547067E+01  0.51100000000E-03 0.  1.
         12    1    3    3    0    0  0.32415921511E+02 -0.14790876033E+02  0.40152263294E+01  0.35856436294E+02  0.00000000000E+00 0. -1.
</event>
<event>
 7    1  0.5138511E-013  0.5052886E+02  0.7816164E-02  0.1300439E+00
        -11   -1    0    0    0    0  0.00000000000E+00  0.00000000000E+00  0.45593999997E+02  0.45594000000E+02  0.51100000000E-03 0.  1.
         11   -1    0    0    0    0 -0.00000000000E+00 -0.00000000000E+00 -0.45593999997E+02  0.45594000000E+02  0.51100000000E-03 0. -1.
    9900012    2    1    2    0    0  0.91020090101E+01 -0.28067709195E+02 -0.27973605561E+02  0.50528862336E+02  0.30000007558E+02 0.  0.
        -12    1    1    2    0    0 -0.91020090101E+01  0.28067709195E+02  0.27973605561E+02  0.40659137664E+02  0.00000000000E+00 0.  1.
         11    1    3    3    0    0  0.25625029298E+01 -0.65632191702E+01 -0.19621917066E+02  0.20848546634E+02  0.51100000000E-03 0. -1.
        -11    1    3    3    0    0  0.19052311439E+01  0.16106487786E+01  0.26716016756E+01  0.36553455341E+01  0.51100000000E-03 0.  1.
         12    1    3    3    0    0  0.46342749364E+01 -0.23115138803E+02 -0.11023290170E+02  0.26024970168E+02  0.00000000000E+00 0. -1.
</event>
<event>
 7    1  0.5138511E-013  0.5052887E+02  0.7816164E-02  0.1300439E+00
        -11   -1    0    0    0    0  0.00000000000E+00  0.00000000000E+00  0.45593999997E+02  0.45594000000E+02  0.51100000000E-03 0.  1.
         11   -1    0    0    0    0 -0.00000000000E+00 -0.00000000000E+00 -0.45593999997E+02  0.45594000000E+02  0.51100000000E-03 0. -1.
    9900012    2    1    2    0    0 -0.28630298112E+02 -0.13714747731E+01 -0.28837305889E+02  0.50528866660E+02  0.30000020699E+02 0.  0.
        -12    1    1    2    0    0  0.28630298112E+02  0.13714747731E+01  0.28837305889E+02  0.40659133340E+02  0.00000000000E+00 0.  1.
         11    1    3    3    0    0 -0.18188805835E+02  0.59280262813E+01 -0.22119707010E+02  0.29244753235E+02  0.51100000000E-03 0. -1.
        -11    1    3    3    0    0 -0.14239606036E+02 -0.39372577914E+01 -0.66739530757E+01  0.16211416623E+02  0.51100000000E-03 0.  1.
         12    1    3    3    0    0  0.37981137597E+01 -0.33622432631E+01 -0.43645803341E-01  0.50726968022E+01  0.00000000000E+00 0. -1.
</event>
<event>
 7    1  0.5138511E-013  0.5052886E+02  0.7816164E-02  0.1300439E+00
        -11   -1    0    0    0    0  0.00000000000E+00  0.00000000000E+00  0.45593999997E+02  0.45594000000E+02  0.51100000000E-03 0. -1.
         11   -1    0    0    0    0 -0.00000000000E+00 -0.00000000000E+00 -0.45593999997E+02  0.45594000000E+02  0.51100000000E-03 0.  1.
    9900012    2    1    2    0    0  0.35563419515E+02  0.16433040080E+02  0.10879535958E+02  0.50528856913E+02  0.29999991073E+02 0.  0.
        -12    1    1    2    0    0 -0.35563419515E+02 -0.16433040080E+02 -0.10879535958E+02  0.40659143087E+02  0.00000000000E+00 0.  1.
         11    1    3    3    0    0  0.82389431312E+01  0.11001689585E+02  0.26580125108E+01  0.13999371000E+02  0.51100000000E-03 0. -1.
        -11    1    3    3    0    0  0.58728500457E+01  0.22078631846E+01 -0.74709648473E+01  0.97560413853E+01  0.51100000000E-03 0.  1.
         12    1    3    3    0    0  0.21451626338E+02  0.32234873110E+01  0.15692488294E+02  0.26773444528E+02  0.00000000000E+00 0. -1.
</event>
<event>
 7    1  0.5138511E-013  0.5052886E+02  0.7816164E-02  0.1300439E+00
        -11   -1    0    0    0    0  0.00000000000E+00  0.00000000000E+00  0.45593999997E+02  0.45594000000E+02  0.51100000000E-03 0. -1.
         11   -1    0    0    0    0 -0.00000000000E+00 -0.00000000000E+00 -0.45593999997E+02  0.45594000000E+02  0.51100000000E-03 0.  1.
    9900012    2    1    2    0    0 -0.70666804188E+01  0.39491438566E+02  0.66071190381E+01  0.50528859403E+02  0.29999998641E+02 0.  0.
        -12    1    1    2    0    0  0.70666804188E+01 -0.39491438566E+02 -0.66071190381E+01  0.40659140597E+02  0.00000000000E+00 0.  1.
         11    1    3    3    0    0 -0.30845219800E+00 -0.14215878765E+01  0.27521447579E+01  0.31129336450E+01  0.51100000000E-03 0. -1.
        -11    1    3    3    0    0  0.70307332254E+01  0.20662573169E+02 -0.28611911733E+01  0.22012713482E+02  0.51100000000E-03 0.  1.
         12    1    3    3    0    0 -0.13788961446E+02  0.20250453273E+02  0.67161654536E+01  0.25403212275E+02  0.00000000000E+00 0. -1.
</event>
<event>
 7    1  0.5138511E-013  0.5052887E+02  0.7816164E-02  0.1300439E+00
        -11   -1    0    0    0    0  0.00000000000E+00  0.00000000000E+00  0.45593999997E+02  0.45594000000E+02  0.51100000000E-03 0.  1.
         11   -1    0    0    0    0 -0.00000000000E+00 -0.00000000000E+00 -0.45593999997E+02  0.45594000000E+02  0.51100000000E-03 0. -1.
    9900012    2    1    2    0    0  0.11581840353E+02  0.29419703766E+02 -0.25563784112E+02  0.50528867523E+02  0.30000023324E+02 0.  0.
        -12    1    1    2    0    0 -0.11581840353E+02 -0.29419703766E+02  0.25563784112E+02  0.40659132477E+02  0.00000000000E+00 0.  1.
         11    1    3    3    0    0 -0.10279854925E+01  0.76184672630E+01  0.78087508524E+00  0.77270669578E+01  0.51100000000E-03 0. -1.
        -11    1    3    3    0    0 -0.49119023135E+01  0.10214390345E+02 -0.15382697609E+02  0.19107274543E+02  0.51100000000E-03 0.  1.
        -12    1    3    3    0    0  0.17521728159E+02  0.11586846158E+02 -0.10961961588E+02  0.23694526022E+02  0.00000000000E+00 0.  1.
</event>
<event>
 7    1  0.5138511E-013  0.5052886E+02  0.7816164E-02  0.1300439E+00
        -11   -1    0    0    0    0  0.00000000000E+00  0.00000000000E+00  0.45593999997E+02  0.45594000000E+02  0.51100000000E-03 0. -1.
         11   -1    0    0    0    0 -0.00000000000E+00 -0.00000000000E+00 -0.45593999997E+02  0.45594000000E+02  0.51100000000E-03 0.  1.
    9900012    2    1    2    0    0 -0.28892260588E+02 -0.17411190233E+02  0.22699196455E+02  0.50528858507E+02  0.29999995917E+02 0.  0.
        -12    1    1    2    0    0  0.28892260588E+02  0.17411190233E+02 -0.22699196455E+02  0.40659141493E+02  0.00000000000E+00 0.  1.
         11    1    3    3    0    0 -0.30004587405E+01  0.40081318412E+01  0.25042365827E+01  0.55981313519E+01  0.51100000000E-03 0. -1.
        -11    1    3    3    0    0  0.24093927035E+01 -0.73305796325E+01  0.60714084678E+00  0.77402319873E+01  0.51100000000E-03 0.  1.
         12    1    3    3    0    0 -0.28301194551E+02 -0.14088742442E+02  0.19587819026E+02  0.37190495168E+02  0.00000000000E+00 0. -1.
</event>
<event>
 7    1  0.5138511E-013  0.5052887E+02  0.7816164E-02  0.1300439E+00
        -11   -1    0    0    0    0  0.00000000000E+00  0.00000000000E+00  0.45593999997E+02  0.45594000000E+02  0.51100000000E-03 0.  1.
         11   -1    0    0    0    0 -0.00000000000E+00 -0.00000000000E+00 -0.45593999997E+02  0.45594000000E+02  0.51100000000E-03 0. -1.
    9900012    2    1    2    0    0  0.89471915637E+01 -0.51571492374E+01 -0.39325774986E+02  0.50528868143E+02  0.30000025207E+02 0.  0.
        -12    1    1    2    0    0 -0.89471915637E+01  0.51571492374E+01  0.39325774986E+02  0.40659131857E+02  0.00000000000E+00 0.  1.
         11    1    3    3    0    0  0.15571935586E+01 -0.18551795613E+01 -0.20541877279E+02  0.20684179109E+02  0.51100000000E-03 0. -1.
        -11    1    3    3    0    0  0.14044817222E+02  0.20644571185E+01 -0.14463468730E+02  0.20266001134E+02  0.51100000000E-03 0.  1.
        -12    1    3    3    0    0 -0.66548192169E+01 -0.53664267946E+01 -0.43204289763E+01  0.95786879002E+01  0.00000000000E+00 0.  1.
</event>
<event>
 7    1  0.5138511E-013  0.5052886E+02  0.7816164E-02  0.1300439E+00
        -11   -1    0    0    0    0  0.00000000000E+00  0.00000000000E+00  0.45593999997E+02  0.45594000000E+02  0.51100000000E-03 0. -1.
         11   -1    0    0    0    0 -0.00000000000E+00 -0.00000000000E+00 -0.45593999997E+02  0.45594000000E+02  0.51100000000E-03 0.  1.
    9900012    2    1    2    0    0 -0.36726481783E+02  0.15495676682E+02  0.80134236312E+01  0.50528863040E+02  0.30000009697E+02 0.  0.
        -12    1    1    2    0    0  0.36726481783E+02 -0.15495676682E+02 -0.80134236312E+01  0.40659136960E+02  0.00000000000E+00 0.  1.
         11    1    3    3    0    0 -0.16549945740E+02  0.12353019105E+02  0.75943111071E+01  0.22003893893E+02  0.51100000000E-03 0. -1.
        -11    1    3    3    0    0 -0.19288740648E+02 -0.52505698384E+01  0.13364031256E+01  0.20035218316E+02  0.51100000000E-03 0.  1.
         12    1    3    3    0    0 -0.88779539506E+00  0.83932274162E+01 -0.91729060159E+00  0.84897508309E+01  0.00000000000E+00 0. -1.
</event>
<event>
 7    1  0.5138511E-013  0.5052885E+02  0.7816164E-02  0.1300439E+00
        -11   -1    0    0    0    0  0.00000000000E+00  0.00000000000E+00  0.45593999997E+02  0.45594000000E+02  0.51100000000E-03 0.  1.
         11   -1    0    0    0    0 -0.00000000000E+00 -0.00000000000E+00 -0.45593999997E+02  0.45594000000E+02  0.51100000000E-03 0. -1.
    9900012    2    1    2    0    0  0.21907339936E+01  0.10005071535E+02 -0.39348007168E+02  0.50528850477E+02  0.29999971509E+02 0.  0.
        -12    1    1    2    0    0 -0.21907339936E+01 -0.10005071535E+02  0.39348007168E+02  0.40659149523E+02  0.00000000000E+00 0.  1.
         11    1    3    3    0    0  0.32168185214E+01  0.13163678475E+02 -0.36104945683E+02  0.38564199142E+02  0.51100000000E-03 0.  1.
        -11    1    3    3    0    0 -0.21841577533E+01  0.14146357553E+01 -0.59722065349E+01  0.65145215149E+01  0.51100000000E-03 0. -1.
        -12    1    3    3    0    0  0.11580732255E+01 -0.45732426960E+01  0.27291450496E+01  0.54501298200E+01  0.00000000000E+00 0.  1.
</event>
<event>
 7    1  0.5138511E-013  0.5052887E+02  0.7816164E-02  0.1300439E+00
        -11   -1    0    0    0    0  0.00000000000E+00  0.00000000000E+00  0.45593999997E+02  0.45594000000E+02  0.51100000000E-03 0.  1.
         11   -1    0    0    0    0 -0.00000000000E+00 -0.00000000000E+00 -0.45593999997E+02  0.45594000000E+02  0.51100000000E-03 0. -1.
    9900012    2    1    2    0    0  0.31710313515E+01 -0.38854238148E+02 -0.11552378472E+02  0.50528871747E+02  0.30000036163E+02 0.  0.
        -12    1    1    2    0    0 -0.31710313515E+01  0.38854238148E+02  0.11552378472E+02  0.40659128253E+02  0.00000000000E+00 0.  1.
         11    1    3    3    0    0  0.43573589565E+01 -0.15846079089E+02 -0.10052451508E+01  0.16464972446E+02  0.51100000000E-03 0. -1.
        -11    1    3    3    0    0  0.41624515136E+01 -0.29596009360E+00  0.46266417642E+01  0.62305223902E+01  0.51100000000E-03 0.  1.
        -12    1    3    3    0    0 -0.53487791187E+01 -0.22712198965E+02 -0.15173775085E+02  0.27833376910E+02  0.00000000000E+00 0.  1.
</event>
<event>
 7    1  0.5138511E-013  0.5052886E+02  0.7816164E-02  0.1300439E+00
        -11   -1    0    0    0    0  0.00000000000E+00  0.00000000000E+00  0.45593999997E+02  0.45594000000E+02  0.51100000000E-03 0.  1.
         11   -1    0    0    0    0 -0.00000000000E+00 -0.00000000000E+00 -0.45593999997E+02  0.45594000000E+02  0.51100000000E-03 0. -1.
    9900012    2    1    2    0    0 -0.16432510248E+01 -0.33203866287E+02 -0.23408729486E+02  0.50528860481E+02  0.30000001917E+02 0.  0.
        -12    1    1    2    0    0  0.16432510248E+01  0.33203866287E+02  0.23408729486E+02  0.40659139519E+02  0.00000000000E+00 0.  1.
         11    1    3    3    0    0 -0.42523393057E+01 -0.11461991973E+02 -0.12765769375E+02  0.17675534435E+02  0.51100000000E-03 0. -1.
        -11    1    3    3    0    0  0.74960114051E+01 -0.86494888371E+01 -0.14388217740E+02  0.18385446802E+02  0.51100000000E-03 0.  1.
         12    1    3    3    0    0 -0.48869231243E+01 -0.13092385477E+02  0.37452576293E+01  0.14467879244E+02  0.00000000000E+00 0. -1.
</event>
<event>
 7    1  0.5138511E-013  0.5052886E+02  0.7816164E-02  0.1300439E+00
        -11   -1    0    0    0    0  0.00000000000E+00  0.00000000000E+00  0.45593999997E+02  0.45594000000E+02  0.51100000000E-03 0. -1.
         11   -1    0    0    0    0 -0.00000000000E+00 -0.00000000000E+00 -0.45593999997E+02  0.45594000000E+02  0.51100000000E-03 0.  1.
    9900012    2    1    2    0    0 -0.17381826598E+01  0.23243919085E+02  0.33314635280E+02  0.50528856166E+02  0.29999988804E+02 0.  0.
        -12    1    1    2    0    0  0.17381826598E+01 -0.23243919085E+02 -0.33314635280E+02  0.40659143834E+02  0.00000000000E+00 0.  1.
         11    1    3    3    0    0  0.10644553603E+01 -0.40512349396E+01  0.73717042468E+01  0.84786551713E+01  0.51100000000E-03 0. -1.
        -11    1    3    3    0    0 -0.58407276214E+01  0.66250835448E+01  0.17332918162E+02  0.19453428577E+02  0.51100000000E-03 0.  1.
         12    1    3    3    0    0  0.30380896012E+01  0.20670070480E+02  0.86100128717E+01  0.22596772418E+02  0.00000000000E+00 0. -1.
</event>
<event>
 7    1  0.5138511E-013  0.5052887E+02  0.7816164E-02  0.1300439E+00
        -11   -1    0    0    0    0  0.00000000000E+00  0.00000000000E+00  0.45593999997E+02  0.45594000000E+02  0.51100000000E-03 0.  1.
         11   -1    0    0    0    0 -0.00000000000E+00 -0.00000000000E+00 -0.45593999997E+02  0.45594000000E+02  0.51100000000E-03 0. -1.
    9900012    2    1    2    0    0 -0.28239169986E+02  0.97335965588E+01 -0.27585713980E+02  0.50528865243E+02  0.30000016392E+02 0.  0.
        -12    1    1    2    0    0  0.28239169986E+02 -0.97335965588E+01  0.27585713980E+02  0.40659134757E+02  0.00000000000E+00 0.  1.
         11    1    3    3    0    0 -0.16795168386E+02  0.18004522562E+02 -0.21764658693E+02  0.32862453988E+02  0.51100000000E-03 0. -1.
        -11    1    3    3    0    0 -0.40567554629E+00  0.10742866725E+01  0.11376505005E+01  0.16164508734E+01  0.51100000000E-03 0.  1.
         12    1    3    3    0    0 -0.11038326053E+02 -0.93452126761E+01 -0.69587057875E+01  0.16049960382E+02  0.00000000000E+00 0. -1.
</event>
<event>
 7    1  0.5138511E-013  0.5052892E+02  0.7816164E-02  0.1300439E+00
        -11   -1    0    0    0    0  0.00000000000E+00  0.00000000000E+00  0.45593999997E+02  0.45594000000E+02  0.51100000000E-03 0.  1.
         11   -1    0    0    0    0 -0.00000000000E+00 -0.00000000000E+00 -0.45593999997E+02  0.45594000000E+02  0.51100000000E-03 0. -1.
    9900012    2    1    2    0    0  0.30139127241E+02  0.29981588041E+01 -0.27125719688E+02  0.50528922100E+02  0.30000189215E+02 0.  0.
        -12    1    1    2    0    0 -0.30139127241E+02 -0.29981588041E+01  0.27125719688E+02  0.40659077900E+02  0.00000000000E+00 0.  1.
         11    1    3    3    0    0  0.25231544445E+02  0.55071927879E+00 -0.24066364675E+02  0.34872969988E+02  0.51100000000E-03 0. -1.
        -11    1    3    3    0    0  0.25258189484E+01  0.82186674333E+01 -0.37386889612E+01  0.93757160339E+01  0.51100000000E-03 0.  1.
        -12    1    3    3    0    0  0.23817638473E+01 -0.57712279079E+01  0.67933394854E+00  0.62802360786E+01  0.00000000000E+00 0.  1.
</event>
<event>
 7    1  0.5138511E-013  0.5052886E+02  0.7816164E-02  0.1300439E+00
        -11   -1    0    0    0    0  0.00000000000E+00  0.00000000000E+00  0.45593999997E+02  0.45594000000E+02  0.51100000000E-03 0.  1.
         11   -1    0    0    0    0 -0.00000000000E+00 -0.00000000000E+00 -0.45593999997E+02  0.45594000000E+02  0.51100000000E-03 0. -1.
    9900012    2    1    2    0    0 -0.49690728245E+01  0.26669685323E+02 -0.30285345010E+02  0.50528856843E+02  0.29999990859E+02 0.  0.
        -12    1    1    2    0    0  0.49690728245E+01 -0.26669685323E+02  0.30285345010E+02  0.40659143157E+02  0.00000000000E+00 0.  1.
         11    1    3    3    0    0 -0.40195955715E+01  0.62861423330E+01 -0.20453247072E+02  0.21771725932E+02  0.51100000000E-03 0. -1.
        -11    1    3    3    0    0  0.51503195010E+01  0.22608528060E-01 -0.45101077132E+01  0.68459750185E+01  0.51100000000E-03 0.  1.
         12    1    3    3    0    0 -0.60997967539E+01  0.20360934462E+02 -0.53219902241E+01  0.21911155892E+02  0.00000000000E+00 0. -1.
</event>
<event>
 7    1  0.5138511E-013  0.5052886E+02  0.7816164E-02  0.1300439E+00
        -11   -1    0    0    0    0  0.00000000000E+00  0.00000000000E+00  0.45593999997E+02  0.45594000000E+02  0.51100000000E-03 0. -1.
         11   -1    0    0    0    0 -0.00000000000E+00 -0.00000000000E+00 -0.45593999997E+02  0.45594000000E+02  0.51100000000E-03 0.  1.
    9900012    2    1    2    0    0 -0.17928988730E+02 -0.12522761011E+01  0.36471206243E+02  0.50528859365E+02  0.29999998526E+02 0.  0.
        -12    1    1    2    0    0  0.17928988730E+02  0.12522761011E+01 -0.36471206243E+02  0.40659140635E+02  0.00000000000E+00 0.  1.
         11    1    3    3    0    0 -0.84872312308E+00 -0.13482198441E+00 -0.18768585597E+01  0.20642447097E+01  0.51100000000E-03 0.  1.
        -11    1    3    3    0    0  0.39938374776E+01  0.16021891004E+01  0.19790556183E+02  0.20252996371E+02  0.51100000000E-03 0. -1.
         12    1    3    3    0    0 -0.21074103085E+02 -0.27196432171E+01  0.18557508620E+02  0.28211618285E+02  0.00000000000E+00 0. -1.
</event>
<event>
 7    1  0.5138511E-013  0.5052886E+02  0.7816164E-02  0.1300439E+00
        -11   -1    0    0    0    0  0.00000000000E+00  0.00000000000E+00  0.45593999997E+02  0.45594000000E+02  0.51100000000E-03 0. -1.
         11   -1    0    0    0    0 -0.00000000000E+00 -0.00000000000E+00 -0.45593999997E+02  0.45594000000E+02  0.51100000000E-03 0.  1.
    9900012    2    1    2    0    0  0.26721046424E+01 -0.84656174504E+01  0.39678190841E+02  0.50528860186E+02  0.30000001020E+02 0.  0.
        -12    1    1    2    0    0 -0.26721046424E+01  0.84656174504E+01 -0.39678190841E+02  0.40659139814E+02  0.00000000000E+00 0.  1.
         11    1    3    3    0    0  0.12677803825E+02 -0.15190167260E+01  0.29278259218E+02  0.31941361660E+02  0.51100000000E-03 0. -1.
        -11    1    3    3    0    0 -0.96770452368E+00  0.22847291992E+01  0.18594718137E+01  0.31006572280E+01  0.51100000000E-03 0.  1.
         12    1    3    3    0    0 -0.90379946586E+01 -0.92313299236E+01  0.85404598097E+01  0.15486841297E+02  0.00000000000E+00 0. -1.
</event>
<event>
 7    1  0.5138511E-013  0.5052886E+02  0.7816164E-02  0.1300439E+00
        -11   -1    0    0    0    0  0.00000000000E+00  0.00000000000E+00  0.45593999997E+02  0.45594000000E+02  0.51100000000E-03 0.  1.
         11   -1    0    0    0    0 -0.00000000000E+00 -0.00000000000E+00 -0.45593999997E+02  0.45594000000E+02  0.51100000000E-03 0. -1.
    9900012    2    1    2    0    0 -0.27925546347E+02 -0.32628562557E+01 -0.29371476539E+02  0.50528855840E+02  0.29999987813E+02 0.  0.
        -12    1    1    2    0    0  0.27925546347E+02  0.32628562557E+01  0.29371476539E+02  0.40659144160E+02  0.00000000000E+00 0.  1.
         11    1    3    3    0    0 -0.59447732472E+01 -0.67442433139E+01 -0.37942794198E+01  0.97581608623E+01  0.51100000000E-03 0.  1.
        -11    1    3    3    0    0 -0.25909726386E+02  0.32499378499E+01 -0.16531247854E+02  0.30905633358E+02  0.51100000000E-03 0. -1.
         12    1    3    3    0    0  0.39289532858E+01  0.23144920834E+00 -0.90459492650E+01  0.98650616198E+01  0.00000000000E+00 0. -1.
</event>
<event>
 7    1  0.8951958E-013  0.5052886E+02  0.7816164E-02  0.1300439E+00
        -11   -1    0    0    0    0  0.00000000000E+00  0.00000000000E+00  0.45593999997E+02  0.45594000000E+02  0.51100000000E-03 0.  1.
         11   -1    0    0    0    0 -0.00000000000E+00 -0.00000000000E+00 -0.45593999997E+02  0.45594000000E+02  0.51100000000E-03 0. -1.
    9900012    2    1    2    0    0  0.11488205284E+02 -0.33119629144E+02 -0.20597978814E+02  0.50528862940E+02  0.30000009391E+02 0.  0.
        -12    1    1    2    0    0 -0.11488205284E+02  0.33119629144E+02  0.20597978814E+02  0.40659137060E+02  0.00000000000E+00 0.  1.
         11    1    3    3    0    0  0.61531451861E+01 -0.13990160239E+02 -0.98606395693E+01  0.18188402683E+02  0.51100000000E-03 0. -1.
        -11    1    3    3    0    0 -0.40459428401E+01 -0.20310856779E+02 -0.95680559102E+01  0.22813334932E+02  0.51100000000E-03 0.  1.
        -12    1    3    3    0    0  0.93810029375E+01  0.11813878743E+01 -0.11692833347E+01  0.95271253241E+01  0.00000000000E+00 0.  1.
</event>
<event>
 7    1  0.5138511E-013  0.5052886E+02  0.7816164E-02  0.1300439E+00
        -11   -1    0    0    0    0  0.00000000000E+00  0.00000000000E+00  0.45593999997E+02  0.45594000000E+02  0.51100000000E-03 0.  1.
         11   -1    0    0    0    0 -0.00000000000E+00 -0.00000000000E+00 -0.45593999997E+02  0.45594000000E+02  0.51100000000E-03 0. -1.
    9900012    2    1    2    0    0 -0.26093584456E+01 -0.13081945732E+02 -0.38408587251E+02  0.50528860434E+02  0.30000001775E+02 0.  0.
        -12    1    1    2    0    0  0.26093584456E+01  0.13081945732E+02  0.38408587251E+02  0.40659139566E+02  0.00000000000E+00 0.  1.
         11    1    3    3    0    0  0.34241565506E+01 -0.37881378594E+00 -0.25492572071E+02  0.25724299389E+02  0.51100000000E-03 0. -1.
        -11    1    3    3    0    0  0.28499087978E+01 -0.66606441017E+01  0.90268278281E+00  0.73007531443E+01  0.51100000000E-03 0.  1.
         12    1    3    3    0    0 -0.88834237941E+01 -0.60424878442E+01 -0.13818697963E+02  0.17503807901E+02  0.00000000000E+00 0. -1.
</event>
<event>
 7    1  0.5138511E-013  0.5052886E+02  0.7816164E-02  0.1300439E+00
        -11   -1    0    0    0    0  0.00000000000E+00  0.00000000000E+00  0.45593999997E+02  0.45594000000E+02  0.51100000000E-03 0. -1.
         11   -1    0    0    0    0 -0.00000000000E+00 -0.00000000000E+00 -0.45593999997E+02  0.45594000000E+02  0.51100000000E-03 0.  1.
    9900012    2    1    2    0    0 -0.30619517338E+02 -0.25616235796E+02  0.77084017191E+01  0.50528857910E+02  0.29999994105E+02 0.  0.
        -12    1    1    2    0    0  0.30619517338E+02  0.25616235796E+02 -0.77084017191E+01  0.40659142090E+02  0.00000000000E+00 0.  1.
         11    1    3    3    0    0 -0.48490145277E+01  0.58085718346E+00  0.20466743556E+01  0.52952066188E+01  0.51100000000E-03 0. -1.
        -11    1    3    3    0    0 -0.17281003747E+02 -0.21887368356E+02  0.15196921265E+02  0.31759036513E+02  0.51100000000E-03 0.  1.
        -12    1    3    3    0    0 -0.84894990638E+01 -0.43097246240E+01 -0.95351939017E+01  0.13474614779E+02  0.00000000000E+00 0.  1.
</event>
<event>
 7    1  0.5138511E-013  0.5052887E+02  0.7816164E-02  0.1300439E+00
        -11   -1    0    0    0    0  0.00000000000E+00  0.00000000000E+00  0.45593999997E+02  0.45594000000E+02  0.51100000000E-03 0.  1.
         11   -1    0    0    0    0 -0.00000000000E+00 -0.00000000000E+00 -0.45593999997E+02  0.45594000000E+02  0.51100000000E-03 0. -1.
    9900012    2    1    2    0    0  0.34844628852E+02 -0.13174484851E+02 -0.16292635077E+02  0.50528866110E+02  0.30000019027E+02 0.  0.
        -12    1    1    2    0    0 -0.34844628852E+02  0.13174484851E+02  0.16292635077E+02  0.40659133890E+02  0.00000000000E+00 0.  1.
         11    1    3    3    0    0  0.81158961970E+01  0.16434271398E+01 -0.98063761925E+01  0.12834860269E+02  0.51100000000E-03 0. -1.
        -11    1    3    3    0    0  0.97985096986E+01  0.41509544819E+01 -0.60996443368E+01  0.12265678812E+02  0.51100000000E-03 0.  1.
        -12    1    3    3    0    0  0.16930222957E+02 -0.18968866473E+02 -0.38661454775E+00  0.25428327028E+02  0.00000000000E+00 0.  1.
</event>
<event>
 7    1  0.5138511E-013  0.5052886E+02  0.7816164E-02  0.1300439E+00
        -11   -1    0    0    0    0  0.00000000000E+00  0.00000000000E+00  0.45593999997E+02  0.45594000000E+02  0.51100000000E-03 0. -1.
         11   -1    0    0    0    0 -0.00000000000E+00 -0.00000000000E+00 -0.45593999997E+02  0.45594000000E+02  0.51100000000E-03 0.  1.
    9900012    2    1    2    0    0  0.20349256866E+02  0.32644092725E+02  0.13169535074E+02  0.50528859589E+02  0.29999999208E+02 0.  0.
        -12    1    1    2    0    0 -0.20349256866E+02 -0.32644092725E+02 -0.13169535074E+02  0.40659140411E+02  0.00000000000E+00 0.  1.
         11    1    3    3    0    0 -0.14294080568E+01  0.10039471362E+02  0.41364631889E+01  0.10951918581E+02  0.51100000000E-03 0. -1.
        -11    1    3    3    0    0  0.16751650035E+01 -0.22819615577E+01 -0.41098213578E+01  0.49904066161E+01  0.51100000000E-03 0.  1.
         12    1    3    3    0    0  0.20103499919E+02  0.24886582921E+02  0.13142893243E+02  0.34586534393E+02  0.00000000000E+00 0. -1.
</event>
<event>
 7    1  0.5138511E-013  0.5052890E+02  0.7816164E-02  0.1300439E+00
        -11   -1    0    0    0    0  0.00000000000E+00  0.00000000000E+00  0.45593999997E+02  0.45594000000E+02  0.51100000000E-03 0.  1.
         11   -1    0    0    0    0 -0.00000000000E+00 -0.00000000000E+00 -0.45593999997E+02  0.45594000000E+02  0.51100000000E-03 0. -1.
    9900012    2    1    2    0    0  0.19559630670E+02 -0.86328509798E+01 -0.34584063142E+02  0.50528896575E+02  0.30000111628E+02 0.  0.
        -12    1    1    2    0    0 -0.19559630670E+02  0.86328509798E+01  0.34584063142E+02  0.40659103425E+02  0.00000000000E+00 0.  1.
         11    1    3    3    0    0  0.84849448587E+01  0.71532502992E+01 -0.60060242051E+01  0.12618859145E+02  0.51100000000E-03 0. -1.
        -11    1    3    3    0    0  0.11667651276E+02 -0.31499013468E+01 -0.11733278086E+02  0.16844161590E+02  0.51100000000E-03 0.  1.
        -12    1    3    3    0    0 -0.59296546464E+00 -0.12636199932E+02 -0.16844760851E+02  0.21065875839E+02  0.00000000000E+00 0.  1.
</event>
<event>
 7    1  0.5138511E-013  0.5052887E+02  0.7816164E-02  0.1300439E+00
        -11   -1    0    0    0    0  0.00000000000E+00  0.00000000000E+00  0.45593999997E+02  0.45594000000E+02  0.51100000000E-03 0. -1.
         11   -1    0    0    0    0 -0.00000000000E+00 -0.00000000000E+00 -0.45593999997E+02  0.45594000000E+02  0.51100000000E-03 0.  1.
    9900012    2    1    2    0    0 -0.10810474028E+02 -0.37940334953E+02  0.98402111207E+01  0.50528866709E+02  0.30000020848E+02 0.  0.
        -12    1    1    2    0    0  0.10810474028E+02  0.37940334953E+02 -0.98402111207E+01  0.40659133291E+02  0.00000000000E+00 0.  1.
         11    1    3    3    0    0 -0.60322819837E+01  0.38558646695E+00  0.64641972646E-01  0.60449385191E+01  0.51100000000E-03 0.  1.
        -11    1    3    3    0    0  0.42177626895E+01 -0.33102680157E+01  0.61358820630E+01  0.81484014010E+01  0.51100000000E-03 0. -1.
         12    1    3    3    0    0 -0.89959547340E+01 -0.35015653405E+02  0.36396870851E+01  0.36335526789E+02  0.00000000000E+00 0. -1.
</event>
<event>
 7    1  0.5138511E-013  0.5052885E+02  0.7816164E-02  0.1300439E+00
        -11   -1    0    0    0    0  0.00000000000E+00  0.00000000000E+00  0.45593999997E+02  0.45594000000E+02  0.51100000000E-03 0. -1.
         11   -1    0    0    0    0 -0.00000000000E+00 -0.00000000000E+00 -0.45593999997E+02  0.45594000000E+02  0.51100000000E-03 0.  1.
    9900012    2    1    2    0    0 -0.32943851992E+01 -0.13569691156E+02  0.38186078816E+02  0.50528854568E+02  0.29999983945E+02 0.  0.
        -12    1    1    2    0    0  0.32943851992E+01  0.13569691156E+02 -0.38186078816E+02  0.40659145432E+02  0.00000000000E+00 0.  1.
         11    1    3    3    0    0  0.23030779712E+01 -0.16214858253E+02  0.13647121256E+02  0.21318295315E+02  0.51100000000E-03 0. -1.
        -11    1    3    3    0    0  0.10259250271E+01 -0.53248100311E+01  0.96691440585E+01  0.11085958286E+02  0.51100000000E-03 0.  1.
        -12    1    3    3    0    0 -0.66233881974E+01  0.79699771282E+01  0.14869813502E+02  0.18124600967E+02  0.00000000000E+00 0.  1.
</event>
<event>
 7    1  0.5138511E-013  0.5052887E+02  0.7816164E-02  0.1300439E+00
        -11   -1    0    0    0    0  0.00000000000E+00  0.00000000000E+00  0.45593999997E+02  0.45594000000E+02  0.51100000000E-03 0.  1.
         11   -1    0    0    0    0 -0.00000000000E+00 -0.00000000000E+00 -0.45593999997E+02  0.45594000000E+02  0.51100000000E-03 0. -1.
    9900012    2    1    2    0    0 -0.14424429484E+02 -0.17666563891E+01 -0.37973404944E+02  0.50528871581E+02  0.30000035659E+02 0.  0.
        -12    1    1    2    0    0  0.14424429484E+02  0.17666563891E+01  0.37973404944E+02  0.40659128419E+02  0.00000000000E+00 0.  1.
         11    1    3    3    0    0 -0.61915835804E+01 -0.83438268710E+00  0.78633906741E+00  0.62968429464E+01  0.51100000000E-03 0. -1.
        -11    1    3    3    0    0 -0.34007037977E+01  0.93283597123E+01 -0.16738245516E+02  0.19461550412E+02  0.51100000000E-03 0.  1.
         12    1    3    3    0    0 -0.48321421064E+01 -0.10260633414E+02 -0.22021498495E+02  0.24770478223E+02  0.00000000000E+00 0. -1.
</event>
<event>
 7    1  0.5138511E-013  0.5052886E+02  0.7816164E-02  0.1300439E+00
        -11   -1    0    0    0    0  0.00000000000E+00  0.00000000000E+00  0.45593999997E+02  0.45594000000E+02  0.51100000000E-03 0.  1.
         11   -1    0    0    0    0 -0.00000000000E+00 -0.00000000000E+00 -0.45593999997E+02  0.45594000000E+02  0.51100000000E-03 0. -1.
    9900012    2    1    2    0    0  0.19424007673E+01  0.85574311524E+00 -0.40603698565E+02  0.50528861369E+02  0.30000004618E+02 0.  0.
        -12    1    1    2    0    0 -0.19424007673E+01 -0.85574311524E+00  0.40603698565E+02  0.40659138631E+02  0.00000000000E+00 0.  1.
         11    1    3    3    0    0 -0.10755851584E+02  0.38127542894E+01 -0.19429840132E+02  0.22533178346E+02  0.51100000000E-03 0. -1.
        -11    1    3    3    0    0 -0.26560526712E+01 -0.94430676837E+00 -0.36038043113E+01  0.45753400791E+01  0.51100000000E-03 0.  1.
         12    1    3    3    0    0  0.15354305023E+02 -0.20127044058E+01 -0.17570054122E+02  0.23420342944E+02  0.00000000000E+00 0. -1.
</event>
<event>
 7    1  0.5138511E-013  0.5052886E+02  0.7816164E-02  0.1300439E+00
        -11   -1    0    0    0    0  0.00000000000E+00  0.00000000000E+00  0.45593999997E+02  0.45594000000E+02  0.51100000000E-03 0.  1.
         11   -1    0    0    0    0 -0.00000000000E+00 -0.00000000000E+00 -0.45593999997E+02  0.45594000000E+02  0.51100000000E-03 0. -1.
    9900012    2    1    2    0    0 -0.77152321661E+01  0.36322984314E+02  0.16561453347E+02  0.50528859160E+02  0.29999997902E+02 0.  0.
        -12    1    1    2    0    0  0.77152321661E+01 -0.36322984314E+02 -0.16561453347E+02  0.40659140840E+02  0.00000000000E+00 0.  1.
         11    1    3    3    0    0  0.10755697075E+01  0.10797196869E+02 -0.49319760599E+00  0.10861839373E+02  0.51100000000E-03 0. -1.
        -11    1    3    3    0    0  0.20720119345E+00 -0.21918539313E+01 -0.34090015834E+01  0.40581335670E+01  0.51100000000E-03 0.  1.
        -12    1    3    3    0    0 -0.89980030670E+01  0.27717641377E+02  0.20463652537E+02  0.35608886220E+02  0.00000000000E+00 0.  1.
</event>
<event>
 7    1  0.5138511E-013  0.5052886E+02  0.7816164E-02  0.1300439E+00
        -11   -1    0    0    0    0  0.00000000000E+00  0.00000000000E+00  0.45593999997E+02  0.45594000000E+02  0.51100000000E-03 0. -1.
         11   -1    0    0    0    0 -0.00000000000E+00 -0.00000000000E+00 -0.45593999997E+02  0.45594000000E+02  0.51100000000E-03 0.  1.
    9900012    2    1    2    0    0 -0.32222412166E+02 -0.24753672379E+02 -0.14621022351E+01  0.50528857302E+02  0.29999992254E+02 0.  0.
        -12    1    1    2    0    0  0.32222412166E+02  0.24753672379E+02  0.14621022351E+01  0.40659142698E+02  0.00000000000E+00 0.  1.
         11    1    3    3    0    0  0.36935439653E+00  0.14830954634E+01 -0.36270682438E+01  0.39359394215E+01  0.51100000000E-03 0. -1.
        -11    1    3    3    0    0 -0.21701885186E+02 -0.63564058177E+01 -0.43057181612E+01  0.23019881075E+02  0.51100000000E-03 0.  1.
         12    1    3    3    0    0 -0.10889881376E+02 -0.19880362024E+02  0.64706841698E+01  0.23573036806E+02  0.00000000000E+00 0. -1.
</event>
<event>
 7    1  0.5138511E-013  0.5052887E+02  0.7816164E-02  0.1300439E+00
        -11   -1    0    0    0    0  0.00000000000E+00  0.00000000000E+00  0.45593999997E+02  0.45594000000E+02  0.51100000000E-03 0.  1.
         11   -1    0    0    0    0 -0.00000000000E+00 -0.00000000000E+00 -0.45593999997E+02  0.45594000000E+02  0.51100000000E-03 0. -1.
    9900012    2    1    2    0    0 -0.52858615145E+01 -0.36130718652E+02 -0.17882836521E+02  0.50528868131E+02  0.30000025171E+02 0.  0.
        -12    1    1    2    0    0  0.52858615145E+01  0.36130718652E+02  0.17882836521E+02  0.40659131869E+02  0.00000000000E+00 0.  1.
         11    1    3    3    0    0 -0.10058361487E+02 -0.69579350816E+01 -0.32790673922E+01  0.12662376539E+02  0.51100000000E-03 0. -1.
        -11    1    3    3    0    0  0.29328137439E+00  0.70222375360E+00 -0.65613492193E+01  0.66053339056E+01  0.51100000000E-03 0.  1.
         12    1    3    3    0    0  0.44792185976E+01 -0.29875007324E+02 -0.80424199098E+01  0.31261157686E+02  0.00000000000E+00 0. -1.
</event>
<event>
 7    1  0.5138511E-013  0.5052885E+02  0.7816164E-02  0.1300439E+00
        -11   -1    0    0    0    0  0.00000000000E+00  0.00000000000E+00  0.45593999997E+02  0.45594000000E+02  0.51100000000E-03 0. -1.
         11   -1    0    0    0    0 -0.00000000000E+00 -0.00000000000E+00 -0.45593999997E+02  0.45594000000E+02  0.51100000000E-03 0.  1.
    9900012    2    1    2    0    0  0.12794051992E+02 -0.20379287968E+02  0.32774425665E+02  0.50528854385E+02  0.29999983389E+02 0.  0.
        -12    1    1    2    0    0 -0.12794051992E+02  0.20379287968E+02 -0.32774425665E+02  0.40659145615E+02  0.00000000000E+00 0.  1.
         11    1    3    3    0    0  0.11115133925E+02 -0.91809134469E+01  0.24382607189E+01  0.14621234198E+02  0.51100000000E-03 0. -1.
        -11    1    3    3    0    0  0.13258663615E+01  0.34592790669E+01  0.11222257690E+02  0.11817935572E+02  0.51100000000E-03 0.  1.
         12    1    3    3    0    0  0.35305170494E+00 -0.14657653588E+02  0.19113907257E+02  0.24089684614E+02  0.00000000000E+00 0. -1.
</event>
<event>
 7    1  0.5138511E-013  0.5052886E+02  0.7816164E-02  0.1300439E+00
        -11   -1    0    0    0    0  0.00000000000E+00  0.00000000000E+00  0.45593999997E+02  0.45594000000E+02  0.51100000000E-03 0. -1.
         11   -1    0    0    0    0 -0.00000000000E+00 -0.00000000000E+00 -0.45593999997E+02  0.45594000000E+02  0.51100000000E-03 0.  1.
    9900012    2    1    2    0    0  0.14180140811E+02 -0.13052867505E+02  0.35801004962E+02  0.50528859579E+02  0.29999999175E+02 0.  0.
        -12    1    1    2    0    0 -0.14180140811E+02  0.13052867505E+02 -0.35801004962E+02  0.40659140421E+02  0.00000000000E+00 0.  1.
         11    1    3    3    0    0  0.12910984661E+02 -0.10218359262E+02  0.28823770390E+02  0.33195152217E+02  0.51100000000E-03 0. -1.
        -11    1    3    3    0    0  0.53062457544E+00  0.32624490326E+01  0.99686876719E+01  0.10502374507E+02  0.51100000000E-03 0.  1.
         12    1    3    3    0    0  0.73853157425E+00 -0.60969572763E+01 -0.29914531005E+01  0.68313328544E+01  0.00000000000E+00 0. -1.
</event>
<event>
 7    1  0.5138511E-013  0.5052884E+02  0.7816164E-02  0.1300439E+00
        -11   -1    0    0    0    0  0.00000000000E+00  0.00000000000E+00  0.45593999997E+02  0.45594000000E+02  0.51100000000E-03 0.  1.
         11   -1    0    0    0    0 -0.00000000000E+00 -0.00000000000E+00 -0.45593999997E+02  0.45594000000E+02  0.51100000000E-03 0. -1.
    9900012    2    1    2    0    0 -0.32776038083E+02  0.16581071181E+02 -0.17434632646E+02  0.50528843474E+02  0.29999950222E+02 0.  0.
        -12    1    1    2    0    0  0.32776038083E+02 -0.16581071181E+02  0.17434632646E+02  0.40659156526E+02  0.00000000000E+00 0.  1.
         11    1    3    3    0    0 -0.62862419624E+01  0.93908195557E+01  0.26088848392E+01  0.11597870938E+02  0.51100000000E-03 0. -1.
        -11    1    3    3    0    0 -0.25768635080E+01  0.42192467170E+01 -0.12873337597E+02  0.13790035879E+02  0.51100000000E-03 0.  1.
         12    1    3    3    0    0 -0.23912932613E+02  0.29710049081E+01 -0.71701798877E+01  0.25140936656E+02  0.00000000000E+00 0. -1.
</event>
<event>
 7    1  0.5138511E-013  0.5052886E+02  0.7816164E-02  0.1300439E+00
        -11   -1    0    0    0    0  0.00000000000E+00  0.00000000000E+00  0.45593999997E+02  0.45594000000E+02  0.51100000000E-03 0.  1.
         11   -1    0    0    0    0 -0.00000000000E+00 -0.00000000000E+00 -0.45593999997E+02  0.45594000000E+02  0.51100000000E-03 0. -1.
    9900012    2    1    2    0    0  0.91379716457E+01 -0.30863869478E+02 -0.24841187340E+02  0.50528861379E+02  0.30000004649E+02 0.  0.
        -12    1    1    2    0    0 -0.91379716457E+01  0.30863869478E+02  0.24841187340E+02  0.40659138621E+02  0.00000000000E+00 0.  1.
         11    1    3    3    0    0  0.72081717263E+01 -0.99109877145E+01 -0.49487164214E+01  0.13216475006E+02  0.51100000000E-03 0. -1.
        -11    1    3    3    0    0 -0.13279148771E+00  0.48676087270E+01 -0.38302887733E+00  0.48844610430E+01  0.51100000000E-03 0.  1.
         12    1    3    3    0    0  0.20625914071E+01 -0.25820490490E+02 -0.19509442041E+02  0.32427925330E+02  0.00000000000E+00 0. -1.
</event>
<event>
 7    1  0.5138511E-013  0.5052890E+02  0.7816164E-02  0.1300439E+00
        -11   -1    0    0    0    0  0.00000000000E+00  0.00000000000E+00  0.45593999997E+02  0.45594000000E+02  0.51100000000E-03 0.  1.
         11   -1    0    0    0    0 -0.00000000000E+00 -0.00000000000E+00 -0.45593999997E+02  0.45594000000E+02  0.51100000000E-03 0. -1.
    9900012    2    1    2    0    0  0.11445166776E+01 -0.12672607103E+01 -0.40623226322E+02  0.50528900343E+02  0.30000123082E+02 0.  0.
        -12    1    1    2    0    0 -0.11445166776E+01  0.12672607103E+01  0.40623226322E+02  0.40659099657E+02  0.00000000000E+00 0.  1.
         11    1    3    3    0    0  0.48015243954E+00 -0.35336497783E+01 -0.28231326301E+02  0.28455667487E+02  0.51100000000E-03 0. -1.
        -11    1    3    3    0    0  0.68619061307E+01  0.32327449141E+01 -0.13705695882E+02  0.15664689441E+02  0.51100000000E-03 0.  1.
        -12    1    3    3    0    0 -0.61975418927E+01 -0.96635584614E+00  0.13137958614E+01  0.64085434147E+01  0.00000000000E+00 0.  1.
</event>
<event>
 7    1  0.5138511E-013  0.5052884E+02  0.7816164E-02  0.1300439E+00
        -11   -1    0    0    0    0  0.00000000000E+00  0.00000000000E+00  0.45593999997E+02  0.45594000000E+02  0.51100000000E-03 0.  1.
         11   -1    0    0    0    0 -0.00000000000E+00 -0.00000000000E+00 -0.45593999997E+02  0.45594000000E+02  0.51100000000E-03 0. -1.
    9900012    2    1    2    0    0  0.12635367223E+02  0.37358556581E+02 -0.98920840194E+01  0.50528836446E+02  0.29999928860E+02 0.  0.
        -12    1    1    2    0    0 -0.12635367223E+02 -0.37358556581E+02  0.98920840194E+01  0.40659163554E+02  0.00000000000E+00 0.  1.
         11    1    3    3    0    0  0.80027376360E+00  0.86088813441E+01  0.18781135226E+01  0.88476317033E+01  0.51100000000E-03 0. -1.
        -11    1    3    3    0    0  0.33173298733E+01  0.24278662103E+02  0.23269863940E+01  0.24614487135E+02  0.51100000000E-03 0.  1.
        -12    1    3    3    0    0  0.85177635862E+01  0.44710131345E+01 -0.14097183936E+02  0.17066717607E+02  0.00000000000E+00 0.  1.
</event>
<event>
 7    1  0.5138511E-013  0.5052887E+02  0.7816164E-02  0.1300439E+00
        -11   -1    0    0    0    0  0.00000000000E+00  0.00000000000E+00  0.45593999997E+02  0.45594000000E+02  0.51100000000E-03 0. -1.
         11   -1    0    0    0    0 -0.00000000000E+00 -0.00000000000E+00 -0.45593999997E+02  0.45594000000E+02  0.51100000000E-03 0.  1.
    9900012    2    1    2    0    0 -0.26772692944E+02 -0.13241921984E+02 -0.27586937879E+02  0.50528871543E+02  0.30000035543E+02 0.  0.
        -12    1    1    2    0    0  0.26772692944E+02  0.13241921984E+02  0.27586937879E+02  0.40659128457E+02  0.00000000000E+00 0.  1.
         11    1    3    3    0    0  0.19775067319E+01  0.29233664151E+01 -0.59679639307E+01  0.69334838149E+01  0.51100000000E-03 0. -1.
        -11    1    3    3    0    0 -0.18895360561E+02 -0.12930243061E+01 -0.16273843593E+02  0.24970873996E+02  0.51100000000E-03 0.  1.
        -12    1    3    3    0    0 -0.98548391149E+01 -0.14872264094E+02 -0.53451303550E+01  0.18624513732E+02  0.00000000000E+00 0.  1.
</event>
<event>
 7    1  0.5138511E-013  0.5052886E+02  0.7816164E-02  0.1300439E+00
        -11   -1    0    0    0    0  0.00000000000E+00  0.00000000000E+00  0.45593999997E+02  0.45594000000E+02  0.51100000000E-03 0.  1.
         11   -1    0    0    0    0 -0.00000000000E+00 -0.00000000000E+00 -0.45593999997E+02  0.45594000000E+02  0.51100000000E-03 0. -1.
    9900012    2    1    2    0    0  0.31739101338E+00  0.22297072771E+02 -0.33998606906E+02  0.50528862494E+02  0.30000008037E+02 0.  0.
        -12    1    1    2    0    0 -0.31739101338E+00 -0.22297072771E+02  0.33998606906E+02  0.40659137506E+02  0.00000000000E+00 0.  1.
         11    1    3    3    0    0  0.48145388910E+01 -0.41335071608E+01 -0.96855111278E+01  0.11579066985E+02  0.51100000000E-03 0. -1.
        -11    1    3    3    0    0  0.50746457294E+01  0.76999743780E+01 -0.55521638849E+01  0.10764207299E+02  0.51100000000E-03 0.  1.
        -12    1    3    3    0    0 -0.95717936071E+01  0.18730605554E+02 -0.18760931893E+02  0.28185588210E+02  0.00000000000E+00 0.  1.
</event>
<event>
 7    1  0.5138511E-013  0.5052888E+02  0.7816164E-02  0.1300439E+00
        -11   -1    0    0    0    0  0.00000000000E+00  0.00000000000E+00  0.45593999997E+02  0.45594000000E+02  0.51100000000E-03 0.  1.
         11   -1    0    0    0    0 -0.00000000000E+00 -0.00000000000E+00 -0.45593999997E+02  0.45594000000E+02  0.51100000000E-03 0. -1.
    9900012    2    1    2    0    0  0.20762732442E+02  0.31207496586E+02 -0.15753267818E+02  0.50528876195E+02  0.30000049684E+02 0.  0.
        -12    1    1    2    0    0 -0.20762732442E+02 -0.31207496586E+02  0.15753267818E+02  0.40659123805E+02  0.00000000000E+00 0.  1.
         11    1    3    3    0    0 -0.36005422327E+01  0.15374318442E+00  0.30253750507E+01  0.47053624509E+01  0.51100000000E-03 0.  1.
        -11    1    3    3    0    0  0.36301598416E+01  0.85321658800E+01  0.10792032296E+01  0.93349126911E+01  0.51100000000E-03 0. -1.
        -12    1    3    3    0    0  0.20733114833E+02  0.22521587521E+02 -0.19857846099E+02  0.36488601053E+02  0.00000000000E+00 0.  1.
</event>
<event>
 7    1  0.5138511E-013  0.5052886E+02  0.7816164E-02  0.1300439E+00
        -11   -1    0    0    0    0  0.00000000000E+00  0.00000000000E+00  0.45593999997E+02  0.45594000000E+02  0.51100000000E-03 0.  1.
         11   -1    0    0    0    0 -0.00000000000E+00 -0.00000000000E+00 -0.45593999997E+02  0.45594000000E+02  0.51100000000E-03 0. -1.
    9900012    2    1    2    0    0 -0.31792291343E+02  0.23040341320E+02  0.10562130106E+02  0.50528859461E+02  0.29999998818E+02 0.  0.
        -12    1    1    2    0    0  0.31792291343E+02 -0.23040341320E+02 -0.10562130106E+02  0.40659140539E+02  0.00000000000E+00 0.  1.
         11    1    3    3    0    0 -0.12241894754E+01  0.12998180828E+02  0.94537946525E-01  0.13056043903E+02  0.51100000000E-03 0. -1.
        -11    1    3    3    0    0 -0.17395154477E+02  0.71974036285E+01 -0.22296068454E+01  0.18956929213E+02  0.51100000000E-03 0.  1.
        -12    1    3    3    0    0 -0.13172947391E+02  0.28447568637E+01  0.12697199005E+02  0.18515886345E+02  0.00000000000E+00 0.  1.
</event>
<event>
 7    1  0.5138511E-013  0.5052886E+02  0.7816164E-02  0.1300439E+00
        -11   -1    0    0    0    0  0.00000000000E+00  0.00000000000E+00  0.45593999997E+02  0.45594000000E+02  0.51100000000E-03 0.  1.
         11   -1    0    0    0    0 -0.00000000000E+00 -0.00000000000E+00 -0.45593999997E+02  0.45594000000E+02  0.51100000000E-03 0. -1.
    9900012    2    1    2    0    0  0.11241499369E+00 -0.20942903165E+02 -0.34850364666E+02  0.50528858993E+02  0.29999997394E+02 0.  0.
        -12    1    1    2    0    0 -0.11241499369E+00  0.20942903165E+02  0.34850364666E+02  0.40659141007E+02  0.00000000000E+00 0.  1.
         11    1    3    3    0    0 -0.62095659740E+01 -0.24567561134E+01 -0.17912623145E+02  0.19116914719E+02  0.51100000000E-03 0. -1.
        -11    1    3    3    0    0  0.30604835636E+01  0.24371635021E+01  0.54697202876E+00  0.39503802653E+01  0.51100000000E-03 0.  1.
         12    1    3    3    0    0  0.32614974041E+01 -0.20923310554E+02 -0.17484713549E+02  0.27461564008E+02  0.00000000000E+00 0. -1.
</event>
<event>
 7    1  0.5138511E-013  0.5052885E+02  0.7816164E-02  0.1300439E+00
        -11   -1    0    0    0    0  0.00000000000E+00  0.00000000000E+00  0.45593999997E+02  0.45594000000E+02  0.51100000000E-03 0.  1.
         11   -1    0    0    0    0 -0.00000000000E+00 -0.00000000000E+00 -0.45593999997E+02  0.45594000000E+02  0.51100000000E-03 0. -1.
    9900012    2    1    2    0    0 -0.35286446466E+02 -0.18451322563E+02 -0.82207995713E+01  0.50528853992E+02  0.29999982193E+02 0.  0.
        -12    1    1    2    0    0  0.35286446466E+02  0.18451322563E+02  0.82207995713E+01  0.40659146008E+02  0.00000000000E+00 0.  1.
         11    1    3    3    0    0 -0.12437272891E+02 -0.16176771366E+02 -0.56197933884E+01  0.21164965552E+02  0.51100000000E-03 0. -1.
        -11    1    3    3    0    0 -0.53605028750E+01 -0.71300621579E+00  0.73937162267E+01  0.91602624874E+01  0.51100000000E-03 0.  1.
        -12    1    3    3    0    0 -0.17488670700E+02 -0.15615449809E+01 -0.99947224095E+01  0.20203625952E+02  0.00000000000E+00 0.  1.
</event>
<event>
 7    1  0.5138511E-013  0.5052887E+02  0.7816164E-02  0.1300439E+00
        -11   -1    0    0    0    0  0.00000000000E+00  0.00000000000E+00  0.45593999997E+02  0.45594000000E+02  0.51100000000E-03 0.  1.
         11   -1    0    0    0    0 -0.00000000000E+00 -0.00000000000E+00 -0.45593999997E+02  0.45594000000E+02  0.51100000000E-03 0. -1.
    9900012    2    1    2    0    0 -0.73623339306E+01  0.11830853919E+02 -0.38196753105E+02  0.50528868023E+02  0.30000024842E+02 0.  0.
        -12    1    1    2    0    0  0.73623339306E+01 -0.11830853919E+02  0.38196753105E+02  0.40659131977E+02  0.00000000000E+00 0.  1.
         11    1    3    3    0    0 -0.34599398519E+01  0.15631795573E+02 -0.12737880706E+02  0.20459174513E+02  0.51100000000E-03 0. -1.
        -11    1    3    3    0    0 -0.36249911245E+00  0.49428091534E+01 -0.15840041499E+02  0.16597279382E+02  0.51100000000E-03 0.  1.
         12    1    3    3    0    0 -0.35398949663E+01 -0.87437508067E+01 -0.96188309005E+01  0.13472414128E+02  0.00000000000E+00 0. -1.
</event>
<event>
 7    1  0.5138511E-013  0.5052886E+02  0.7816164E-02  0.1300439E+00
        -11   -1    0    0    0    0  0.00000000000E+00  0.00000000000E+00  0.45593999997E+02  0.45594000000E+02  0.51100000000E-03 0.  1.
         11   -1    0    0    0    0 -0.00000000000E+00 -0.00000000000E+00 -0.45593999997E+02  0.45594000000E+02  0.51100000000E-03 0. -1.
    9900012    2    1    2    0    0  0.23796015206E+02  0.29774104123E+02 -0.14156901278E+02  0.50528862407E+02  0.30000007773E+02 0.  0.
        -12    1    1    2    0    0 -0.23796015206E+02 -0.29774104123E+02  0.14156901278E+02  0.40659137593E+02  0.00000000000E+00 0.  1.
         11    1    3    3    0    0 -0.22130042882E+01  0.39271826263E+01 -0.66684551352E+01  0.80491270031E+01  0.51100000000E-03 0. -1.
        -11    1    3    3    0    0  0.12532833987E+01 -0.33184888829E+01 -0.92008747710E+00  0.36646485466E+01  0.51100000000E-03 0.  1.
         12    1    3    3    0    0  0.24755736096E+02  0.29165410379E+02 -0.65683586656E+01  0.38815086858E+02  0.00000000000E+00 0. -1.
</event>
<event>
 7    1  0.5138511E-013  0.5052886E+02  0.7816164E-02  0.1300439E+00
        -11   -1    0    0    0    0  0.00000000000E+00  0.00000000000E+00  0.45593999997E+02  0.45594000000E+02  0.51100000000E-03 0. -1.
         11   -1    0    0    0    0 -0.00000000000E+00 -0.00000000000E+00 -0.45593999997E+02  0.45594000000E+02  0.51100000000E-03 0.  1.
    9900012    2    1    2    0    0 -0.37791555659E+02 -0.13996412858E+02  0.53911446821E+01  0.50528859662E+02  0.29999999428E+02 0.  0.
        -12    1    1    2    0    0  0.37791555659E+02  0.13996412858E+02 -0.53911446821E+01  0.40659140338E+02  0.00000000000E+00 0.  1.
         11    1    3    3    0    0 -0.15262058111E+02 -0.21711303347E+01  0.12701238188E+02  0.19974125175E+02  0.51100000000E-03 0. -1.
        -11    1    3    3    0    0  0.34125351419E+00  0.23454471070E+01 -0.20642991279E+01  0.31430728982E+01  0.51100000000E-03 0.  1.
         12    1    3    3    0    0 -0.22870751062E+02 -0.14170729630E+02 -0.52457943782E+01  0.27411661589E+02  0.00000000000E+00 0. -1.
</event>
<event>
 7    1  0.5138511E-013  0.5052888E+02  0.7816164E-02  0.1300439E+00
        -11   -1    0    0    0    0  0.00000000000E+00  0.00000000000E+00  0.45593999997E+02  0.45594000000E+02  0.51100000000E-03 0. -1.
         11   -1    0    0    0    0 -0.00000000000E+00 -0.00000000000E+00 -0.45593999997E+02  0.45594000000E+02  0.51100000000E-03 0.  1.
    9900012    2    1    2    0    0  0.29863040011E+02 -0.14331212493E+02  0.23579215762E+02  0.50528877701E+02  0.30000054259E+02 0.  0.
        -12    1    1    2    0    0 -0.29863040011E+02  0.14331212493E+02 -0.23579215762E+02  0.40659122299E+02  0.00000000000E+00 0.  1.
         11    1    3    3    0    0  0.10004297330E+02  0.12404354589E+01  0.77579358904E+01  0.12720464407E+02  0.51100000000E-03 0. -1.
        -11    1    3    3    0    0 -0.23712891590E+00 -0.20744920824E+01  0.13307658289E+02  0.13470468326E+02  0.51100000000E-03 0.  1.
         12    1    3    3    0    0  0.20095871597E+02 -0.13497155869E+02  0.25136215828E+01  0.24337944968E+02  0.00000000000E+00 0. -1.
</event>
<event>
 7    1  0.5138511E-013  0.5052887E+02  0.7816164E-02  0.1300439E+00
        -11   -1    0    0    0    0  0.00000000000E+00  0.00000000000E+00  0.45593999997E+02  0.45594000000E+02  0.51100000000E-03 0.  1.
         11   -1    0    0    0    0 -0.00000000000E+00 -0.00000000000E+00 -0.45593999997E+02  0.45594000000E+02  0.51100000000E-03 0. -1.
    9900012    2    1    2    0    0  0.26323518204E+02 -0.60484805553E+01 -0.30391668154E+02  0.50528865468E+02  0.30000017077E+02 0.  0.
        -12    1    1    2    0    0 -0.26323518204E+02  0.60484805553E+01  0.30391668154E+02  0.40659134532E+02  0.00000000000E+00 0.  1.
         11    1    3    3    0    0  0.11763331632E+02 -0.51124294593E+01 -0.12012031122E+02  0.17572757268E+02  0.51100000000E-03 0. -1.
        -11    1    3    3    0    0  0.14938983386E+02  0.71101164591E+00 -0.46623691539E+00  0.14963159402E+02  0.51100000000E-03 0.  1.
        -12    1    3    3    0    0 -0.37879681396E+00 -0.16470627419E+01 -0.17913400117E+02  0.17992948798E+02  0.00000000000E+00 0.  1.
</event>
<event>
 7    1  0.5138511E-013  0.5052886E+02  0.7816164E-02  0.1300439E+00
        -11   -1    0    0    0    0  0.00000000000E+00  0.00000000000E+00  0.45593999997E+02  0.45594000000E+02  0.51100000000E-03 0. -1.
         11   -1    0    0    0    0 -0.00000000000E+00 -0.00000000000E+00 -0.45593999997E+02  0.45594000000E+02  0.51100000000E-03 0.  1.
    9900012    2    1    2    0    0 -0.91741637508E+00  0.24451287717E+02  0.32472428851E+02  0.50528858847E+02  0.29999996953E+02 0.  0.
        -12    1    1    2    0    0  0.91741637508E+00 -0.24451287717E+02 -0.32472428851E+02  0.40659141153E+02  0.00000000000E+00 0.  1.
         11    1    3    3    0    0 -0.35932085241E+01  0.16881317805E+02  0.89632341077E+01  0.19448125983E+02  0.51100000000E-03 0. -1.
        -11    1    3    3    0    0 -0.21436720982E+01 -0.55108366606E+01  0.41475851163E+01  0.72226804805E+01  0.51100000000E-03 0.  1.
         12    1    3    3    0    0  0.48194642472E+01  0.13080806572E+02  0.19361609626E+02  0.23858052384E+02  0.00000000000E+00 0. -1.
</event>
<event>
 7    1  0.5138511E-013  0.5052885E+02  0.7816164E-02  0.1300439E+00
        -11   -1    0    0    0    0  0.00000000000E+00  0.00000000000E+00  0.45593999997E+02  0.45594000000E+02  0.51100000000E-03 0. -1.
         11   -1    0    0    0    0 -0.00000000000E+00 -0.00000000000E+00 -0.45593999997E+02  0.45594000000E+02  0.51100000000E-03 0.  1.
    9900012    2    1    2    0    0  0.16235565383E+02  0.31053752452E+02  0.20621279344E+02  0.50528852364E+02  0.29999977246E+02 0.  0.
        -12    1    1    2    0    0 -0.16235565383E+02 -0.31053752452E+02 -0.20621279344E+02  0.40659147636E+02  0.00000000000E+00 0.  1.
         11    1    3    3    0    0  0.18914457815E+02  0.23748921622E+02  0.25639249605E+02  0.39738383374E+02  0.51100000000E-03 0. -1.
        -11    1    3    3    0    0  0.49910401713E+00  0.61280237309E+01 -0.29383749623E+01  0.68143838567E+01  0.51100000000E-03 0.  1.
        -12    1    3    3    0    0 -0.31779964489E+01  0.11768070998E+01 -0.20795952986E+01  0.39760851330E+01  0.00000000000E+00 0.  1.
</event>
<event>
 7    1  0.5138511E-013  0.5052886E+02  0.7816164E-02  0.1300439E+00
        -11   -1    0    0    0    0  0.00000000000E+00  0.00000000000E+00  0.45593999997E+02  0.45594000000E+02  0.51100000000E-03 0.  1.
         11   -1    0    0    0    0 -0.00000000000E+00 -0.00000000000E+00 -0.45593999997E+02  0.45594000000E+02  0.51100000000E-03 0. -1.
    9900012    2    1    2    0    0 -0.38608330852E+02 -0.10920826054E+02 -0.65801101988E+01  0.50528861998E+02  0.30000006528E+02 0.  0.
        -12    1    1    2    0    0  0.38608330852E+02  0.10920826054E+02  0.65801101988E+01  0.40659138002E+02  0.00000000000E+00 0.  1.
         11    1    3    3    0    0 -0.21346272182E+02  0.31752353751E+01  0.36005875489E-01  0.21581166615E+02  0.51100000000E-03 0. -1.
        -11    1    3    3    0    0  0.23019608429E+01 -0.22906484411E+01  0.27473482690E+01  0.42537062398E+01  0.51100000000E-03 0.  1.
         12    1    3    3    0    0 -0.19564019513E+02 -0.11805412988E+02 -0.93634643432E+01  0.24693989143E+02  0.00000000000E+00 0. -1.
</event>
<event>
 7    1  0.5138511E-013  0.5052885E+02  0.7816164E-02  0.1300439E+00
        -11   -1    0    0    0    0  0.00000000000E+00  0.00000000000E+00  0.45593999997E+02  0.45594000000E+02  0.51100000000E-03 0.  1.
         11   -1    0    0    0    0 -0.00000000000E+00 -0.00000000000E+00 -0.45593999997E+02  0.45594000000E+02  0.51100000000E-03 0. -1.
    9900012    2    1    2    0    0  0.72350892645E+01 -0.13807826892E+02 -0.37552147252E+02  0.50528851418E+02  0.29999974370E+02 0.  0.
        -12    1    1    2    0    0 -0.72350892645E+01  0.13807826892E+02  0.37552147252E+02  0.40659148582E+02  0.00000000000E+00 0.  1.
         11    1    3    3    0    0  0.10698234685E+02 -0.92467559389E+00 -0.28323421572E+02  0.30290649715E+02  0.51100000000E-03 0. -1.
        -11    1    3    3    0    0 -0.26579814197E+01 -0.10356063673E+01 -0.77662976632E+01  0.82736162245E+01  0.51100000000E-03 0.  1.
        -12    1    3    3    0    0 -0.80516400091E+00 -0.11847544931E+02 -0.14624280171E+01  0.11964585478E+02  0.00000000000E+00 0.  1.
</event>
<event>
 7    1  0.5138511E-013  0.5052885E+02  0.7816164E-02  0.1300439E+00
        -11   -1    0    0    0    0  0.00000000000E+00  0.00000000000E+00  0.45593999997E+02  0.45594000000E+02  0.51100000000E-03 0.  1.
         11   -1    0    0    0    0 -0.00000000000E+00 -0.00000000000E+00 -0.45593999997E+02  0.45594000000E+02  0.51100000000E-03 0. -1.
    9900012    2    1    2    0    0  0.18531765513E+02  0.30047748687E+02 -0.20171089090E+02  0.50528851346E+02  0.29999974152E+02 0.  0.
        -12    1    1    2    0    0 -0.18531765513E+02 -0.30047748687E+02  0.20171089090E+02  0.40659148654E+02  0.00000000000E+00 0.  1.
         11    1    3    3    0    0  0.31450656515E+01  0.16624164927E+02 -0.21067920902E+02  0.27020577138E+02  0.51100000000E-03 0. -1.
        -11    1    3    3    0    0 -0.92574071845E+00 -0.12354407830E+01 -0.15627165989E+00  0.15516864693E+01  0.51100000000E-03 0.  1.
         12    1    3    3    0    0  0.16312440580E+02  0.14659024543E+02  0.10531034722E+01  0.21956587739E+02  0.00000000000E+00 0. -1.
</event>
<event>
 7    1  0.5138511E-013  0.5052886E+02  0.7816164E-02  0.1300439E+00
        -11   -1    0    0    0    0  0.00000000000E+00  0.00000000000E+00  0.45593999997E+02  0.45594000000E+02  0.51100000000E-03 0.  1.
         11   -1    0    0    0    0 -0.00000000000E+00 -0.00000000000E+00 -0.45593999997E+02  0.45594000000E+02  0.51100000000E-03 0. -1.
    9900012    2    1    2    0    0  0.21918801083E+02 -0.29721224322E+02 -0.17011193885E+02  0.50528859164E+02  0.29999997915E+02 0.  0.
        -12    1    1    2    0    0 -0.21918801083E+02  0.29721224322E+02  0.17011193885E+02  0.40659140836E+02  0.00000000000E+00 0.  1.
         11    1    3    3    0    0  0.98745607794E+01  0.16822081012E+01 -0.48986360562E+01  0.11150489234E+02  0.51100000000E-03 0. -1.
        -11    1    3    3    0    0 -0.27741091651E+01 -0.10154014295E+02 -0.78340416048E+01  0.13121428889E+02  0.51100000000E-03 0.  1.
         12    1    3    3    0    0  0.14818349469E+02 -0.21249418129E+02 -0.42785162238E+01  0.26256941042E+02  0.00000000000E+00 0. -1.
</event>
<event>
 7    1  0.5138511E-013  0.5052884E+02  0.7816164E-02  0.1300439E+00
        -11   -1    0    0    0    0  0.00000000000E+00  0.00000000000E+00  0.45593999997E+02  0.45594000000E+02  0.51100000000E-03 0.  1.
         11   -1    0    0    0    0 -0.00000000000E+00 -0.00000000000E+00 -0.45593999997E+02  0.45594000000E+02  0.51100000000E-03 0. -1.
    9900012    2    1    2    0    0  0.36605766700E+02  0.28628623046E+01 -0.17463936346E+02  0.50528841019E+02  0.29999942763E+02 0.  0.
        -12    1    1    2    0    0 -0.36605766700E+02 -0.28628623046E+01  0.17463936346E+02  0.40659158981E+02  0.00000000000E+00 0.  1.
         11    1    3    3    0    0  0.12041912192E+02  0.76003962898E+01 -0.10282166650E+02  0.17564071973E+02  0.51100000000E-03 0. -1.
        -11    1    3    3    0    0  0.68967221575E+00 -0.72471904609E+01 -0.50594510949E+01  0.88654082244E+01  0.51100000000E-03 0.  1.
         12    1    3    3    0    0  0.23874182293E+02  0.25096564757E+01 -0.21223186012E+01  0.24099360822E+02  0.00000000000E+00 0. -1.
</event>
<event>
 7    1  0.5138511E-013  0.5052886E+02  0.7816164E-02  0.1300439E+00
        -11   -1    0    0    0    0  0.00000000000E+00  0.00000000000E+00  0.45593999997E+02  0.45594000000E+02  0.51100000000E-03 0.  1.
         11   -1    0    0    0    0 -0.00000000000E+00 -0.00000000000E+00 -0.45593999997E+02  0.45594000000E+02  0.51100000000E-03 0. -1.
    9900012    2    1    2    0    0  0.17185626285E+02  0.28681038615E+02 -0.23134781035E+02  0.50528858096E+02  0.29999994669E+02 0.  0.
        -12    1    1    2    0    0 -0.17185626285E+02 -0.28681038615E+02  0.23134781035E+02  0.40659141904E+02  0.00000000000E+00 0.  1.
         11    1    3    3    0    0  0.51897195332E+01  0.10805703339E+01 -0.91988980536E+01  0.10616993300E+02  0.51100000000E-03 0. -1.
        -11    1    3    3    0    0  0.17628737939E+02  0.18029460638E+02 -0.13927326395E+02  0.28806323489E+02  0.51100000000E-03 0.  1.
         12    1    3    3    0    0 -0.56328311869E+01  0.95710076431E+01 -0.85565861482E-02  0.11105541306E+02  0.00000000000E+00 0. -1.
</event>
<event>
 7    1  0.5138511E-013  0.5052886E+02  0.7816164E-02  0.1300439E+00
        -11   -1    0    0    0    0  0.00000000000E+00  0.00000000000E+00  0.45593999997E+02  0.45594000000E+02  0.51100000000E-03 0.  1.
         11   -1    0    0    0    0 -0.00000000000E+00 -0.00000000000E+00 -0.45593999997E+02  0.45594000000E+02  0.51100000000E-03 0. -1.
    9900012    2    1    2    0    0 -0.59112688358E+01  0.40156968637E+02  0.23749099310E+01  0.50528862939E+02  0.30000009390E+02 0.  0.
        -12    1    1    2    0    0  0.59112688358E+01 -0.40156968637E+02 -0.23749099310E+01  0.40659137061E+02  0.00000000000E+00 0.  1.
         11    1    3    3    0    0  0.59008030177E+01  0.25288055746E+02 -0.42502586287E+01  0.26312923409E+02  0.51100000000E-03 0. -1.
        -11    1    3    3    0    0 -0.11718390627E+01  0.11312891186E+02  0.62796974263E+01  0.12991894158E+02  0.51100000000E-03 0.  1.
        -12    1    3    3    0    0 -0.10640232791E+02  0.35560217045E+01  0.34547113341E+00  0.11224045372E+02  0.00000000000E+00 0.  1.
</event>
<event>
 7    1  0.5138511E-013  0.5052886E+02  0.7816164E-02  0.1300439E+00
        -11   -1    0    0    0    0  0.00000000000E+00  0.00000000000E+00  0.45593999997E+02  0.45594000000E+02  0.51100000000E-03 0.  1.
         11   -1    0    0    0    0 -0.00000000000E+00 -0.00000000000E+00 -0.45593999997E+02  0.45594000000E+02  0.51100000000E-03 0. -1.
    9900012    2    1    2    0    0  0.13364499222E+02 -0.24157287591E+02 -0.29849306032E+02  0.50528862603E+02  0.30000008369E+02 0.  0.
        -12    1    1    2    0    0 -0.13364499222E+02  0.24157287591E+02  0.29849306032E+02  0.40659137397E+02  0.00000000000E+00 0.  1.
         11    1    3    3    0    0  0.54197560131E+01 -0.14245669863E+02 -0.15830188122E+02  0.21975161463E+02  0.51100000000E-03 0. -1.
        -11    1    3    3    0    0  0.50080374945E+01 -0.15467851577E+02 -0.40272344308E+01  0.16749731024E+02  0.51100000000E-03 0.  1.
        -12    1    3    3    0    0  0.29367057148E+01  0.55562338489E+01 -0.99918834799E+01  0.11803970117E+02  0.00000000000E+00 0.  1.
</event>
<event>
 7    1  0.6713170E-013  0.5052881E+02  0.7816164E-02  0.1300439E+00
        -11   -1    0    0    0    0  0.00000000000E+00  0.00000000000E+00  0.45593999997E+02  0.45594000000E+02  0.51100000000E-03 0.  1.
         11   -1    0    0    0    0 -0.00000000000E+00 -0.00000000000E+00 -0.45593999997E+02  0.45594000000E+02  0.51100000000E-03 0. -1.
    9900012    2    1    2    0    0  0.13462534783E+02 -0.36548165044E+02 -0.11668817421E+02  0.50528812713E+02  0.29999856722E+02 0.  0.
        -12    1    1    2    0    0 -0.13462534783E+02  0.36548165044E+02  0.11668817421E+02  0.40659187287E+02  0.00000000000E+00 0.  1.
         11    1    3    3    0    0  0.14376426828E+02 -0.26477880882E+02 -0.30521746501E+01  0.30283256012E+02  0.51100000000E-03 0. -1.
        -11    1    3    3    0    0 -0.65892527768E+00 -0.34346892465E+01  0.44073538451E+01  0.56263701371E+01  0.51100000000E-03 0.  1.
        -12    1    3    3    0    0 -0.25496676739E+00 -0.66355949148E+01 -0.13023996616E+02  0.14619186564E+02  0.00000000000E+00 0.  1.
</event>
<event>
 7    1  0.5138511E-013  0.5052889E+02  0.7816164E-02  0.1300439E+00
        -11   -1    0    0    0    0  0.00000000000E+00  0.00000000000E+00  0.45593999997E+02  0.45594000000E+02  0.51100000000E-03 0. -1.
         11   -1    0    0    0    0 -0.00000000000E+00 -0.00000000000E+00 -0.45593999997E+02  0.45594000000E+02  0.51100000000E-03 0.  1.
    9900012    2    1    2    0    0 -0.17334860617E+02  0.34832631155E+02 -0.11804801538E+02  0.50528893699E+02  0.30000102888E+02 0.  0.
        -12    1    1    2    0    0  0.17334860617E+02 -0.34832631155E+02  0.11804801538E+02  0.40659106301E+02  0.00000000000E+00 0.  1.
         11    1    3    3    0    0 -0.43532922142E+01  0.18477312580E+02  0.17174957440E+00  0.18983986185E+02  0.51100000000E-03 0.  1.
        -11    1    3    3    0    0 -0.27909960143E+00  0.29780529718E+01  0.54187212711E+01  0.61894455782E+01  0.51100000000E-03 0. -1.
        -12    1    3    3    0    0 -0.12702468802E+02  0.13377265603E+02 -0.17395272384E+02  0.25355461936E+02  0.00000000000E+00 0.  1.
</event>
<event>
 7    1  0.5138511E-013  0.5052886E+02  0.7816164E-02  0.1300439E+00
        -11   -1    0    0    0    0  0.00000000000E+00  0.00000000000E+00  0.45593999997E+02  0.45594000000E+02  0.51100000000E-03 0.  1.
         11   -1    0    0    0    0 -0.00000000000E+00 -0.00000000000E+00 -0.45593999997E+02  0.45594000000E+02  0.51100000000E-03 0. -1.
    9900012    2    1    2    0    0 -0.23662539239E+01  0.17247426574E+02 -0.36743611644E+02  0.50528857391E+02  0.29999992525E+02 0.  0.
        -12    1    1    2    0    0  0.23662539239E+01 -0.17247426574E+02  0.36743611644E+02  0.40659142609E+02  0.00000000000E+00 0.  1.
         11    1    3    3    0    0 -0.53199568639E+01  0.98719057775E+01  0.12949922166E+01  0.11288643400E+02  0.51100000000E-03 0.  1.
        -11    1    3    3    0    0 -0.76325350225E+00  0.52824055627E+01 -0.22746228862E+02  0.23364017038E+02  0.51100000000E-03 0. -1.
        -12    1    3    3    0    0  0.37169564422E+01  0.20931152337E+01 -0.15292374999E+02  0.15876196953E+02  0.00000000000E+00 0.  1.
</event>
<event>
 7    1  0.5138511E-013  0.5052895E+02  0.7816164E-02  0.1300438E+00
        -11   -1    0    0    0    0  0.00000000000E+00  0.00000000000E+00  0.45593999997E+02  0.45594000000E+02  0.51100000000E-03 0.  1.
         11   -1    0    0    0    0 -0.00000000000E+00 -0.00000000000E+00 -0.45593999997E+02  0.45594000000E+02  0.51100000000E-03 0. -1.
    9900012    2    1    2    0    0 -0.25792753102E+02  0.11191483307E+02 -0.29370782459E+02  0.50528950903E+02  0.30000276765E+02 0.  0.
        -12    1    1    2    0    0  0.25792753102E+02 -0.11191483307E+02  0.29370782459E+02  0.40659049097E+02  0.00000000000E+00 0.  1.
         11    1    3    3    0    0 -0.11920660874E+01  0.71201881180E+01 -0.17786999244E+02  0.19196235119E+02  0.51100000000E-03 0. -1.
        -11    1    3    3    0    0 -0.85553192126E+01  0.88234034690E+01 -0.37045265583E+01  0.12836255408E+02  0.51100000000E-03 0.  1.
         12    1    3    3    0    0 -0.16045367802E+02 -0.47521082802E+01 -0.78792566572E+01  0.18496460377E+02  0.00000000000E+00 0. -1.
</event>
<event>
 7    1  0.5138511E-013  0.5052888E+02  0.7816164E-02  0.1300439E+00
        -11   -1    0    0    0    0  0.00000000000E+00  0.00000000000E+00  0.45593999997E+02  0.45594000000E+02  0.51100000000E-03 0. -1.
         11   -1    0    0    0    0 -0.00000000000E+00 -0.00000000000E+00 -0.45593999997E+02  0.45594000000E+02  0.51100000000E-03 0.  1.
    9900012    2    1    2    0    0  0.22718558195E+02  0.18879618688E+02  0.27939064599E+02  0.50528877789E+02  0.30000054529E+02 0.  0.
        -12    1    1    2    0    0 -0.22718558195E+02 -0.18879618688E+02 -0.27939064599E+02  0.40659122211E+02  0.00000000000E+00 0.  1.
         11    1    3    3    0    0  0.11439785663E+02  0.18028045375E+01  0.24552814993E+01  0.11838378593E+02  0.51100000000E-03 0.  1.
        -11    1    3    3    0    0  0.58401284271E+01  0.19842642038E+02  0.12055534827E+02  0.23941041400E+02  0.51100000000E-03 0. -1.
         12    1    3    3    0    0  0.54386441054E+01 -0.27658278878E+01  0.13428248273E+02  0.14749457796E+02  0.00000000000E+00 0. -1.
</event>
<event>
 7    1  0.5138511E-013  0.5052886E+02  0.7816164E-02  0.1300439E+00
        -11   -1    0    0    0    0  0.00000000000E+00  0.00000000000E+00  0.45593999997E+02  0.45594000000E+02  0.51100000000E-03 0.  1.
         11   -1    0    0    0    0 -0.00000000000E+00 -0.00000000000E+00 -0.45593999997E+02  0.45594000000E+02  0.51100000000E-03 0. -1.
    9900012    2    1    2    0    0 -0.16500488582E+02  0.37132341611E+02  0.14453418640E+01  0.50528856746E+02  0.29999990567E+02 0.  0.
        -12    1    1    2    0    0  0.16500488582E+02 -0.37132341611E+02 -0.14453418640E+01  0.40659143254E+02  0.00000000000E+00 0.  1.
         11    1    3    3    0    0 -0.89433408679E+01  0.95403690056E+01 -0.33119852782E+00  0.13080966301E+02  0.51100000000E-03 0. -1.
        -11    1    3    3    0    0 -0.72645968996E+01  0.31841195214E+02  0.35139335051E+01  0.32847888969E+02  0.51100000000E-03 0.  1.
         12    1    3    3    0    0 -0.29255081489E+00 -0.42492226083E+01 -0.17373931133E+01  0.46000014765E+01  0.00000000000E+00 0. -1.
</event>
<event>
 7    1  0.5138511E-013  0.5052886E+02  0.7816164E-02  0.1300439E+00
        -11   -1    0    0    0    0  0.00000000000E+00  0.00000000000E+00  0.45593999997E+02  0.45594000000E+02  0.51100000000E-03 0. -1.
         11   -1    0    0    0    0 -0.00000000000E+00 -0.00000000000E+00 -0.45593999997E+02  0.45594000000E+02  0.51100000000E-03 0.  1.
    9900012    2    1    2    0    0 -0.74967850140E+01  0.22120884099E+02  0.33281077155E+02  0.50528863321E+02  0.30000010551E+02 0.  0.
        -12    1    1    2    0    0  0.74967850140E+01 -0.22120884099E+02 -0.33281077155E+02  0.40659136679E+02  0.00000000000E+00 0.  1.
         11    1    3    3    0    0  0.33768768639E+01  0.43880523965E+01 -0.12954409496E+01  0.56865163943E+01  0.51100000000E-03 0. -1.
        -11    1    3    3    0    0 -0.33802573929E+01 -0.40395002717E+01  0.90002101375E+01  0.10428206234E+02  0.51100000000E-03 0.  1.
         12    1    3    3    0    0 -0.74934044849E+01  0.21772331974E+02  0.25576307967E+02  0.34414140692E+02  0.00000000000E+00 0. -1.
</event>
<event>
 7    1  0.5138511E-013  0.5052886E+02  0.7816164E-02  0.1300439E+00
        -11   -1    0    0    0    0  0.00000000000E+00  0.00000000000E+00  0.45593999997E+02  0.45594000000E+02  0.51100000000E-03 0.  1.
         11   -1    0    0    0    0 -0.00000000000E+00 -0.00000000000E+00 -0.45593999997E+02  0.45594000000E+02  0.51100000000E-03 0. -1.
    9900012    2    1    2    0    0  0.97814647419E+01  0.31671601067E+02 -0.23545665665E+02  0.50528859106E+02  0.29999997737E+02 0.  0.
        -12    1    1    2    0    0 -0.97814647419E+01 -0.31671601067E+02  0.23545665665E+02  0.40659140894E+02  0.00000000000E+00 0.  1.
         11    1    3    3    0    0 -0.12906855385E+01  0.26849353864E+02 -0.13615784980E+02  0.30132097055E+02  0.51100000000E-03 0. -1.
        -11    1    3    3    0    0 -0.23162946437E+01 -0.17847758111E-01  0.92486783744E+00  0.24941772585E+01  0.51100000000E-03 0.  1.
        -12    1    3    3    0    0  0.13388444924E+02  0.48400949610E+01 -0.10854748523E+02  0.17902584792E+02  0.00000000000E+00 0.  1.
</event>
<event>
 7    1  0.5138511E-013  0.5052886E+02  0.7816164E-02  0.1300439E+00
        -11   -1    0    0    0    0  0.00000000000E+00  0.00000000000E+00  0.45593999997E+02  0.45594000000E+02  0.51100000000E-03 0. -1.
         11   -1    0    0    0    0 -0.00000000000E+00 -0.00000000000E+00 -0.45593999997E+02  0.45594000000E+02  0.51100000000E-03 0.  1.
    9900012    2    1    2    0    0 -0.19930923573E+02  0.34761170784E+02  0.68981861005E+01  0.50528859820E+02  0.29999999908E+02 0.  0.
        -12    1    1    2    0    0  0.19930923573E+02 -0.34761170784E+02 -0.68981861005E+01  0.40659140180E+02  0.00000000000E+00 0.  1.
         11    1    3    3    0    0 -0.16874028414E+01  0.24474424267E+01  0.66660051198E+01  0.72988305433E+01  0.51100000000E-03 0. -1.
        -11    1    3    3    0    0 -0.16019184374E+02  0.80503193193E+01  0.45229089002E+01  0.18489959825E+02  0.51100000000E-03 0.  1.
        -12    1    3    3    0    0 -0.22243363577E+01  0.24263409038E+02 -0.42907279196E+01  0.24740069451E+02  0.00000000000E+00 0.  1.
</event>
<event>
 7    1  0.5138511E-013  0.5052885E+02  0.7816164E-02  0.1300439E+00
        -11   -1    0    0    0    0  0.00000000000E+00  0.00000000000E+00  0.45593999997E+02  0.45594000000E+02  0.51100000000E-03 0. -1.
         11   -1    0    0    0    0 -0.00000000000E+00 -0.00000000000E+00 -0.45593999997E+02  0.45594000000E+02  0.51100000000E-03 0.  1.
    9900012    2    1    2    0    0 -0.10454250648E+02 -0.37677592238E+02  0.11147829792E+02  0.50528850691E+02  0.29999972161E+02 0.  0.
        -12    1    1    2    0    0  0.10454250648E+02  0.37677592238E+02 -0.11147829792E+02  0.40659149309E+02  0.00000000000E+00 0.  1.
         11    1    3    3    0    0 -0.68030982409E+01 -0.30572997810E+01 -0.27086579486E+00  0.74634171910E+01  0.51100000000E-03 0. -1.
        -11    1    3    3    0    0  0.44845729621E+01  0.11980818430E+01  0.14721551119E+00  0.46441864113E+01  0.51100000000E-03 0.  1.
         12    1    3    3    0    0 -0.81357253691E+01 -0.35818374300E+02  0.11271480075E+02  0.38421247089E+02  0.00000000000E+00 0. -1.
</event>
<event>
 7    1  0.5138511E-013  0.5052886E+02  0.7816164E-02  0.1300439E+00
        -11   -1    0    0    0    0  0.00000000000E+00  0.00000000000E+00  0.45593999997E+02  0.45594000000E+02  0.51100000000E-03 0.  1.
         11   -1    0    0    0    0 -0.00000000000E+00 -0.00000000000E+00 -0.45593999997E+02  0.45594000000E+02  0.51100000000E-03 0. -1.
    9900012    2    1    2    0    0  0.17840497187E+02  0.27869561121E+02  0.23625625390E+02  0.50528856477E+02  0.29999989749E+02 0.  0.
        -12    1    1    2    0    0 -0.17840497187E+02 -0.27869561121E+02 -0.23625625390E+02  0.40659143523E+02  0.00000000000E+00 0.  1.
         11    1    3    3    0    0  0.33775488945E+01  0.18352187183E+02  0.14983207692E+02  0.23931300089E+02  0.51100000000E-03 0. -1.
        -11    1    3    3    0    0  0.38415712177E+01  0.26718894349E+01  0.12531276039E+02  0.13376454762E+02  0.51100000000E-03 0.  1.
         12    1    3    3    0    0  0.10621377075E+02  0.68454845028E+01 -0.38888583408E+01  0.13221101627E+02  0.00000000000E+00 0. -1.
</event>
<event>
 7    1  0.5138511E-013  0.5052886E+02  0.7816164E-02  0.1300439E+00
        -11   -1    0    0    0    0  0.00000000000E+00  0.00000000000E+00  0.45593999997E+02  0.45594000000E+02  0.51100000000E-03 0. -1.
         11   -1    0    0    0    0 -0.00000000000E+00 -0.00000000000E+00 -0.45593999997E+02  0.45594000000E+02  0.51100000000E-03 0.  1.
    9900012    2    1    2    0    0  0.36074994081E+01 -0.27705522443E+02  0.29539053101E+02  0.50528859774E+02  0.29999999768E+02 0.  0.
        -12    1    1    2    0    0 -0.36074994081E+01  0.27705522443E+02 -0.29539053101E+02  0.40659140226E+02  0.00000000000E+00 0.  1.
         11    1    3    3    0    0  0.20359143092E+01 -0.45534083621E+01 -0.37282307550E+01  0.62272128284E+01  0.51100000000E-03 0. -1.
        -11    1    3    3    0    0 -0.79747215638E+01 -0.76518181376E+01  0.12598862848E+02  0.16759410794E+02  0.51100000000E-03 0.  1.
         12    1    3    3    0    0  0.95463066627E+01 -0.15500295944E+02  0.20668421008E+02  0.27542236151E+02  0.00000000000E+00 0. -1.
</event>
<event>
 7    1  0.5138511E-013  0.5052886E+02  0.7816164E-02  0.1300439E+00
        -11   -1    0    0    0    0  0.00000000000E+00  0.00000000000E+00  0.45593999997E+02  0.45594000000E+02  0.51100000000E-03 0.  1.
         11   -1    0    0    0    0 -0.00000000000E+00 -0.00000000000E+00 -0.45593999997E+02  0.45594000000E+02  0.51100000000E-03 0. -1.
    9900012    2    1    2    0    0  0.28484261629E+02  0.24737093432E+02 -0.15162089844E+02  0.50528856865E+02  0.29999990928E+02 0.  0.
        -12    1    1    2    0    0 -0.28484261629E+02 -0.24737093432E+02  0.15162089844E+02  0.40659143135E+02  0.00000000000E+00 0.  1.
         11    1    3    3    0    0  0.12920568161E+02  0.49622116231E+01 -0.90448884608E+01  0.16534044675E+02  0.51100000000E-03 0. -1.
        -11    1    3    3    0    0 -0.95121487548E+00 -0.12994633553E+01  0.48130037995E+01  0.50752754197E+01  0.51100000000E-03 0.  1.
         12    1    3    3    0    0  0.16514908344E+02  0.21074345164E+02 -0.10930205182E+02  0.28919536770E+02  0.00000000000E+00 0. -1.
</event>
<event>
 7    1  0.5138511E-013  0.5052882E+02  0.7816164E-02  0.1300439E+00
        -11   -1    0    0    0    0  0.00000000000E+00  0.00000000000E+00  0.45593999997E+02  0.45594000000E+02  0.51100000000E-03 0.  1.
         11   -1    0    0    0    0 -0.00000000000E+00 -0.00000000000E+00 -0.45593999997E+02  0.45594000000E+02  0.51100000000E-03 0. -1.
    9900012    2    1    2    0    0 -0.31624140678E+02 -0.54703190175E+01 -0.24963132399E+02  0.50528823386E+02  0.29999889165E+02 0.  0.
        -12    1    1    2    0    0  0.31624140678E+02  0.54703190175E+01  0.24963132399E+02  0.40659176614E+02  0.00000000000E+00 0.  1.
         11    1    3    3    0    0 -0.15562453638E+02 -0.15171834423E+02 -0.15892680716E+02  0.26924929408E+02  0.51100000000E-03 0. -1.
        -11    1    3    3    0    0 -0.44393605776E+01  0.34978520949E+01 -0.87610741229E+01  0.10425896204E+02  0.51100000000E-03 0.  1.
        -12    1    3    3    0    0 -0.11622326462E+02  0.62036633108E+01 -0.30937755965E+00  0.13177997774E+02  0.00000000000E+00 0.  1.
</event>
<event>
 7    1  0.5138511E-013  0.5052886E+02  0.7816164E-02  0.1300439E+00
        -11   -1    0    0    0    0  0.00000000000E+00  0.00000000000E+00  0.45593999997E+02  0.45594000000E+02  0.51100000000E-03 0.  1.
         11   -1    0    0    0    0 -0.00000000000E+00 -0.00000000000E+00 -0.45593999997E+02  0.45594000000E+02  0.51100000000E-03 0. -1.
    9900012    2    1    2    0    0  0.11812922570E+02 -0.23621873139E+02 -0.30913231448E+02  0.50528857008E+02  0.29999991362E+02 0.  0.
        -12    1    1    2    0    0 -0.11812922570E+02  0.23621873139E+02  0.30913231448E+02  0.40659142992E+02  0.00000000000E+00 0.  1.
         11    1    3    3    0    0  0.11378545759E+02 -0.22138082393E+01 -0.74741105705E+01  0.13792555223E+02  0.51100000000E-03 0. -1.
        -11    1    3    3    0    0  0.23318482820E+01 -0.15403624432E+02 -0.25693580307E+02  0.30047782469E+02  0.51100000000E-03 0.  1.
         12    1    3    3    0    0 -0.18974714710E+01 -0.60044404680E+01  0.22544594292E+01  0.66885193156E+01  0.00000000000E+00 0. -1.
</event>
<event>
 7    1  0.5138511E-013  0.5052887E+02  0.7816164E-02  0.1300439E+00
        -11   -1    0    0    0    0  0.00000000000E+00  0.00000000000E+00  0.45593999997E+02  0.45594000000E+02  0.51100000000E-03 0. -1.
         11   -1    0    0    0    0 -0.00000000000E+00 -0.00000000000E+00 -0.45593999997E+02  0.45594000000E+02  0.51100000000E-03 0.  1.
    9900012    2    1    2    0    0 -0.29277035267E+01 -0.40498377819E+02  0.21153157477E+01  0.50528872923E+02  0.30000039738E+02 0.  0.
        -12    1    1    2    0    0  0.29277035267E+01  0.40498377819E+02 -0.21153157477E+01  0.40659127077E+02  0.00000000000E+00 0.  1.
         11    1    3    3    0    0 -0.62504815463E+01 -0.91736021838E+01 -0.73204523419E+00  0.11124719640E+02  0.51100000000E-03 0. -1.
        -11    1    3    3    0    0  0.34260887937E+01 -0.24728946663E+01 -0.76191271596E+01  0.87123126314E+01  0.51100000000E-03 0.  1.
         12    1    3    3    0    0 -0.10331077414E+00 -0.28851880969E+02  0.10466488141E+02  0.30691840652E+02  0.00000000000E+00 0. -1.
</event>
<event>
 7    1  0.5138511E-013  0.5052885E+02  0.7816164E-02  0.1300439E+00
        -11   -1    0    0    0    0  0.00000000000E+00  0.00000000000E+00  0.45593999997E+02  0.45594000000E+02  0.51100000000E-03 0. -1.
         11   -1    0    0    0    0 -0.00000000000E+00 -0.00000000000E+00 -0.45593999997E+02  0.45594000000E+02  0.51100000000E-03 0.  1.
    9900012    2    1    2    0    0  0.10213779453E+02  0.15154728818E+01  0.39326179494E+02  0.50528851677E+02  0.29999975159E+02 0.  0.
        -12    1    1    2    0    0 -0.10213779453E+02 -0.15154728818E+01 -0.39326179494E+02  0.40659148323E+02  0.00000000000E+00 0.  1.
         11    1    3    3    0    0  0.88256366067E+00 -0.10915913531E+02  0.13145221153E+02  0.17109439682E+02  0.51100000000E-03 0.  1.
        -11    1    3    3    0    0  0.75662332952E+01  0.41810597751E+00  0.15477811797E+02  0.17233263103E+02  0.51100000000E-03 0. -1.
        -12    1    3    3    0    0  0.17649824967E+01  0.12013280435E+02  0.10703146543E+02  0.16186148892E+02  0.00000000000E+00 0.  1.
</event>
<event>
 7    1  0.5138511E-013  0.5052886E+02  0.7816164E-02  0.1300439E+00
        -11   -1    0    0    0    0  0.00000000000E+00  0.00000000000E+00  0.45593999997E+02  0.45594000000E+02  0.51100000000E-03 0.  1.
         11   -1    0    0    0    0 -0.00000000000E+00 -0.00000000000E+00 -0.45593999997E+02  0.45594000000E+02  0.51100000000E-03 0. -1.
    9900012    2    1    2    0    0  0.40560993503E+02  0.26044630926E+01 -0.10899182749E+01  0.50528863956E+02  0.30000012481E+02 0.  0.
        -12    1    1    2    0    0 -0.40560993503E+02 -0.26044630926E+01  0.10899182749E+01  0.40659136044E+02  0.00000000000E+00 0.  1.
         11    1    3    3    0    0  0.10910747487E+02 -0.76247625754E+01  0.51649636575E+01  0.14277894274E+02  0.51100000000E-03 0. -1.
        -11    1    3    3    0    0  0.23067948426E+02  0.41773214450E+01  0.26977429254E+01  0.23597840499E+02  0.51100000000E-03 0.  1.
         12    1    3    3    0    0  0.65822975907E+01  0.60519042230E+01 -0.89526248578E+01  0.12653129184E+02  0.00000000000E+00 0. -1.
</event>
<event>
 7    1  0.5138511E-013  0.5052886E+02  0.7816164E-02  0.1300439E+00
        -11   -1    0    0    0    0  0.00000000000E+00  0.00000000000E+00  0.45593999997E+02  0.45594000000E+02  0.51100000000E-03 0.  1.
         11   -1    0    0    0    0 -0.00000000000E+00 -0.00000000000E+00 -0.45593999997E+02  0.45594000000E+02  0.51100000000E-03 0. -1.
    9900012    2    1    2    0    0 -0.33214795967E+02 -0.90652919502E+01 -0.21627841754E+02  0.50528859229E+02  0.29999998114E+02 0.  0.
        -12    1    1    2    0    0  0.33214795967E+02  0.90652919502E+01  0.21627841754E+02  0.40659140771E+02  0.00000000000E+00 0.  1.
         11    1    3    3    0    0 -0.29781647444E+01 -0.72242283323E+01 -0.27619624564E+01  0.82877848135E+01  0.51100000000E-03 0.  1.
        -11    1    3    3    0    0 -0.21198050285E+02 -0.81561250894E+01 -0.21087954096E+02  0.30993249597E+02  0.51100000000E-03 0. -1.
        -12    1    3    3    0    0 -0.90385809371E+01  0.63150614715E+01  0.22220747984E+01  0.11247824819E+02  0.00000000000E+00 0.  1.
</event>
<event>
 7    1  0.5138511E-013  0.5052886E+02  0.7816164E-02  0.1300439E+00
        -11   -1    0    0    0    0  0.00000000000E+00  0.00000000000E+00  0.45593999997E+02  0.45594000000E+02  0.51100000000E-03 0.  1.
         11   -1    0    0    0    0 -0.00000000000E+00 -0.00000000000E+00 -0.45593999997E+02  0.45594000000E+02  0.51100000000E-03 0. -1.
    9900012    2    1    2    0    0  0.34168919748E+02 -0.49838755925E+01 -0.21466529513E+02  0.50528856108E+02  0.29999988626E+02 0.  0.
        -12    1    1    2    0    0 -0.34168919748E+02  0.49838755925E+01  0.21466529513E+02  0.40659143892E+02  0.00000000000E+00 0.  1.
         11    1    3    3    0    0  0.20410193440E+02 -0.70774628404E+01 -0.58654677368E+01  0.22384597128E+02  0.51100000000E-03 0. -1.
        -11    1    3    3    0    0 -0.35617056341E+00 -0.42883463531E+01  0.19590678812E+01  0.47280777424E+01  0.51100000000E-03 0.  1.
         12    1    3    3    0    0  0.14114896872E+02  0.63819336010E+01 -0.17560129657E+02  0.23416181238E+02  0.00000000000E+00 0. -1.
</event>
<event>
 7    1  0.5138511E-013  0.5052886E+02  0.7816164E-02  0.1300439E+00
        -11   -1    0    0    0    0  0.00000000000E+00  0.00000000000E+00  0.45593999997E+02  0.45594000000E+02  0.51100000000E-03 0.  1.
         11   -1    0    0    0    0 -0.00000000000E+00 -0.00000000000E+00 -0.45593999997E+02  0.45594000000E+02  0.51100000000E-03 0. -1.
    9900012    2    1    2    0    0 -0.11539987911E+02  0.31092067871E+02 -0.23521857835E+02  0.50528858328E+02  0.29999995373E+02 0.  0.
        -12    1    1    2    0    0  0.11539987911E+02 -0.31092067871E+02  0.23521857835E+02  0.40659141672E+02  0.00000000000E+00 0.  1.
         11    1    3    3    0    0 -0.11876912249E+02  0.14042656172E+02 -0.89876133918E+01  0.20470330522E+02  0.51100000000E-03 0. -1.
        -11    1    3    3    0    0  0.18780624912E+01  0.15083080627E+02  0.11277256069E+00  0.15199972297E+02  0.51100000000E-03 0.  1.
        -12    1    3    3    0    0 -0.15411381539E+01  0.19663310722E+01 -0.14647017004E+02  0.14858555509E+02  0.00000000000E+00 0.  1.
</event>
<event>
 7    1  0.5138511E-013  0.5052887E+02  0.7816164E-02  0.1300439E+00
        -11   -1    0    0    0    0  0.00000000000E+00  0.00000000000E+00  0.45593999997E+02  0.45594000000E+02  0.51100000000E-03 0. -1.
         11   -1    0    0    0    0 -0.00000000000E+00 -0.00000000000E+00 -0.45593999997E+02  0.45594000000E+02  0.51100000000E-03 0.  1.
    9900012    2    1    2    0    0 -0.28954368385E+02 -0.25139691875E+02  0.13520561739E+02  0.50528866390E+02  0.30000019881E+02 0.  0.
        -12    1    1    2    0    0  0.28954368385E+02  0.25139691875E+02 -0.13520561739E+02  0.40659133610E+02  0.00000000000E+00 0.  1.
         11    1    3    3    0    0 -0.84298156871E+00 -0.12656764997E+02  0.45705662516E+01  0.13483115153E+02  0.51100000000E-03 0. -1.
        -11    1    3    3    0    0 -0.66879221968E+00  0.45659776018E+00 -0.39827141468E+01  0.40642067841E+01  0.51100000000E-03 0.  1.
         12    1    3    3    0    0 -0.27442594596E+02 -0.12939524639E+02  0.12932709634E+02  0.32981544453E+02  0.00000000000E+00 0. -1.
</event>
<event>
 7    1  0.5138511E-013  0.5052886E+02  0.7816164E-02  0.1300439E+00
        -11   -1    0    0    0    0  0.00000000000E+00  0.00000000000E+00  0.45593999997E+02  0.45594000000E+02  0.51100000000E-03 0.  1.
         11   -1    0    0    0    0 -0.00000000000E+00 -0.00000000000E+00 -0.45593999997E+02  0.45594000000E+02  0.51100000000E-03 0. -1.
    9900012    2    1    2    0    0  0.78761445085E+01  0.33856989223E+01 -0.39745046895E+02  0.50528863730E+02  0.30000011795E+02 0.  0.
        -12    1    1    2    0    0 -0.78761445085E+01 -0.33856989223E+01  0.39745046895E+02  0.40659136270E+02  0.00000000000E+00 0.  1.
         11    1    3    3    0    0  0.34658897275E+01 -0.70983446625E+01 -0.13092346269E+02  0.15290795258E+02  0.51100000000E-03 0. -1.
        -11    1    3    3    0    0  0.10294681534E+02  0.56851314576E+01 -0.24762494278E+02  0.27413177683E+02  0.51100000000E-03 0.  1.
        -12    1    3    3    0    0 -0.58844267531E+01  0.47989121273E+01 -0.18902063485E+01  0.78248907888E+01  0.00000000000E+00 0.  1.
</event>
<event>
 7    1  0.5138511E-013  0.5052887E+02  0.7816164E-02  0.1300439E+00
        -11   -1    0    0    0    0  0.00000000000E+00  0.00000000000E+00  0.45593999997E+02  0.45594000000E+02  0.51100000000E-03 0.  1.
         11   -1    0    0    0    0 -0.00000000000E+00 -0.00000000000E+00 -0.45593999997E+02  0.45594000000E+02  0.51100000000E-03 0. -1.
    9900012    2    1    2    0    0 -0.89049471509E+01  0.12542309042E+02 -0.37637182181E+02  0.50528867171E+02  0.30000022254E+02 0.  0.
        -12    1    1    2    0    0  0.89049471509E+01 -0.12542309042E+02  0.37637182181E+02  0.40659132829E+02  0.00000000000E+00 0.  1.
         11    1    3    3    0    0 -0.57361839645E+01 -0.14509155284E+01 -0.27057973468E+02  0.27697344472E+02  0.51100000000E-03 0. -1.
        -11    1    3    3    0    0 -0.20290748265E+01 -0.26590757521E+01 -0.64123312544E+00  0.34057317406E+01  0.51100000000E-03 0.  1.
        -12    1    3    3    0    0 -0.11396883600E+01  0.16652300322E+02 -0.99379755875E+01  0.19425790959E+02  0.00000000000E+00 0.  1.
</event>
<event>
 7    1  0.5138511E-013  0.5052885E+02  0.7816164E-02  0.1300439E+00
        -11   -1    0    0    0    0  0.00000000000E+00  0.00000000000E+00  0.45593999997E+02  0.45594000000E+02  0.51100000000E-03 0. -1.
         11   -1    0    0    0    0 -0.00000000000E+00 -0.00000000000E+00 -0.45593999997E+02  0.45594000000E+02  0.51100000000E-03 0.  1.
    9900012    2    1    2    0    0  0.21417039592E+02 -0.25017888308E+02  0.23844955757E+02  0.50528852993E+02  0.29999979157E+02 0.  0.
        -12    1    1    2    0    0 -0.21417039592E+02  0.25017888308E+02 -0.23844955757E+02  0.40659147007E+02  0.00000000000E+00 0.  1.
         11    1    3    3    0    0  0.42170125279E+01 -0.20342058140E+02  0.47523653887E+01  0.21311205998E+02  0.51100000000E-03 0. -1.
        -11    1    3    3    0    0  0.30652559587E+01  0.43054805316E+01  0.35260747663E+01  0.63534368824E+01  0.51100000000E-03 0.  1.
        -12    1    3    3    0    0  0.14134771105E+02 -0.89813107002E+01  0.15566515602E+02  0.22864210113E+02  0.00000000000E+00 0.  1.
</event>
<event>
 7    1  0.5138511E-013  0.5052886E+02  0.7816164E-02  0.1300439E+00
        -11   -1    0    0    0    0  0.00000000000E+00  0.00000000000E+00  0.45593999997E+02  0.45594000000E+02  0.51100000000E-03 0. -1.
         11   -1    0    0    0    0 -0.00000000000E+00 -0.00000000000E+00 -0.45593999997E+02  0.45594000000E+02  0.51100000000E-03 0.  1.
    9900012    2    1    2    0    0 -0.76284983252E+01 -0.38868123952E+02  0.91782743246E+01  0.50528858767E+02  0.29999996709E+02 0.  0.
        -12    1    1    2    0    0  0.76284983252E+01  0.38868123952E+02 -0.91782743246E+01  0.40659141233E+02  0.00000000000E+00 0.  1.
         11    1    3    3    0    0 -0.57717526031E+01  0.79483580947E+00  0.29194947148E-01  0.58262976821E+01  0.51100000000E-03 0. -1.
        -11    1    3    3    0    0 -0.39328948086E+01 -0.10768432510E+02  0.10714017455E+02  0.15691302387E+02  0.51100000000E-03 0.  1.
         12    1    3    3    0    0  0.20761490864E+01 -0.28894527251E+02 -0.15649380777E+01  0.29011258698E+02  0.00000000000E+00 0. -1.
</event>
<event>
 7    1  0.5138511E-013  0.5052886E+02  0.7816164E-02  0.1300439E+00
        -11   -1    0    0    0    0  0.00000000000E+00  0.00000000000E+00  0.45593999997E+02  0.45594000000E+02  0.51100000000E-03 0.  1.
         11   -1    0    0    0    0 -0.00000000000E+00 -0.00000000000E+00 -0.45593999997E+02  0.45594000000E+02  0.51100000000E-03 0. -1.
    9900012    2    1    2    0    0  0.20030681218E+02  0.20010411457E+02 -0.29180825642E+02  0.50528863980E+02  0.30000012554E+02 0.  0.
        -12    1    1    2    0    0 -0.20030681218E+02 -0.20010411457E+02  0.29180825642E+02  0.40659136020E+02  0.00000000000E+00 0.  1.
         11    1    3    3    0    0  0.16742752398E+02  0.12201272707E+02 -0.27520599803E+02  0.34446686739E+02  0.51100000000E-03 0. -1.
        -11    1    3    3    0    0 -0.33908654124E+01  0.31019767210E+01 -0.54044523606E+01  0.70942464999E+01  0.51100000000E-03 0.  1.
         12    1    3    3    0    0  0.66787942325E+01  0.47071620282E+01  0.37442265213E+01  0.89879307408E+01  0.00000000000E+00 0. -1.
</event>
<event>
 7    1  0.7611232E-013  0.5052885E+02  0.7816164E-02  0.1300439E+00
        -11   -1    0    0    0    0  0.00000000000E+00  0.00000000000E+00  0.45593999997E+02  0.45594000000E+02  0.51100000000E-03 0. -1.
         11   -1    0    0    0    0 -0.00000000000E+00 -0.00000000000E+00 -0.45593999997E+02  0.45594000000E+02  0.51100000000E-03 0.  1.
    9900012    2    1    2    0    0  0.21091054408E+02 -0.31879644833E+02  0.13857191098E+02  0.50528854954E+02  0.29999985119E+02 0.  0.
        -12    1    1    2    0    0 -0.21091054408E+02  0.31879644833E+02 -0.13857191098E+02  0.40659145046E+02  0.00000000000E+00 0.  1.
         11    1    3    3    0    0  0.26704191837E+01 -0.13030868326E+02  0.39166069923E+01  0.13866307315E+02  0.51100000000E-03 0. -1.
        -11    1    3    3    0    0  0.21116372830E+02 -0.22370438706E+02  0.77898217287E+01  0.31733563497E+02  0.51100000000E-03 0.  1.
        -12    1    3    3    0    0 -0.26957376054E+01  0.35216621987E+01  0.21507623769E+01  0.49289841428E+01  0.00000000000E+00 0.  1.
</event>
<event>
 7    1  0.5138511E-013  0.5052885E+02  0.7816164E-02  0.1300439E+00
        -11   -1    0    0    0    0  0.00000000000E+00  0.00000000000E+00  0.45593999997E+02  0.45594000000E+02  0.51100000000E-03 0. -1.
         11   -1    0    0    0    0 -0.00000000000E+00 -0.00000000000E+00 -0.45593999997E+02  0.45594000000E+02  0.51100000000E-03 0.  1.
    9900012    2    1    2    0    0  0.18097342353E+01  0.40151428140E+02 -0.61444693940E+01  0.50528845756E+02  0.29999957160E+02 0.  0.
        -12    1    1    2    0    0 -0.18097342353E+01 -0.40151428140E+02  0.61444693940E+01  0.40659154244E+02  0.00000000000E+00 0.  1.
         11    1    3    3    0    0 -0.58158743789E+01  0.25334123951E+02 -0.32107596961E+01  0.26190670271E+02  0.51100000000E-03 0. -1.
        -11    1    3    3    0    0  0.10137479913E+01 -0.18754133177E+01 -0.57789591381E+01  0.61596452075E+01  0.51100000000E-03 0.  1.
         12    1    3    3    0    0  0.66118606229E+01  0.16692717507E+02  0.28452494402E+01  0.18178530277E+02  0.00000000000E+00 0. -1.
</event>
<event>
 7    1  0.5138511E-013  0.5052889E+02  0.7816164E-02  0.1300439E+00
        -11   -1    0    0    0    0  0.00000000000E+00  0.00000000000E+00  0.45593999997E+02  0.45594000000E+02  0.51100000000E-03 0.  1.
         11   -1    0    0    0    0 -0.00000000000E+00 -0.00000000000E+00 -0.45593999997E+02  0.45594000000E+02  0.51100000000E-03 0. -1.
    9900012    2    1    2    0    0 -0.19707098971E+01 -0.13283549813E+01 -0.40589588946E+02  0.50528893330E+02  0.30000101765E+02 0.  0.
        -12    1    1    2    0    0  0.19707098971E+01  0.13283549813E+01  0.40589588946E+02  0.40659106670E+02  0.00000000000E+00 0.  1.
         11    1    3    3    0    0  0.56876550479E+01 -0.10629903782E+01 -0.31807978940E+01  0.66027906216E+01  0.51100000000E-03 0. -1.
        -11    1    3    3    0    0 -0.57390578437E+01  0.50238006078E+01 -0.17491325633E+01  0.78252682041E+01  0.51100000000E-03 0.  1.
         12    1    3    3    0    0 -0.19193071014E+01 -0.52891652109E+01 -0.35659658488E+02  0.36100834504E+02  0.00000000000E+00 0. -1.
</event>
<event>
 7    1  0.5138511E-013  0.5052886E+02  0.7816164E-02  0.1300439E+00
        -11   -1    0    0    0    0  0.00000000000E+00  0.00000000000E+00  0.45593999997E+02  0.45594000000E+02  0.51100000000E-03 0. -1.
         11   -1    0    0    0    0 -0.00000000000E+00 -0.00000000000E+00 -0.45593999997E+02  0.45594000000E+02  0.51100000000E-03 0.  1.
    9900012    2    1    2    0    0  0.14715953010E+01  0.24430906573E+02  0.32467379403E+02  0.50528861864E+02  0.30000006122E+02 0.  0.
        -12    1    1    2    0    0 -0.14715953010E+01 -0.24430906573E+02 -0.32467379403E+02  0.40659138136E+02  0.00000000000E+00 0.  1.
         11    1    3    3    0    0  0.76526845293E+01  0.32587562120E+01  0.12458296682E+02  0.14979727269E+02  0.51100000000E-03 0. -1.
        -11    1    3    3    0    0 -0.25136752066E+01  0.69030640650E+01 -0.32366346975E+01  0.80278677715E+01  0.51100000000E-03 0.  1.
         12    1    3    3    0    0 -0.36674140217E+01  0.14269086296E+02  0.23245717418E+02  0.27521266824E+02  0.00000000000E+00 0. -1.
</event>
<event>
 7    1  0.5138511E-013  0.5052884E+02  0.7816164E-02  0.1300439E+00
        -11   -1    0    0    0    0  0.00000000000E+00  0.00000000000E+00  0.45593999997E+02  0.45594000000E+02  0.51100000000E-03 0.  1.
         11   -1    0    0    0    0 -0.00000000000E+00 -0.00000000000E+00 -0.45593999997E+02  0.45594000000E+02  0.51100000000E-03 0. -1.
    9900012    2    1    2    0    0 -0.36138669550E+02  0.35006652841E+01 -0.18300524324E+02  0.50528840087E+02  0.29999939929E+02 0.  0.
        -12    1    1    2    0    0  0.36138669550E+02 -0.35006652841E+01  0.18300524324E+02  0.40659159913E+02  0.00000000000E+00 0.  1.
         11    1    3    3    0    0 -0.15204572987E+02 -0.67776236577E+01 -0.83519962822E+01  0.18624474874E+02  0.51100000000E-03 0. -1.
        -11    1    3    3    0    0 -0.51163660284E+01 -0.30430117750E+01  0.38081993385E+01  0.70667888366E+01  0.51100000000E-03 0.  1.
         12    1    3    3    0    0 -0.15817730535E+02  0.13321300717E+02 -0.13756727380E+02  0.24837576377E+02  0.00000000000E+00 0. -1.
</event>
<event>
 7    1  0.5138511E-013  0.5052887E+02  0.7816164E-02  0.1300439E+00
        -11   -1    0    0    0    0  0.00000000000E+00  0.00000000000E+00  0.45593999997E+02  0.45594000000E+02  0.51100000000E-03 0.  1.
         11   -1    0    0    0    0 -0.00000000000E+00 -0.00000000000E+00 -0.45593999997E+02  0.45594000000E+02  0.51100000000E-03 0. -1.
    9900012    2    1    2    0    0  0.33744322384E+01  0.39869664176E+02 -0.72241257931E+01  0.50528869317E+02  0.30000028776E+02 0.  0.
        -12    1    1    2    0    0 -0.33744322384E+01 -0.39869664176E+02  0.72241257931E+01  0.40659130683E+02  0.00000000000E+00 0.  1.
         11    1    3    3    0    0  0.60706479000E+01  0.23210404767E+02 -0.10687009527E+02  0.26263812142E+02  0.51100000000E-03 0. -1.
        -11    1    3    3    0    0  0.31198322237E+01  0.17741802171E+02  0.34904096702E+01  0.18349056033E+02  0.51100000000E-03 0.  1.
        -12    1    3    3    0    0 -0.58160478854E+01 -0.10825427614E+01 -0.27525936579E-01  0.59160011420E+01  0.00000000000E+00 0.  1.
</event>
<event>
 7    1  0.5138511E-013  0.5052887E+02  0.7816164E-02  0.1300439E+00
        -11   -1    0    0    0    0  0.00000000000E+00  0.00000000000E+00  0.45593999997E+02  0.45594000000E+02  0.51100000000E-03 0.  1.
         11   -1    0    0    0    0 -0.00000000000E+00 -0.00000000000E+00 -0.45593999997E+02  0.45594000000E+02  0.51100000000E-03 0. -1.
    9900012    2    1    2    0    0  0.29652351325E+02  0.24211757912E+02 -0.13700123474E+02  0.50528873798E+02  0.30000042398E+02 0.  0.
        -12    1    1    2    0    0 -0.29652351325E+02 -0.24211757912E+02  0.13700123474E+02  0.40659126202E+02  0.00000000000E+00 0.  1.
         11    1    3    3    0    0  0.80825372878E+01  0.37452491759E+01  0.28776626938E+01  0.93613697309E+01  0.51100000000E-03 0. -1.
        -11    1    3    3    0    0 -0.14031887666E+01 -0.35989012320E+01  0.27485336030E+00  0.38725409518E+01  0.51100000000E-03 0.  1.
         12    1    3    3    0    0  0.22973002803E+02  0.24065409968E+02 -0.16852639528E+02  0.37294963116E+02  0.00000000000E+00 0. -1.
</event>
<event>
 7    1  0.5138511E-013  0.5052887E+02  0.7816164E-02  0.1300439E+00
        -11   -1    0    0    0    0  0.00000000000E+00  0.00000000000E+00  0.45593999997E+02  0.45594000000E+02  0.51100000000E-03 0. -1.
         11   -1    0    0    0    0 -0.00000000000E+00 -0.00000000000E+00 -0.45593999997E+02  0.45594000000E+02  0.51100000000E-03 0.  1.
    9900012    2    1    2    0    0  0.67082999837E+01  0.13604032326E+02  0.37723919376E+02  0.50528867233E+02  0.30000022443E+02 0.  0.
        -12    1    1    2    0    0 -0.67082999837E+01 -0.13604032326E+02 -0.37723919376E+02  0.40659132767E+02  0.00000000000E+00 0.  1.
         11    1    3    3    0    0 -0.22497337439E+00 -0.25696563760E+01 -0.14577933436E+01  0.29629223081E+01  0.51100000000E-03 0. -1.
        -11    1    3    3    0    0  0.76148201767E+01  0.96167883354E+01  0.58527255386E+01  0.13591265603E+02  0.51100000000E-03 0.  1.
         12    1    3    3    0    0 -0.68154681855E+00  0.65569003668E+01  0.33328987182E+02  0.33974679322E+02  0.00000000000E+00 0. -1.
</event>
<event>
 7    1  0.5138511E-013  0.5052887E+02  0.7816164E-02  0.1300439E+00
        -11   -1    0    0    0    0  0.00000000000E+00  0.00000000000E+00  0.45593999997E+02  0.45594000000E+02  0.51100000000E-03 0.  1.
         11   -1    0    0    0    0 -0.00000000000E+00 -0.00000000000E+00 -0.45593999997E+02  0.45594000000E+02  0.51100000000E-03 0. -1.
    9900012    2    1    2    0    0  0.20792783097E+02 -0.22618861277E+02 -0.26631036107E+02  0.50528870662E+02  0.30000032864E+02 0.  0.
        -12    1    1    2    0    0 -0.20792783097E+02  0.22618861277E+02  0.26631036107E+02  0.40659129338E+02  0.00000000000E+00 0.  1.
         11    1    3    3    0    0  0.15538081332E+01 -0.19384746353E+02 -0.18311113896E+02  0.26711038977E+02  0.51100000000E-03 0. -1.
        -11    1    3    3    0    0  0.10347409987E+02 -0.70063884593E+01 -0.61075955244E+01  0.13909029299E+02  0.51100000000E-03 0.  1.
        -12    1    3    3    0    0  0.88915649763E+01  0.37722735353E+01 -0.22123266874E+01  0.99088023860E+01  0.00000000000E+00 0.  1.
</event>
<event>
 7    1  0.5138511E-013  0.5052886E+02  0.7816164E-02  0.1300439E+00
        -11   -1    0    0    0    0  0.00000000000E+00  0.00000000000E+00  0.45593999997E+02  0.45594000000E+02  0.51100000000E-03 0.  1.
         11   -1    0    0    0    0 -0.00000000000E+00 -0.00000000000E+00 -0.45593999997E+02  0.45594000000E+02  0.51100000000E-03 0. -1.
    9900012    2    1    2    0    0 -0.36462424058E+02  0.36635664966E+01 -0.17613514948E+02  0.50528855931E+02  0.29999988087E+02 0.  0.
        -12    1    1    2    0    0  0.36462424058E+02 -0.36635664966E+01  0.17613514948E+02  0.40659144069E+02  0.00000000000E+00 0.  1.
         11    1    3    3    0    0 -0.23129368875E+02  0.49642089049E+01 -0.50992052019E+01  0.24199441493E+02  0.51100000000E-03 0. -1.
        -11    1    3    3    0    0 -0.17090658625E+01  0.62956642573E+01  0.13995240563E+01  0.66719534177E+01  0.51100000000E-03 0.  1.
        -12    1    3    3    0    0 -0.11623989320E+02 -0.75963066655E+01 -0.13913833802E+02  0.19657461020E+02  0.00000000000E+00 0.  1.
</event>
<event>
 7    1  0.5138511E-013  0.5052886E+02  0.7816164E-02  0.1300439E+00
        -11   -1    0    0    0    0  0.00000000000E+00  0.00000000000E+00  0.45593999997E+02  0.45594000000E+02  0.51100000000E-03 0.  1.
         11   -1    0    0    0    0 -0.00000000000E+00 -0.00000000000E+00 -0.45593999997E+02  0.45594000000E+02  0.51100000000E-03 0. -1.
    9900012    2    1    2    0    0  0.40289813120E+02  0.22328960590E+01  0.49910940241E+01  0.50528857294E+02  0.29999992229E+02 0.  0.
        -12    1    1    2    0    0 -0.40289813120E+02 -0.22328960590E+01 -0.49910940241E+01  0.40659142706E+02  0.00000000000E+00 0.  1.
         11    1    3    3    0    0  0.59143560896E+01 -0.31194653928E+00 -0.53746450163E+01  0.79977326731E+01  0.51100000000E-03 0. -1.
        -11    1    3    3    0    0  0.14666611274E+02  0.11384574501E+02 -0.13063845902E-01  0.18566588102E+02  0.51100000000E-03 0.  1.
        -12    1    3    3    0    0  0.19708845757E+02 -0.88397319030E+01  0.10378802886E+02  0.23964536518E+02  0.00000000000E+00 0.  1.
</event>
<event>
 7    1  0.5138511E-013  0.5052886E+02  0.7816164E-02  0.1300439E+00
        -11   -1    0    0    0    0  0.00000000000E+00  0.00000000000E+00  0.45593999997E+02  0.45594000000E+02  0.51100000000E-03 0. -1.
         11   -1    0    0    0    0 -0.00000000000E+00 -0.00000000000E+00 -0.45593999997E+02  0.45594000000E+02  0.51100000000E-03 0.  1.
    9900012    2    1    2    0    0 -0.35878904877E+02  0.82972101653E+01  0.17234442973E+02  0.50528861589E+02  0.30000005286E+02 0.  0.
        -12    1    1    2    0    0  0.35878904877E+02 -0.82972101653E+01 -0.17234442973E+02  0.40659138411E+02  0.00000000000E+00 0.  1.
         11    1    3    3    0    0 -0.14270459337E+02  0.14805291780E+02 -0.20117275782E+01  0.20661309796E+02  0.51100000000E-03 0. -1.
        -11    1    3    3    0    0 -0.98783108297E+01 -0.47046061237E+01  0.84634669904E+01  0.13832737162E+02  0.51100000000E-03 0.  1.
        -12    1    3    3    0    0 -0.11730134711E+02 -0.18034754905E+01  0.10782703561E+02  0.16034814632E+02  0.00000000000E+00 0.  1.
</event>
<event>
 7    1  0.5138511E-013  0.5052882E+02  0.7816164E-02  0.1300439E+00
        -11   -1    0    0    0    0  0.00000000000E+00  0.00000000000E+00  0.45593999997E+02  0.45594000000E+02  0.51100000000E-03 0.  1.
         11   -1    0    0    0    0 -0.00000000000E+00 -0.00000000000E+00 -0.45593999997E+02  0.45594000000E+02  0.51100000000E-03 0. -1.
    9900012    2    1    2    0    0  0.20066487422E+02 -0.32783122127E+02  0.13257906362E+02  0.50528817827E+02  0.29999872267E+02 0.  0.
        -12    1    1    2    0    0 -0.20066487422E+02  0.32783122127E+02 -0.13257906362E+02  0.40659182173E+02  0.00000000000E+00 0.  1.
         11    1    3    3    0    0  0.81859711568E+01 -0.12427350434E+02  0.14452448001E+02  0.20744214038E+02  0.51100000000E-03 0. -1.
        -11    1    3    3    0    0 -0.40940083347E+01 -0.82860582717E+01  0.21411676335E+01  0.94870577643E+01  0.51100000000E-03 0.  1.
         12    1    3    3    0    0  0.15974524600E+02 -0.12069713422E+02 -0.33357092727E+01  0.20297546025E+02  0.00000000000E+00 0. -1.
</event>
<event>
 7    1  0.5138511E-013  0.5052888E+02  0.7816164E-02  0.1300439E+00
        -11   -1    0    0    0    0  0.00000000000E+00  0.00000000000E+00  0.45593999997E+02  0.45594000000E+02  0.51100000000E-03 0.  1.
         11   -1    0    0    0    0 -0.00000000000E+00 -0.00000000000E+00 -0.45593999997E+02  0.45594000000E+02  0.51100000000E-03 0. -1.
    9900012    2    1    2    0    0  0.43664427558E+01 -0.21783479618E+02 -0.34052582725E+02  0.50528878061E+02  0.30000055353E+02 0.  0.
        -12    1    1    2    0    0 -0.43664427558E+01  0.21783479618E+02  0.34052582725E+02  0.40659121939E+02  0.00000000000E+00 0.  1.
         11    1    3    3    0    0 -0.10949005108E+01 -0.29052250134E+01 -0.22263663730E+02  0.22479098346E+02  0.51100000000E-03 0. -1.
        -11    1    3    3    0    0  0.31685051230E+01  0.24443592407E+01 -0.16567215073E+01  0.43311711149E+01  0.51100000000E-03 0.  1.
        -12    1    3    3    0    0  0.22928381436E+01 -0.21322613846E+02 -0.10132197488E+02  0.23718608600E+02  0.00000000000E+00 0.  1.
</event>
<event>
 7    1  0.5138511E-013  0.5052886E+02  0.7816164E-02  0.1300439E+00
        -11   -1    0    0    0    0  0.00000000000E+00  0.00000000000E+00  0.45593999997E+02  0.45594000000E+02  0.51100000000E-03 0.  1.
         11   -1    0    0    0    0 -0.00000000000E+00 -0.00000000000E+00 -0.45593999997E+02  0.45594000000E+02  0.51100000000E-03 0. -1.
    9900012    2    1    2    0    0  0.22400361990E+02 -0.22113444037E+02 -0.25736843891E+02  0.50528858864E+02  0.29999997003E+02 0.  0.
        -12    1    1    2    0    0 -0.22400361990E+02  0.22113444037E+02  0.25736843891E+02  0.40659141136E+02  0.00000000000E+00 0.  1.
         11    1    3    3    0    0  0.12173855196E+02 -0.16072065186E+02 -0.13144287172E+02  0.24068367523E+02  0.51100000000E-03 0. -1.
        -11    1    3    3    0    0 -0.72073361815E+00 -0.73110479157E+01 -0.13534392066E+02  0.15399696342E+02  0.51100000000E-03 0.  1.
         12    1    3    3    0    0  0.10947240413E+02  0.12696690649E+01  0.94183534744E+00  0.11060794999E+02  0.00000000000E+00 0. -1.
</event>
<event>
 7    1  0.5138511E-013  0.5052886E+02  0.7816164E-02  0.1300439E+00
        -11   -1    0    0    0    0  0.00000000000E+00  0.00000000000E+00  0.45593999997E+02  0.45594000000E+02  0.51100000000E-03 0.  1.
         11   -1    0    0    0    0 -0.00000000000E+00 -0.00000000000E+00 -0.45593999997E+02  0.45594000000E+02  0.51100000000E-03 0. -1.
    9900012    2    1    2    0    0  0.30898199453E+02 -0.15342721249E+01 -0.26383956553E+02  0.50528857316E+02  0.29999992298E+02 0.  0.
        -12    1    1    2    0    0 -0.30898199453E+02  0.15342721249E+01  0.26383956553E+02  0.40659142684E+02  0.00000000000E+00 0.  1.
         11    1    3    3    0    0  0.76555591154E+01 -0.18972520238E+01 -0.67975656306E-01  0.78874439182E+01  0.51100000000E-03 0. -1.
        -11    1    3    3    0    0  0.14300359695E+02 -0.11162364431E+02 -0.98485922787E+01  0.20642030841E+02  0.51100000000E-03 0.  1.
        -12    1    3    3    0    0  0.89422806419E+01  0.11525344330E+02 -0.16467388618E+02  0.21999382557E+02  0.00000000000E+00 0.  1.
</event>
<event>
 7    1  0.5138511E-013  0.5052886E+02  0.7816164E-02  0.1300439E+00
        -11   -1    0    0    0    0  0.00000000000E+00  0.00000000000E+00  0.45593999997E+02  0.45594000000E+02  0.51100000000E-03 0. -1.
         11   -1    0    0    0    0 -0.00000000000E+00 -0.00000000000E+00 -0.45593999997E+02  0.45594000000E+02  0.51100000000E-03 0.  1.
    9900012    2    1    2    0    0 -0.26789187941E-01  0.27220202718E+02  0.30203067359E+02  0.50528862878E+02  0.30000009203E+02 0.  0.
        -12    1    1    2    0    0  0.26789187941E-01 -0.27220202718E+02 -0.30203067359E+02  0.40659137122E+02  0.00000000000E+00 0.  1.
         11    1    3    3    0    0 -0.11751901909E+02  0.77653136561E+01  0.17041094615E+02  0.22108961998E+02  0.51100000000E-03 0.  1.
        -11    1    3    3    0    0  0.65255426420E+01  0.19318135884E+01  0.47478509547E+01  0.82979937011E+01  0.51100000000E-03 0. -1.
        -12    1    3    3    0    0  0.51995700795E+01  0.17523075473E+02  0.84141217891E+01  0.20121907179E+02  0.00000000000E+00 0.  1.
</event>
<event>
 7    1  0.5138511E-013  0.5052886E+02  0.7816164E-02  0.1300439E+00
        -11   -1    0    0    0    0  0.00000000000E+00  0.00000000000E+00  0.45593999997E+02  0.45594000000E+02  0.51100000000E-03 0.  1.
         11   -1    0    0    0    0 -0.00000000000E+00 -0.00000000000E+00 -0.45593999997E+02  0.45594000000E+02  0.51100000000E-03 0. -1.
    9900012    2    1    2    0    0 -0.24210410339E+02 -0.19417338649E+02 -0.26267637590E+02  0.50528858426E+02  0.29999995671E+02 0.  0.
        -12    1    1    2    0    0  0.24210410339E+02  0.19417338649E+02  0.26267637590E+02  0.40659141574E+02  0.00000000000E+00 0.  1.
         11    1    3    3    0    0 -0.20793688191E+02 -0.96327871245E+01 -0.79210686916E+01  0.24246884044E+02  0.51100000000E-03 0. -1.
        -11    1    3    3    0    0 -0.29607784403E+01  0.24080593847E+01  0.48102527744E+00  0.38466016886E+01  0.51100000000E-03 0.  1.
        -12    1    3    3    0    0 -0.45594370829E+00 -0.12192610909E+02 -0.18827594176E+02  0.22435372693E+02  0.00000000000E+00 0.  1.
</event>
<event>
 7    1  0.5138511E-013  0.5052886E+02  0.7816164E-02  0.1300439E+00
        -11   -1    0    0    0    0  0.00000000000E+00  0.00000000000E+00  0.45593999997E+02  0.45594000000E+02  0.51100000000E-03 0.  1.
         11   -1    0    0    0    0 -0.00000000000E+00 -0.00000000000E+00 -0.45593999997E+02  0.45594000000E+02  0.51100000000E-03 0. -1.
    9900012    2    1    2    0    0 -0.39932363015E+02 -0.11620682434E+01 -0.75645186519E+01  0.50528856367E+02  0.29999989412E+02 0.  0.
        -12    1    1    2    0    0  0.39932363015E+02  0.11620682434E+01  0.75645186519E+01  0.40659143633E+02  0.00000000000E+00 0.  1.
         11    1    3    3    0    0 -0.11858289947E+02 -0.58160994212E+01 -0.86767688747E+01  0.15802922873E+02  0.51100000000E-03 0. -1.
        -11    1    3    3    0    0  0.55789126663E+00  0.59940302892E+01  0.69169340628E+00  0.60595446861E+01  0.51100000000E-03 0.  1.
         12    1    3    3    0    0 -0.28631964334E+02 -0.13399991114E+01  0.42055681653E+00  0.28666388808E+02  0.00000000000E+00 0. -1.
</event>
<event>
 7    1  0.5138511E-013  0.5052885E+02  0.7816164E-02  0.1300439E+00
        -11   -1    0    0    0    0  0.00000000000E+00  0.00000000000E+00  0.45593999997E+02  0.45594000000E+02  0.51100000000E-03 0.  1.
         11   -1    0    0    0    0 -0.00000000000E+00 -0.00000000000E+00 -0.45593999997E+02  0.45594000000E+02  0.51100000000E-03 0. -1.
    9900012    2    1    2    0    0  0.29312999601E+00 -0.37610759440E+02 -0.15443808839E+02  0.50528851185E+02  0.29999973663E+02 0.  0.
        -12    1    1    2    0    0 -0.29312999601E+00  0.37610759440E+02  0.15443808839E+02  0.40659148815E+02  0.00000000000E+00 0.  1.
         11    1    3    3    0    0 -0.29077985799E+01 -0.17817391332E+02 -0.18033186234E+02  0.25516867607E+02  0.51100000000E-03 0. -1.
        -11    1    3    3    0    0 -0.50617120652E+01 -0.49124016863E+01  0.36804998726E+01  0.79560479468E+01  0.51100000000E-03 0.  1.
         12    1    3    3    0    0  0.82626406410E+01 -0.14880966422E+02 -0.10911224777E+01  0.17055935632E+02  0.00000000000E+00 0. -1.
</event>
<event>
 7    1  0.5138511E-013  0.5052886E+02  0.7816164E-02  0.1300439E+00
        -11   -1    0    0    0    0  0.00000000000E+00  0.00000000000E+00  0.45593999997E+02  0.45594000000E+02  0.51100000000E-03 0.  1.
         11   -1    0    0    0    0 -0.00000000000E+00 -0.00000000000E+00 -0.45593999997E+02  0.45594000000E+02  0.51100000000E-03 0. -1.
    9900012    2    1    2    0    0  0.98494715578E+01  0.20795687634E+02 -0.33521528105E+02  0.50528861290E+02  0.30000004377E+02 0.  0.
        -12    1    1    2    0    0 -0.98494715578E+01 -0.20795687634E+02  0.33521528105E+02  0.40659138710E+02  0.00000000000E+00 0.  1.
         11    1    3    3    0    0  0.42090442584E+01  0.17326794946E+01 -0.89936708621E+00  0.46397298646E+01  0.51100000000E-03 0. -1.
        -11    1    3    3    0    0 -0.75664477181E+01  0.67000549095E+01 -0.19700106021E+01  0.10296737779E+02  0.51100000000E-03 0.  1.
         12    1    3    3    0    0  0.13206875018E+02  0.12362953230E+02 -0.30652150417E+02  0.35592393646E+02  0.00000000000E+00 0. -1.
</event>
<event>
 7    1  0.5138511E-013  0.5052886E+02  0.7816164E-02  0.1300439E+00
        -11   -1    0    0    0    0  0.00000000000E+00  0.00000000000E+00  0.45593999997E+02  0.45594000000E+02  0.51100000000E-03 0.  1.
         11   -1    0    0    0    0 -0.00000000000E+00 -0.00000000000E+00 -0.45593999997E+02  0.45594000000E+02  0.51100000000E-03 0. -1.
    9900012    2    1    2    0    0 -0.46118212055E+01 -0.25299303798E+02 -0.31493529022E+02  0.50528855423E+02  0.29999986543E+02 0.  0.
        -12    1    1    2    0    0  0.46118212055E+01  0.25299303798E+02  0.31493529022E+02  0.40659144577E+02  0.00000000000E+00 0.  1.
         11    1    3    3    0    0 -0.21703394840E+01 -0.12076919523E+02 -0.94667027916E+01  0.15497768248E+02  0.51100000000E-03 0. -1.
        -11    1    3    3    0    0  0.79938033715E+01  0.49040028098E+00 -0.13755058643E+02  0.15916752914E+02  0.51100000000E-03 0.  1.
         12    1    3    3    0    0 -0.10435285093E+02 -0.13712784556E+02 -0.82717675868E+01  0.19114334262E+02  0.00000000000E+00 0. -1.
</event>
<event>
 7    1  0.5138511E-013  0.5052890E+02  0.7816164E-02  0.1300439E+00
        -11   -1    0    0    0    0  0.00000000000E+00  0.00000000000E+00  0.45593999997E+02  0.45594000000E+02  0.51100000000E-03 0.  1.
         11   -1    0    0    0    0 -0.00000000000E+00 -0.00000000000E+00 -0.45593999997E+02  0.45594000000E+02  0.51100000000E-03 0. -1.
    9900012    2    1    2    0    0 -0.21029291567E+02 -0.22223366696E+02 -0.26777853835E+02  0.50528897857E+02  0.30000115524E+02 0.  0.
        -12    1    1    2    0    0  0.21029291567E+02  0.22223366696E+02  0.26777853835E+02  0.40659102143E+02  0.00000000000E+00 0.  1.
         11    1    3    3    0    0 -0.97937375358E+00  0.37227358580E+01 -0.22030382667E+01  0.44352354034E+01  0.51100000000E-03 0. -1.
        -11    1    3    3    0    0 -0.50326762560E+00 -0.15181716216E+02 -0.39216428290E+01  0.15688118699E+02  0.51100000000E-03 0.  1.
         12    1    3    3    0    0 -0.19546650187E+02 -0.10764386338E+02 -0.20653172740E+02  0.30405543754E+02  0.00000000000E+00 0. -1.
</event>
<event>
 7    1  0.5138511E-013  0.5052886E+02  0.7816164E-02  0.1300439E+00
        -11   -1    0    0    0    0  0.00000000000E+00  0.00000000000E+00  0.45593999997E+02  0.45594000000E+02  0.51100000000E-03 0.  1.
         11   -1    0    0    0    0 -0.00000000000E+00 -0.00000000000E+00 -0.45593999997E+02  0.45594000000E+02  0.51100000000E-03 0. -1.
    9900012    2    1    2    0    0 -0.21747401836E+02 -0.19449652187E+02 -0.28318318904E+02  0.50528860285E+02  0.30000001323E+02 0.  0.
        -12    1    1    2    0    0  0.21747401836E+02  0.19449652187E+02  0.28318318904E+02  0.40659139715E+02  0.00000000000E+00 0.  1.
         11    1    3    3    0    0 -0.14746216658E+02 -0.81314099169E+01 -0.20000553961E+02  0.26145609420E+02  0.51100000000E-03 0. -1.
        -11    1    3    3    0    0 -0.11289192513E+02 -0.13563206941E+02 -0.44806758267E+01  0.18206672025E+02  0.51100000000E-03 0.  1.
         12    1    3    3    0    0  0.42880073351E+01  0.22449646703E+01 -0.38370891158E+01  0.61765788394E+01  0.00000000000E+00 0. -1.
</event>
<event>
 7    1  0.5138511E-013  0.5052886E+02  0.7816164E-02  0.1300439E+00
        -11   -1    0    0    0    0  0.00000000000E+00  0.00000000000E+00  0.45593999997E+02  0.45594000000E+02  0.51100000000E-03 0.  1.
         11   -1    0    0    0    0 -0.00000000000E+00 -0.00000000000E+00 -0.45593999997E+02  0.45594000000E+02  0.51100000000E-03 0. -1.
    9900012    2    1    2    0    0  0.12478360001E+02 -0.24846863777E+02 -0.29666309317E+02  0.50528855686E+02  0.29999987344E+02 0.  0.
        -12    1    1    2    0    0 -0.12478360001E+02  0.24846863777E+02  0.29666309317E+02  0.40659144314E+02  0.00000000000E+00 0.  1.
         11    1    3    3    0    0  0.12781616465E+02 -0.80751738400E+01 -0.20042401801E+02  0.25105298688E+02  0.51100000000E-03 0. -1.
        -11    1    3    3    0    0 -0.74763098194E+00 -0.75183038514E+00  0.41552012421E+01  0.42883445101E+01  0.51100000000E-03 0.  1.
         12    1    3    3    0    0  0.44437451835E+00 -0.16019859552E+02 -0.13779108758E+02  0.21135212488E+02  0.00000000000E+00 0. -1.
</event>
<event>
 7    1  0.5138511E-013  0.5052888E+02  0.7816164E-02  0.1300439E+00
        -11   -1    0    0    0    0  0.00000000000E+00  0.00000000000E+00  0.45593999997E+02  0.45594000000E+02  0.51100000000E-03 0. -1.
         11   -1    0    0    0    0 -0.00000000000E+00 -0.00000000000E+00 -0.45593999997E+02  0.45594000000E+02  0.51100000000E-03 0.  1.
    9900012    2    1    2    0    0 -0.30684411299E+02 -0.26670304381E+02  0.57053721092E+00  0.50528883614E+02  0.30000072234E+02 0.  0.
        -12    1    1    2    0    0  0.30684411299E+02  0.26670304381E+02 -0.57053721092E+00  0.40659116386E+02  0.00000000000E+00 0.  1.
         11    1    3    3    0    0 -0.30430212357E+01 -0.13728959776E+01 -0.48909584999E+01  0.59216802443E+01  0.51100000000E-03 0.  1.
        -11    1    3    3    0    0  0.24656643772E+01 -0.29073358759E+01  0.59705506830E+01  0.70837545437E+01  0.51100000000E-03 0. -1.
        -12    1    3    3    0    0 -0.30107054440E+02 -0.22390072528E+02 -0.50905497220E+00  0.37523448826E+02  0.00000000000E+00 0.  1.
</event>
<event>
 7    1  0.5138511E-013  0.5052886E+02  0.7816164E-02  0.1300439E+00
        -11   -1    0    0    0    0  0.00000000000E+00  0.00000000000E+00  0.45593999997E+02  0.45594000000E+02  0.51100000000E-03 0. -1.
         11   -1    0    0    0    0 -0.00000000000E+00 -0.00000000000E+00 -0.45593999997E+02  0.45594000000E+02  0.51100000000E-03 0.  1.
    9900012    2    1    2    0    0  0.35717151565E+02  0.17662100310E+02  0.80932600205E+01  0.50528861285E+02  0.30000004361E+02 0.  0.
        -12    1    1    2    0    0 -0.35717151565E+02 -0.17662100310E+02 -0.80932600205E+01  0.40659138715E+02  0.00000000000E+00 0.  1.
         11    1    3    3    0    0  0.12052118218E+02  0.86990760870E+01  0.56813429007E+00  0.14874483357E+02  0.51100000000E-03 0. -1.
        -11    1    3    3    0    0  0.13567458375E+02  0.77560303054E+01 -0.76397781012E+01  0.17395348302E+02  0.51100000000E-03 0.  1.
         12    1    3    3    0    0  0.10097574973E+02  0.12069939177E+01  0.15164903832E+02  0.18259029626E+02  0.00000000000E+00 0. -1.
</event>
<event>
 7    1  0.5138511E-013  0.5052886E+02  0.7816164E-02  0.1300439E+00
        -11   -1    0    0    0    0  0.00000000000E+00  0.00000000000E+00  0.45593999997E+02  0.45594000000E+02  0.51100000000E-03 0. -1.
         11   -1    0    0    0    0 -0.00000000000E+00 -0.00000000000E+00 -0.45593999997E+02  0.45594000000E+02  0.51100000000E-03 0.  1.
    9900012    2    1    2    0    0  0.33409706632E+02  0.73906816366E+00  0.23160549958E+02  0.50528858428E+02  0.29999995679E+02 0.  0.
        -12    1    1    2    0    0 -0.33409706632E+02 -0.73906816366E+00 -0.23160549958E+02  0.40659141572E+02  0.00000000000E+00 0.  1.
         11    1    3    3    0    0  0.18971981409E+02 -0.39916806649E+01  0.76306330756E+00  0.19402367356E+02  0.51100000000E-03 0. -1.
        -11    1    3    3    0    0 -0.37454355313E+00  0.28680435906E+01 -0.12579725704E+01  0.31541167004E+01  0.51100000000E-03 0.  1.
         12    1    3    3    0    0  0.14812268776E+02  0.18627052379E+01  0.23655459221E+02  0.27972374373E+02  0.00000000000E+00 0. -1.
</event>
<event>
 7    1  0.5138511E-013  0.5052886E+02  0.7816164E-02  0.1300439E+00
        -11   -1    0    0    0    0  0.00000000000E+00  0.00000000000E+00  0.45593999997E+02  0.45594000000E+02  0.51100000000E-03 0.  1.
         11   -1    0    0    0    0 -0.00000000000E+00 -0.00000000000E+00 -0.45593999997E+02  0.45594000000E+02  0.51100000000E-03 0. -1.
    9900012    2    1    2    0    0 -0.74411379164E+01 -0.16294243445E+02 -0.36500580395E+02  0.50528864838E+02  0.30000015162E+02 0.  0.
        -12    1    1    2    0    0  0.74411379164E+01  0.16294243445E+02  0.36500580395E+02  0.40659135162E+02  0.00000000000E+00 0.  1.
         11    1    3    3    0    0 -0.54174591608E+01 -0.42577027937E+01 -0.13303378300E+02  0.14981881434E+02  0.51100000000E-03 0. -1.
        -11    1    3    3    0    0 -0.77397032716E+01  0.27245175968E+01 -0.16364002063E+02  0.18305916166E+02  0.51100000000E-03 0.  1.
        -12    1    3    3    0    0  0.57160245160E+01 -0.14761058248E+02 -0.68332000313E+01  0.17241067239E+02  0.00000000000E+00 0.  1.
</event>
<event>
 7    1  0.5138511E-013  0.5052885E+02  0.7816164E-02  0.1300439E+00
        -11   -1    0    0    0    0  0.00000000000E+00  0.00000000000E+00  0.45593999997E+02  0.45594000000E+02  0.51100000000E-03 0.  1.
         11   -1    0    0    0    0 -0.00000000000E+00 -0.00000000000E+00 -0.45593999997E+02  0.45594000000E+02  0.51100000000E-03 0. -1.
    9900012    2    1    2    0    0  0.34218193117E+01  0.24412289500E+02 -0.32334160349E+02  0.50528847875E+02  0.29999963600E+02 0.  0.
        -12    1    1    2    0    0 -0.34218193117E+01 -0.24412289500E+02  0.32334160349E+02  0.40659152125E+02  0.00000000000E+00 0.  1.
         11    1    3    3    0    0  0.47738643693E+01  0.56014732604E+01  0.53850620024E+00  0.73794493624E+01  0.51100000000E-03 0.  1.
        -11    1    3    3    0    0 -0.18185069743E+01 -0.42978965656E+01 -0.38660933622E+01  0.60601617677E+01  0.51100000000E-03 0. -1.
         12    1    3    3    0    0  0.46646191674E+00  0.23108712805E+02 -0.29006573187E+02  0.37089236745E+02  0.00000000000E+00 0. -1.
</event>
<event>
 7    1  0.5138511E-013  0.5052886E+02  0.7816164E-02  0.1300439E+00
        -11   -1    0    0    0    0  0.00000000000E+00  0.00000000000E+00  0.45593999997E+02  0.45594000000E+02  0.51100000000E-03 0.  1.
         11   -1    0    0    0    0 -0.00000000000E+00 -0.00000000000E+00 -0.45593999997E+02  0.45594000000E+02  0.51100000000E-03 0. -1.
    9900012    2    1    2    0    0 -0.25201049880E+00 -0.10721670904E+02 -0.39219227212E+02  0.50528861797E+02  0.30000005919E+02 0.  0.
        -12    1    1    2    0    0  0.25201049880E+00  0.10721670904E+02  0.39219227212E+02  0.40659138203E+02  0.00000000000E+00 0.  1.
         11    1    3    3    0    0 -0.72312968598E+01 -0.70419241535E+01 -0.85670223080E+01  0.13239117098E+02  0.51100000000E-03 0. -1.
        -11    1    3    3    0    0  0.33180694395E+01 -0.11468438329E+02 -0.12994126366E+02  0.17646018894E+02  0.51100000000E-03 0.  1.
         12    1    3    3    0    0  0.36612169216E+01  0.77886915786E+01 -0.17658078538E+02  0.19643725805E+02  0.00000000000E+00 0. -1.
</event>
<event>
 7    1  0.8222498E-013  0.5052900E+02  0.7816164E-02  0.1300438E+00
        -11   -1    0    0    0    0  0.00000000000E+00  0.00000000000E+00  0.45593999997E+02  0.45594000000E+02  0.51100000000E-03 0. -1.
         11   -1    0    0    0    0 -0.00000000000E+00 -0.00000000000E+00 -0.45593999997E+02  0.45594000000E+02  0.51100000000E-03 0.  1.
    9900012    2    1    2    0    0  0.14184354708E+02  0.22554942215E+02  0.30712102062E+02  0.50528996694E+02  0.30000415947E+02 0.  0.
        -12    1    1    2    0    0 -0.14184354708E+02 -0.22554942215E+02 -0.30712102062E+02  0.40659003306E+02  0.00000000000E+00 0.  1.
         11    1    3    3    0    0  0.50131581672E+01  0.67656301767E+01  0.70263786478E+01  0.10967018905E+02  0.51100000000E-03 0. -1.
        -11    1    3    3    0    0  0.13186970468E+02 -0.19225084542E+01  0.12242323282E+02  0.18096041238E+02  0.51100000000E-03 0.  1.
        -12    1    3    3    0    0 -0.40157739281E+01  0.17711820493E+02  0.11443400132E+02  0.21465936550E+02  0.00000000000E+00 0.  1.
</event>
<event>
 7    1  0.6132085E-013  0.5052888E+02  0.7816164E-02  0.1300439E+00
        -11   -1    0    0    0    0  0.00000000000E+00  0.00000000000E+00  0.45593999997E+02  0.45594000000E+02  0.51100000000E-03 0. -1.
         11   -1    0    0    0    0 -0.00000000000E+00 -0.00000000000E+00 -0.45593999997E+02  0.45594000000E+02  0.51100000000E-03 0.  1.
    9900012    2    1    2    0    0 -0.40559097126E+02 -0.28331059480E+01 -0.31183694086E+00  0.50528879360E+02  0.30000059302E+02 0.  0.
        -12    1    1    2    0    0  0.40559097126E+02  0.28331059480E+01  0.31183694086E+00  0.40659120640E+02  0.00000000000E+00 0.  1.
         11    1    3    3    0    0 -0.22763595000E+02 -0.76006614809E+01  0.20167839101E+01  0.24083578012E+02  0.51100000000E-03 0. -1.
        -11    1    3    3    0    0  0.12600420877E+01 -0.17824638854E+01 -0.56194213154E+01  0.60284973042E+01  0.51100000000E-03 0.  1.
         12    1    3    3    0    0 -0.19055544214E+02  0.65500194184E+01  0.32908004644E+01  0.20416804044E+02  0.00000000000E+00 0. -1.
</event>
<event>
 7    1  0.5138511E-013  0.5052885E+02  0.7816164E-02  0.1300439E+00
        -11   -1    0    0    0    0  0.00000000000E+00  0.00000000000E+00  0.45593999997E+02  0.45594000000E+02  0.51100000000E-03 0.  1.
         11   -1    0    0    0    0 -0.00000000000E+00 -0.00000000000E+00 -0.45593999997E+02  0.45594000000E+02  0.51100000000E-03 0. -1.
    9900012    2    1    2    0    0  0.53659412838E+00 -0.24649526387E+02 -0.32330778445E+02  0.50528851961E+02  0.29999976022E+02 0.  0.
        -12    1    1    2    0    0 -0.53659412838E+00  0.24649526387E+02  0.32330778445E+02  0.40659148039E+02  0.00000000000E+00 0.  1.
         11    1    3    3    0    0 -0.11711000099E+01 -0.17585880535E+02 -0.20490782590E+01  0.17743545063E+02  0.51100000000E-03 0. -1.
        -11    1    3    3    0    0 -0.34834882790E+01 -0.15927450484E+01 -0.44317282258E+01  0.58576226156E+01  0.51100000000E-03 0.  1.
         12    1    3    3    0    0  0.51911824173E+01 -0.54709008037E+01 -0.25849971960E+02  0.26927684283E+02  0.00000000000E+00 0. -1.
</event>
<event>
 7    1  0.5138511E-013  0.5052885E+02  0.7816164E-02  0.1300439E+00
        -11   -1    0    0    0    0  0.00000000000E+00  0.00000000000E+00  0.45593999997E+02  0.45594000000E+02  0.51100000000E-03 0.  1.
         11   -1    0    0    0    0 -0.00000000000E+00 -0.00000000000E+00 -0.45593999997E+02  0.45594000000E+02  0.51100000000E-03 0. -1.
    9900012    2    1    2    0    0 -0.34767236860E+02  0.27935359560E+00 -0.21079073155E+02  0.50528854382E+02  0.29999983379E+02 0.  0.
        -12    1    1    2    0    0  0.34767236860E+02 -0.27935359560E+00  0.21079073155E+02  0.40659145618E+02  0.00000000000E+00 0.  1.
         11    1    3    3    0    0 -0.14179540337E+02  0.25406606748E+01 -0.77422779878E+01  0.16354118428E+02  0.51100000000E-03 0. -1.
        -11    1    3    3    0    0 -0.17257624551E+02 -0.59934213233E-01  0.28601359169E+01  0.17493129365E+02  0.51100000000E-03 0.  1.
         12    1    3    3    0    0 -0.33300719712E+01 -0.22013728659E+01 -0.16196931084E+02  0.16681606589E+02  0.00000000000E+00 0. -1.
</event>
<event>
 7    1  0.5138511E-013  0.5052886E+02  0.7816164E-02  0.1300439E+00
        -11   -1    0    0    0    0  0.00000000000E+00  0.00000000000E+00  0.45593999997E+02  0.45594000000E+02  0.51100000000E-03 0.  1.
         11   -1    0    0    0    0 -0.00000000000E+00 -0.00000000000E+00 -0.45593999997E+02  0.45594000000E+02  0.51100000000E-03 0. -1.
    9900012    2    1    2    0    0  0.99593777627E-01  0.75875264315E+01 -0.39944777875E+02  0.50528858891E+02  0.29999997084E+02 0.  0.
        -12    1    1    2    0    0 -0.99593777627E-01 -0.75875264315E+01  0.39944777875E+02  0.40659141109E+02  0.00000000000E+00 0.  1.
         11    1    3    3    0    0 -0.10308606955E+01  0.53137161266E+01 -0.17696592658E+02  0.18505881357E+02  0.51100000000E-03 0. -1.
        -11    1    3    3    0    0  0.22832196572E+01 -0.10216172854E+02 -0.10805046197E+02  0.15044344564E+02  0.51100000000E-03 0.  1.
         12    1    3    3    0    0 -0.11527651841E+01  0.12489983159E+02 -0.11443139020E+02  0.16978632969E+02  0.00000000000E+00 0. -1.
</event>
<event>
 7    1  0.5138511E-013  0.5052887E+02  0.7816164E-02  0.1300439E+00
        -11   -1    0    0    0    0  0.00000000000E+00  0.00000000000E+00  0.45593999997E+02  0.45594000000E+02  0.51100000000E-03 0.  1.
         11   -1    0    0    0    0 -0.00000000000E+00 -0.00000000000E+00 -0.45593999997E+02  0.45594000000E+02  0.51100000000E-03 0. -1.
    9900012    2    1    2    0    0  0.13420881082E+02 -0.28281867664E+01 -0.38275924228E+02  0.50528867386E+02  0.30000022907E+02 0.  0.
        -12    1    1    2    0    0 -0.13420881082E+02  0.28281867664E+01  0.38275924228E+02  0.40659132614E+02  0.00000000000E+00 0.  1.
         11    1    3    3    0    0  0.38475440378E-01 -0.23991788987E+00 -0.27825546905E+02  0.27826607802E+02  0.51100000000E-03 0. -1.
        -11    1    3    3    0    0  0.11708371715E+02  0.45861794599E+01 -0.81483517827E+01  0.14983812842E+02  0.51100000000E-03 0.  1.
        -12    1    3    3    0    0  0.16740339260E+01 -0.71744483365E+01 -0.23020255410E+01  0.77184467420E+01  0.00000000000E+00 0.  1.
</event>
<event>
 7    1  0.5138511E-013  0.5052886E+02  0.7816164E-02  0.1300439E+00
        -11   -1    0    0    0    0  0.00000000000E+00  0.00000000000E+00  0.45593999997E+02  0.45594000000E+02  0.51100000000E-03 0. -1.
         11   -1    0    0    0    0 -0.00000000000E+00 -0.00000000000E+00 -0.45593999997E+02  0.45594000000E+02  0.51100000000E-03 0.  1.
    9900012    2    1    2    0    0 -0.15750269933E+02  0.27750176076E+02  0.25199642834E+02  0.50528864813E+02  0.30000015086E+02 0.  0.
        -12    1    1    2    0    0  0.15750269933E+02 -0.27750176076E+02 -0.25199642834E+02  0.40659135187E+02  0.00000000000E+00 0.  1.
         11    1    3    3    0    0  0.17618008034E+01  0.79354407573E+01 -0.50517480759E-01  0.81288199857E+01  0.51100000000E-03 0. -1.
        -11    1    3    3    0    0 -0.15439488391E+02  0.23924546639E+02  0.17606822093E+02  0.33477782455E+02  0.51100000000E-03 0.  1.
        -12    1    3    3    0    0 -0.20725823453E+01 -0.41098113201E+01  0.76433382218E+01  0.89222623722E+01  0.00000000000E+00 0.  1.
</event>
<event>
 7    1  0.5138511E-013  0.5052896E+02  0.7816164E-02  0.1300438E+00
        -11   -1    0    0    0    0  0.00000000000E+00  0.00000000000E+00  0.45593999997E+02  0.45594000000E+02  0.51100000000E-03 0.  1.
         11   -1    0    0    0    0 -0.00000000000E+00 -0.00000000000E+00 -0.45593999997E+02  0.45594000000E+02  0.51100000000E-03 0. -1.
    9900012    2    1    2    0    0  0.48697092038E+01 -0.39255058375E+02 -0.94066002310E+01  0.50528956681E+02  0.30000294325E+02 0.  0.
        -12    1    1    2    0    0 -0.48697092038E+01  0.39255058375E+02  0.94066002310E+01  0.40659043319E+02  0.00000000000E+00 0.  1.
         11    1    3    3    0    0  0.54047880376E+01 -0.13324519982E+02  0.79908958425E+01  0.16450197054E+02  0.51100000000E-03 0. -1.
        -11    1    3    3    0    0  0.32297700500E+00 -0.19577282636E+02 -0.51358984419E+01  0.20242326018E+02  0.51100000000E-03 0.  1.
         12    1    3    3    0    0 -0.85805583877E+00 -0.63532557566E+01 -0.12261597632E+02  0.13836433609E+02  0.00000000000E+00 0. -1.
</event>
<event>
 7    1  0.5138511E-013  0.5052886E+02  0.7816164E-02  0.1300439E+00
        -11   -1    0    0    0    0  0.00000000000E+00  0.00000000000E+00  0.45593999997E+02  0.45594000000E+02  0.51100000000E-03 0. -1.
         11   -1    0    0    0    0 -0.00000000000E+00 -0.00000000000E+00 -0.45593999997E+02  0.45594000000E+02  0.51100000000E-03 0.  1.
    9900012    2    1    2    0    0  0.27706637962E+02 -0.21020941257E+02  0.21062485501E+02  0.50528855224E+02  0.29999985938E+02 0.  0.
        -12    1    1    2    0    0 -0.27706637962E+02  0.21020941257E+02 -0.21062485501E+02  0.40659144776E+02  0.00000000000E+00 0.  1.
         11    1    3    3    0    0 -0.48899732873E+01 -0.75965723804E+01  0.49644442243E+01  0.10308513831E+02  0.51100000000E-03 0. -1.
        -11    1    3    3    0    0  0.41373653572E+01  0.13970551877E+01  0.40186159114E+01  0.59345454249E+01  0.51100000000E-03 0.  1.
         12    1    3    3    0    0  0.28459245892E+02 -0.14821424064E+02  0.12079425365E+02  0.34285795968E+02  0.00000000000E+00 0. -1.
</event>
<event>
 7    1  0.5138511E-013  0.5052885E+02  0.7816164E-02  0.1300439E+00
        -11   -1    0    0    0    0  0.00000000000E+00  0.00000000000E+00  0.45593999997E+02  0.45594000000E+02  0.51100000000E-03 0. -1.
         11   -1    0    0    0    0 -0.00000000000E+00 -0.00000000000E+00 -0.45593999997E+02  0.45594000000E+02  0.51100000000E-03 0.  1.
    9900012    2    1    2    0    0 -0.22704160163E+02  0.33648632597E+02  0.23360220034E+01  0.50528851421E+02  0.29999974380E+02 0.  0.
        -12    1    1    2    0    0  0.22704160163E+02 -0.33648632597E+02 -0.23360220034E+01  0.40659148579E+02  0.00000000000E+00 0.  1.
         11    1    3    3    0    0 -0.16653899718E+02  0.95608855104E+01 -0.37801468834E+01  0.19571724969E+02  0.51100000000E-03 0. -1.
        -11    1    3    3    0    0  0.18518459772E+01  0.44359683418E+01 -0.50843706572E+01  0.69969974913E+01  0.51100000000E-03 0.  1.
        -12    1    3    3    0    0 -0.79021064230E+01  0.19651778744E+02  0.11200539544E+02  0.23960128961E+02  0.00000000000E+00 0.  1.
</event>
<event>
 7    1  0.5138511E-013  0.5052886E+02  0.7816164E-02  0.1300439E+00
        -11   -1    0    0    0    0  0.00000000000E+00  0.00000000000E+00  0.45593999997E+02  0.45594000000E+02  0.51100000000E-03 0.  1.
         11   -1    0    0    0    0 -0.00000000000E+00 -0.00000000000E+00 -0.45593999997E+02  0.45594000000E+02  0.51100000000E-03 0. -1.
    9900012    2    1    2    0    0  0.29035971989E+01  0.13646429672E+01 -0.40532364267E+02  0.50528859820E+02  0.29999999909E+02 0.  0.
        -12    1    1    2    0    0 -0.29035971989E+01 -0.13646429672E+01  0.40532364267E+02  0.40659140180E+02  0.00000000000E+00 0.  1.
         11    1    3    3    0    0 -0.17818330927E+00  0.32137888266E+01 -0.29459849706E+01  0.43633720471E+01  0.51100000000E-03 0. -1.
        -11    1    3    3    0    0 -0.14889283353E+01  0.11693916117E+02 -0.22386749975E+02  0.25300813356E+02  0.51100000000E-03 0.  1.
        -12    1    3    3    0    0  0.45707088435E+01 -0.13543061977E+02 -0.15199629321E+02  0.20864674417E+02  0.00000000000E+00 0.  1.
</event>
<event>
 7    1  0.5138511E-013  0.5052886E+02  0.7816164E-02  0.1300439E+00
        -11   -1    0    0    0    0  0.00000000000E+00  0.00000000000E+00  0.45593999997E+02  0.45594000000E+02  0.51100000000E-03 0.  1.
         11   -1    0    0    0    0 -0.00000000000E+00 -0.00000000000E+00 -0.45593999997E+02  0.45594000000E+02  0.51100000000E-03 0. -1.
    9900012    2    1    2    0    0 -0.22558516427E+02  0.24165662166E+02  0.23670653181E+02  0.50528859413E+02  0.29999998670E+02 0.  0.
        -12    1    1    2    0    0  0.22558516427E+02 -0.24165662166E+02 -0.23670653181E+02  0.40659140587E+02  0.00000000000E+00 0.  1.
         11    1    3    3    0    0 -0.31788798137E+01  0.24706140620E+00 -0.34250037096E+01  0.46794195025E+01  0.51100000000E-03 0. -1.
        -11    1    3    3    0    0  0.43195856944E+01  0.53444977659E+01  0.47762817523E+01  0.83687122414E+01  0.51100000000E-03 0.  1.
         12    1    3    3    0    0 -0.23699222307E+02  0.18574102994E+02  0.22319375138E+02  0.37480727669E+02  0.00000000000E+00 0. -1.
</event>
<event>
 7    1  0.5138511E-013  0.5052886E+02  0.7816164E-02  0.1300439E+00
        -11   -1    0    0    0    0  0.00000000000E+00  0.00000000000E+00  0.45593999997E+02  0.45594000000E+02  0.51100000000E-03 0. -1.
         11   -1    0    0    0    0 -0.00000000000E+00 -0.00000000000E+00 -0.45593999997E+02  0.45594000000E+02  0.51100000000E-03 0.  1.
    9900012    2    1    2    0    0 -0.28532281969E+02 -0.28226884817E+02 -0.65051882878E+01  0.50528860616E+02  0.30000002327E+02 0.  0.
        -12    1    1    2    0    0  0.28532281969E+02  0.28226884817E+02  0.65051882878E+01  0.40659139384E+02  0.00000000000E+00 0.  1.
         11    1    3    3    0    0 -0.63475220512E+01 -0.15812087478E+02 -0.89093222167E+01  0.19227302703E+02  0.51100000000E-03 0. -1.
        -11    1    3    3    0    0 -0.16038160159E+02 -0.16745185288E+02 -0.62583733765E+00  0.23195160793E+02  0.51100000000E-03 0.  1.
        -12    1    3    3    0    0 -0.61465997586E+01  0.43303879486E+01  0.30299712666E+01  0.81063971192E+01  0.00000000000E+00 0.  1.
</event>
<event>
 7    1  0.5138511E-013  0.5052885E+02  0.7816164E-02  0.1300439E+00
        -11   -1    0    0    0    0  0.00000000000E+00  0.00000000000E+00  0.45593999997E+02  0.45594000000E+02  0.51100000000E-03 0.  1.
         11   -1    0    0    0    0 -0.00000000000E+00 -0.00000000000E+00 -0.45593999997E+02  0.45594000000E+02  0.51100000000E-03 0. -1.
    9900012    2    1    2    0    0  0.79514140649E+01  0.15387730283E+02 -0.36785312242E+02  0.50528850653E+02  0.29999972044E+02 0.  0.
        -12    1    1    2    0    0 -0.79514140649E+01 -0.15387730283E+02  0.36785312242E+02  0.40659149347E+02  0.00000000000E+00 0.  1.
         11    1    3    3    0    0 -0.94684763831E+00  0.13951760990E+01 -0.22037027361E+02  0.22101439138E+02  0.51100000000E-03 0. -1.
        -11    1    3    3    0    0 -0.39258834530E+01  0.98812155941E+01 -0.83410326192E+01  0.13513837646E+02  0.51100000000E-03 0.  1.
         12    1    3    3    0    0  0.12824145156E+02  0.41113385897E+01 -0.64072522616E+01  0.14913573868E+02  0.00000000000E+00 0. -1.
</event>
<event>
 7    1  0.5138511E-013  0.5052885E+02  0.7816164E-02  0.1300439E+00
        -11   -1    0    0    0    0  0.00000000000E+00  0.00000000000E+00  0.45593999997E+02  0.45594000000E+02  0.51100000000E-03 0.  1.
         11   -1    0    0    0    0 -0.00000000000E+00 -0.00000000000E+00 -0.45593999997E+02  0.45594000000E+02  0.51100000000E-03 0. -1.
    9900012    2    1    2    0    0  0.21682114402E+01 -0.19140933683E+02 -0.35806286870E+02  0.50528847740E+02  0.29999963191E+02 0.  0.
        -12    1    1    2    0    0 -0.21682114402E+01  0.19140933683E+02  0.35806286870E+02  0.40659152260E+02  0.00000000000E+00 0.  1.
         11    1    3    3    0    0  0.40257358516E+01 -0.46583104543E+01 -0.13233046061E+02  0.14595201737E+02  0.51100000000E-03 0. -1.
        -11    1    3    3    0    0 -0.82543248448E+01 -0.84159823866E+01 -0.24246435643E+02  0.26960198068E+02  0.51100000000E-03 0.  1.
        -12    1    3    3    0    0  0.63968004335E+01 -0.60666408421E+01  0.16731948348E+01  0.89734479353E+01  0.00000000000E+00 0.  1.
</event>
<event>
 7    1  0.5138511E-013  0.5052886E+02  0.7816164E-02  0.1300439E+00
        -11   -1    0    0    0    0  0.00000000000E+00  0.00000000000E+00  0.45593999997E+02  0.45594000000E+02  0.51100000000E-03 0. -1.
         11   -1    0    0    0    0 -0.00000000000E+00 -0.00000000000E+00 -0.45593999997E+02  0.45594000000E+02  0.51100000000E-03 0.  1.
    9900012    2    1    2    0    0  0.16953971807E+02  0.33280753175E+02 -0.16066119352E+02  0.50528857327E+02  0.29999992330E+02 0.  0.
        -12    1    1    2    0    0 -0.16953971807E+02 -0.33280753175E+02  0.16066119352E+02  0.40659142673E+02  0.00000000000E+00 0.  1.
         11    1    3    3    0    0  0.79055521409E+01  0.18816140972E+02 -0.46237639652E+01  0.20926636356E+02  0.51100000000E-03 0. -1.
        -11    1    3    3    0    0  0.12487932119E+02  0.67531060586E+01  0.13644436478E+01  0.14262348922E+02  0.51100000000E-03 0.  1.
        -12    1    3    3    0    0 -0.34395124534E+01  0.77115061442E+01 -0.12806799035E+02  0.15339872048E+02  0.00000000000E+00 0.  1.
</event>
<event>
 7    1  0.5138511E-013  0.5052886E+02  0.7816164E-02  0.1300439E+00
        -11   -1    0    0    0    0  0.00000000000E+00  0.00000000000E+00  0.45593999997E+02  0.45594000000E+02  0.51100000000E-03 0. -1.
         11   -1    0    0    0    0 -0.00000000000E+00 -0.00000000000E+00 -0.45593999997E+02  0.45594000000E+02  0.51100000000E-03 0.  1.
    9900012    2    1    2    0    0 -0.39786587898E+02 -0.70394071180E+01 -0.45430943848E+01  0.50528861597E+02  0.30000005309E+02 0.  0.
        -12    1    1    2    0    0  0.39786587898E+02  0.70394071180E+01  0.45430943848E+01  0.40659138403E+02  0.00000000000E+00 0.  1.
         11    1    3    3    0    0 -0.88788484502E+01  0.49576291643E+01 -0.69827687773E+01  0.12335764946E+02  0.51100000000E-03 0. -1.
        -11    1    3    3    0    0 -0.10950366791E+02 -0.38756597940E+00  0.90122446859E+01  0.14187363913E+02  0.51100000000E-03 0.  1.
         12    1    3    3    0    0 -0.19957372656E+02 -0.11609470303E+02 -0.65725702934E+01  0.24005732738E+02  0.00000000000E+00 0. -1.
</event>
<event>
 7    1  0.5138511E-013  0.5052891E+02  0.7816164E-02  0.1300439E+00
        -11   -1    0    0    0    0  0.00000000000E+00  0.00000000000E+00  0.45593999997E+02  0.45594000000E+02  0.51100000000E-03 0. -1.
         11   -1    0    0    0    0 -0.00000000000E+00 -0.00000000000E+00 -0.45593999997E+02  0.45594000000E+02  0.51100000000E-03 0.  1.
    9900012    2    1    2    0    0  0.20047820348E+02 -0.34357507554E+02  0.84147724867E+01  0.50528907266E+02  0.30000144124E+02 0.  0.
        -12    1    1    2    0    0 -0.20047820348E+02  0.34357507554E+02 -0.84147724867E+01  0.40659092734E+02  0.00000000000E+00 0.  1.
         11    1    3    3    0    0  0.66388081611E+01  0.20408283576E+01  0.64716271445E+01  0.94931929478E+01  0.51100000000E-03 0. -1.
        -11    1    3    3    0    0  0.39275394840E+01 -0.36268285398E+01 -0.36383475054E+01  0.64666084222E+01  0.51100000000E-03 0.  1.
         12    1    3    3    0    0  0.94814727025E+01 -0.32771507371E+02  0.55814928476E+01  0.34569105896E+02  0.00000000000E+00 0. -1.
</event>
<event>
 7    1  0.5138511E-013  0.5052881E+02  0.7816164E-02  0.1300439E+00
        -11   -1    0    0    0    0  0.00000000000E+00  0.00000000000E+00  0.45593999997E+02  0.45594000000E+02  0.51100000000E-03 0.  1.
         11   -1    0    0    0    0 -0.00000000000E+00 -0.00000000000E+00 -0.45593999997E+02  0.45594000000E+02  0.51100000000E-03 0. -1.
    9900012    2    1    2    0    0 -0.71566488050E+01  0.38919565113E+02 -0.93391210314E+01  0.50528814662E+02  0.29999862646E+02 0.  0.
        -12    1    1    2    0    0  0.71566488050E+01 -0.38919565113E+02  0.93391210314E+01  0.40659185338E+02  0.00000000000E+00 0.  1.
         11    1    3    3    0    0  0.44674633338E+01  0.51989353140E+01  0.30016905370E+01  0.74831345958E+01  0.51100000000E-03 0. -1.
        -11    1    3    3    0    0 -0.76535339714E+01  0.47283318828E+01  0.36383948244E+01  0.97042063975E+01  0.51100000000E-03 0.  1.
         12    1    3    3    0    0 -0.39705781674E+01  0.28992297916E+02 -0.15979206393E+02  0.33341473669E+02  0.00000000000E+00 0. -1.
</event>
<event>
 7    1  0.5138511E-013  0.5052886E+02  0.7816164E-02  0.1300439E+00
        -11   -1    0    0    0    0  0.00000000000E+00  0.00000000000E+00  0.45593999997E+02  0.45594000000E+02  0.51100000000E-03 0. -1.
         11   -1    0    0    0    0 -0.00000000000E+00 -0.00000000000E+00 -0.45593999997E+02  0.45594000000E+02  0.51100000000E-03 0.  1.
    9900012    2    1    2    0    0 -0.15688565269E+02 -0.33998091145E+02  0.15848164266E+02  0.50528860901E+02  0.30000003194E+02 0.  0.
        -12    1    1    2    0    0  0.15688565269E+02  0.33998091145E+02 -0.15848164266E+02  0.40659139099E+02  0.00000000000E+00 0.  1.
         11    1    3    3    0    0 -0.20631834904E+02 -0.22359211272E+02  0.16848764117E+02  0.34777691021E+02  0.51100000000E-03 0. -1.
        -11    1    3    3    0    0 -0.49500015145E-01  0.13318856234E+01  0.10571506693E+01  0.17011576540E+01  0.51100000000E-03 0.  1.
        -12    1    3    3    0    0  0.49927696504E+01 -0.12970765496E+02 -0.20577505204E+01  0.14050012226E+02  0.00000000000E+00 0.  1.
</event>
<event>
 7    1  0.5138511E-013  0.5052886E+02  0.7816164E-02  0.1300439E+00
        -11   -1    0    0    0    0  0.00000000000E+00  0.00000000000E+00  0.45593999997E+02  0.45594000000E+02  0.51100000000E-03 0.  1.
         11   -1    0    0    0    0 -0.00000000000E+00 -0.00000000000E+00 -0.45593999997E+02  0.45594000000E+02  0.51100000000E-03 0. -1.
    9900012    2    1    2    0    0 -0.26866347282E+02  0.30259657420E+02  0.39646128648E+01  0.50528860332E+02  0.30000001464E+02 0.  0.
        -12    1    1    2    0    0  0.26866347282E+02 -0.30259657420E+02 -0.39646128648E+01  0.40659139668E+02  0.00000000000E+00 0.  1.
         11    1    3    3    0    0 -0.60573655050E+00  0.10794872377E+02  0.57120547184E+01  0.12227990668E+02  0.51100000000E-03 0. -1.
        -11    1    3    3    0    0  0.20863172807E+01  0.52425636551E+01  0.27361197823E+01  0.62708488419E+01  0.51100000000E-03 0.  1.
         12    1    3    3    0    0 -0.28346928012E+02  0.14222221387E+02 -0.44835616359E+01  0.32030020822E+02  0.00000000000E+00 0. -1.
</event>
<event>
 7    1  0.5138511E-013  0.5052887E+02  0.7816164E-02  0.1300439E+00
        -11   -1    0    0    0    0  0.00000000000E+00  0.00000000000E+00  0.45593999997E+02  0.45594000000E+02  0.51100000000E-03 0.  1.
         11   -1    0    0    0    0 -0.00000000000E+00 -0.00000000000E+00 -0.45593999997E+02  0.45594000000E+02  0.51100000000E-03 0. -1.
    9900012    2    1    2    0    0 -0.27052619723E+02 -0.16939021733E+02 -0.25187102292E+02  0.50528870484E+02  0.30000032323E+02 0.  0.
        -12    1    1    2    0    0  0.27052619723E+02  0.16939021733E+02  0.25187102292E+02  0.40659129516E+02  0.00000000000E+00 0.  1.
         11    1    3    3    0    0 -0.32276938812E+01 -0.20894308680E+01 -0.11888153232E+02  0.12494475446E+02  0.51100000000E-03 0. -1.
        -11    1    3    3    0    0  0.30474609231E+01 -0.69381293799E+01 -0.20765279795E+01  0.78572658146E+01  0.51100000000E-03 0.  1.
        -12    1    3    3    0    0 -0.26872386765E+02 -0.79114614846E+01 -0.11222421081E+02  0.30177129223E+02  0.00000000000E+00 0.  1.
</event>
<event>
 7    1  0.5138511E-013  0.5052885E+02  0.7816164E-02  0.1300439E+00
        -11   -1    0    0    0    0  0.00000000000E+00  0.00000000000E+00  0.45593999997E+02  0.45594000000E+02  0.51100000000E-03 0.  1.
         11   -1    0    0    0    0 -0.00000000000E+00 -0.00000000000E+00 -0.45593999997E+02  0.45594000000E+02  0.51100000000E-03 0. -1.
    9900012    2    1    2    0    0  0.22948458085E+02  0.33060522974E+02  0.57910785119E+01  0.50528849762E+02  0.29999969335E+02 0.  0.
        -12    1    1    2    0    0 -0.22948458085E+02 -0.33060522974E+02 -0.57910785119E+01  0.40659150238E+02  0.00000000000E+00 0.  1.
         11    1    3    3    0    0  0.56782633657E+01  0.13525389363E+01  0.62952614843E+01  0.85850075039E+01  0.51100000000E-03 0. -1.
        -11    1    3    3    0    0  0.11679840521E+02  0.45071540587E+01 -0.55933691145E+01  0.13711998053E+02  0.51100000000E-03 0.  1.
         12    1    3    3    0    0  0.55903541988E+01  0.27200829979E+02  0.50891861421E+01  0.28231844205E+02  0.00000000000E+00 0. -1.
</event>
<event>
 7    1  0.5138511E-013  0.5052887E+02  0.7816164E-02  0.1300439E+00
        -11   -1    0    0    0    0  0.00000000000E+00  0.00000000000E+00  0.45593999997E+02  0.45594000000E+02  0.51100000000E-03 0.  1.
         11   -1    0    0    0    0 -0.00000000000E+00 -0.00000000000E+00 -0.45593999997E+02  0.45594000000E+02  0.51100000000E-03 0. -1.
    9900012    2    1    2    0    0  0.23737413485E+02 -0.29794627347E+02 -0.14211988969E+02  0.50528865133E+02  0.30000016059E+02 0.  0.
        -12    1    1    2    0    0 -0.23737413485E+02  0.29794627347E+02  0.14211988969E+02  0.40659134867E+02  0.00000000000E+00 0.  1.
         11    1    3    3    0    0  0.20146021095E+01 -0.10558753190E+01 -0.62907143458E+01  0.66892885713E+01  0.51100000000E-03 0. -1.
        -11    1    3    3    0    0 -0.30848612940E+01 -0.13371867878E+02 -0.45809361542E+01  0.14467487551E+02  0.51100000000E-03 0.  1.
        -12    1    3    3    0    0  0.24807672669E+02 -0.15366884150E+02 -0.33403384685E+01  0.29372089010E+02  0.00000000000E+00 0.  1.
</event>
<event>
 7    1  0.5138511E-013  0.5052886E+02  0.7816164E-02  0.1300439E+00
        -11   -1    0    0    0    0  0.00000000000E+00  0.00000000000E+00  0.45593999997E+02  0.45594000000E+02  0.51100000000E-03 0. -1.
         11   -1    0    0    0    0 -0.00000000000E+00 -0.00000000000E+00 -0.45593999997E+02  0.45594000000E+02  0.51100000000E-03 0.  1.
    9900012    2    1    2    0    0  0.28272817541E+02  0.25999664075E+02 -0.13335334298E+02  0.50528857307E+02  0.29999992269E+02 0.  0.
        -12    1    1    2    0    0 -0.28272817541E+02 -0.25999664075E+02  0.13335334298E+02  0.40659142693E+02  0.00000000000E+00 0.  1.
         11    1    3    3    0    0  0.73300240509E+01 -0.26305112637E+01 -0.25577638147E+01  0.81970115340E+01  0.51100000000E-03 0. -1.
        -11    1    3    3    0    0  0.45224250685E+01  0.35004947084E+01  0.57114750456E+01  0.80824958498E+01  0.51100000000E-03 0.  1.
         12    1    3    3    0    0  0.16420368422E+02  0.25129680630E+02 -0.16489045528E+02  0.34249349923E+02  0.00000000000E+00 0. -1.
</event>
<event>
 7    1  0.5138511E-013  0.5052885E+02  0.7816164E-02  0.1300439E+00
        -11   -1    0    0    0    0  0.00000000000E+00  0.00000000000E+00  0.45593999997E+02  0.45594000000E+02  0.51100000000E-03 0.  1.
         11   -1    0    0    0    0 -0.00000000000E+00 -0.00000000000E+00 -0.45593999997E+02  0.45594000000E+02  0.51100000000E-03 0. -1.
    9900012    2    1    2    0    0 -0.22055918005E+01 -0.40165064883E+02 -0.59219321126E+01  0.50528851556E+02  0.29999974788E+02 0.  0.
        -12    1    1    2    0    0  0.22055918005E+01  0.40165064883E+02  0.59219321126E+01  0.40659148444E+02  0.00000000000E+00 0.  1.
         11    1    3    3    0    0 -0.51765647586E+00 -0.17552069813E+02 -0.30876194693E+01  0.17829091878E+02  0.51100000000E-03 0. -1.
        -11    1    3    3    0    0 -0.50242402774E+01 -0.25663682403E+02 -0.64225736695E+01  0.26927997283E+02  0.51100000000E-03 0.  1.
        -12    1    3    3    0    0  0.33363049527E+01  0.30506873333E+01  0.35882610262E+01  0.57717623942E+01  0.00000000000E+00 0.  1.
</event>
<event>
 7    1  0.5138511E-013  0.5052874E+02  0.7816164E-02  0.1300439E+00
        -11   -1    0    0    0    0  0.00000000000E+00  0.00000000000E+00  0.45593999997E+02  0.45594000000E+02  0.51100000000E-03 0. -1.
         11   -1    0    0    0    0 -0.00000000000E+00 -0.00000000000E+00 -0.45593999997E+02  0.45594000000E+02  0.51100000000E-03 0.  1.
    9900012    2    1    2    0    0  0.85520277150E+01  0.13946790583E+02  0.37222642360E+02  0.50528742138E+02  0.29999642201E+02 0.  0.
        -12    1    1    2    0    0 -0.85520277150E+01 -0.13946790583E+02 -0.37222642360E+02  0.40659257862E+02  0.00000000000E+00 0.  1.
         11    1    3    3    0    0 -0.71086999964E+01 -0.19810456948E+00  0.75291894240E+01  0.10356715440E+02  0.51100000000E-03 0. -1.
        -11    1    3    3    0    0  0.27641257601E+01  0.75686974381E+01  0.11126951947E+01  0.81341049283E+01  0.51100000000E-03 0.  1.
         12    1    3    3    0    0  0.12896601951E+02  0.65761977145E+01  0.28580757741E+02  0.32037921770E+02  0.00000000000E+00 0. -1.
</event>
<event>
 7    1  0.5138511E-013  0.5052885E+02  0.7816164E-02  0.1300439E+00
        -11   -1    0    0    0    0  0.00000000000E+00  0.00000000000E+00  0.45593999997E+02  0.45594000000E+02  0.51100000000E-03 0.  1.
         11   -1    0    0    0    0 -0.00000000000E+00 -0.00000000000E+00 -0.45593999997E+02  0.45594000000E+02  0.51100000000E-03 0. -1.
    9900012    2    1    2    0    0  0.17694538200E+02 -0.19756604835E+02 -0.30817953803E+02  0.50528851050E+02  0.29999973252E+02 0.  0.
        -12    1    1    2    0    0 -0.17694538200E+02  0.19756604835E+02  0.30817953803E+02  0.40659148950E+02  0.00000000000E+00 0.  1.
         11    1    3    3    0    0  0.81308221001E+01 -0.10577228951E+02 -0.29731716674E+02  0.32587774041E+02  0.51100000000E-03 0.  1.
        -11    1    3    3    0    0  0.90652391675E+01 -0.64825392103E+01 -0.57425754037E+01  0.12537106856E+02  0.51100000000E-03 0. -1.
        -12    1    3    3    0    0  0.49847693215E+00 -0.26968366742E+01  0.46563382745E+01  0.54039701540E+01  0.00000000000E+00 0.  1.
</event>
<event>
 7    1  0.5138511E-013  0.5052886E+02  0.7816164E-02  0.1300439E+00
        -11   -1    0    0    0    0  0.00000000000E+00  0.00000000000E+00  0.45593999997E+02  0.45594000000E+02  0.51100000000E-03 0. -1.
         11   -1    0    0    0    0 -0.00000000000E+00 -0.00000000000E+00 -0.45593999997E+02  0.45594000000E+02  0.51100000000E-03 0.  1.
    9900012    2    1    2    0    0 -0.22395855560E+02  0.31516698578E+02  0.12581290222E+02  0.50528862046E+02  0.30000006675E+02 0.  0.
        -12    1    1    2    0    0  0.22395855560E+02 -0.31516698578E+02 -0.12581290222E+02  0.40659137954E+02  0.00000000000E+00 0.  1.
         11    1    3    3    0    0 -0.12428220496E+01  0.11901600787E+01  0.91696825579E+01  0.93297463060E+01  0.51100000000E-03 0. -1.
        -11    1    3    3    0    0 -0.79455411126E+00  0.13056520803E+02  0.59726275196E+01  0.14379719450E+02  0.51100000000E-03 0.  1.
        -12    1    3    3    0    0 -0.20358479399E+02  0.17270017697E+02 -0.25610198557E+01  0.26819396290E+02  0.00000000000E+00 0.  1.
</event>
<event>
 7    1  0.5138511E-013  0.5052885E+02  0.7816164E-02  0.1300439E+00
        -11   -1    0    0    0    0  0.00000000000E+00  0.00000000000E+00  0.45593999997E+02  0.45594000000E+02  0.51100000000E-03 0.  1.
         11   -1    0    0    0    0 -0.00000000000E+00 -0.00000000000E+00 -0.45593999997E+02  0.45594000000E+02  0.51100000000E-03 0. -1.
    9900012    2    1    2    0    0 -0.11059231183E+02  0.19311214865E+02 -0.34028472270E+02  0.50528849260E+02  0.29999967810E+02 0.  0.
        -12    1    1    2    0    0  0.11059231183E+02 -0.19311214865E+02  0.34028472270E+02  0.40659150740E+02  0.00000000000E+00 0.  1.
         11    1    3    3    0    0  0.36396451696E+01  0.12414724032E+01  0.83531094053E+00  0.39352274797E+01  0.51100000000E-03 0. -1.
        -11    1    3    3    0    0  0.13871755056E+00 -0.32437306043E+01 -0.10477722636E+02  0.10969216139E+02  0.51100000000E-03 0.  1.
         12    1    3    3    0    0 -0.14837593904E+02  0.21313473066E+02 -0.24386060574E+02  0.35624405641E+02  0.00000000000E+00 0. -1.
</event>
<event>
 7    1  0.5138511E-013  0.5052886E+02  0.7816164E-02  0.1300439E+00
        -11   -1    0    0    0    0  0.00000000000E+00  0.00000000000E+00  0.45593999997E+02  0.45594000000E+02  0.51100000000E-03 0. -1.
         11   -1    0    0    0    0 -0.00000000000E+00 -0.00000000000E+00 -0.45593999997E+02  0.45594000000E+02  0.51100000000E-03 0.  1.
    9900012    2    1    2    0    0 -0.24182404814E+02  0.49072302003E+01  0.32315570747E+02  0.50528859287E+02  0.29999998289E+02 0.  0.
        -12    1    1    2    0    0  0.24182404814E+02 -0.49072302003E+01 -0.32315570747E+02  0.40659140713E+02  0.00000000000E+00 0.  1.
         11    1    3    3    0    0 -0.94894223977E+01 -0.17420022817E+01 -0.42184178487E+01  0.10529898328E+02  0.51100000000E-03 0.  1.
        -11    1    3    3    0    0 -0.38679678796E+01  0.13084762867E+01  0.11579769616E+02  0.12278613535E+02  0.51100000000E-03 0. -1.
        -12    1    3    3    0    0 -0.10825014537E+02  0.53407561953E+01  0.24954218979E+02  0.27720347424E+02  0.00000000000E+00 0.  1.
</event>
<event>
 7    1  0.5138511E-013  0.5052886E+02  0.7816164E-02  0.1300439E+00
        -11   -1    0    0    0    0  0.00000000000E+00  0.00000000000E+00  0.45593999997E+02  0.45594000000E+02  0.51100000000E-03 0. -1.
         11   -1    0    0    0    0 -0.00000000000E+00 -0.00000000000E+00 -0.45593999997E+02  0.45594000000E+02  0.51100000000E-03 0.  1.
    9900012    2    1    2    0    0 -0.28559604965E+02  0.18285629804E+02  0.22431016548E+02  0.50528858390E+02  0.29999995563E+02 0.  0.
        -12    1    1    2    0    0  0.28559604965E+02 -0.18285629804E+02 -0.22431016548E+02  0.40659141610E+02  0.00000000000E+00 0.  1.
         11    1    3    3    0    0 -0.13704905614E+02  0.16807990915E+02  0.17892871005E+02  0.28115615404E+02  0.51100000000E-03 0. -1.
        -11    1    3    3    0    0 -0.69513899306E-01  0.47271131186E+01 -0.29003089263E+01  0.55463702317E+01  0.51100000000E-03 0.  1.
        -12    1    3    3    0    0 -0.14785185452E+02 -0.32494742300E+01  0.74384544692E+01  0.16866872754E+02  0.00000000000E+00 0.  1.
</event>
<event>
 7    1  0.5138511E-013  0.5052885E+02  0.7816164E-02  0.1300439E+00
        -11   -1    0    0    0    0  0.00000000000E+00  0.00000000000E+00  0.45593999997E+02  0.45594000000E+02  0.51100000000E-03 0. -1.
         11   -1    0    0    0    0 -0.00000000000E+00 -0.00000000000E+00 -0.45593999997E+02  0.45594000000E+02  0.51100000000E-03 0.  1.
    9900012    2    1    2    0    0 -0.75722588825E+01  0.37794967850E+02  0.12937080397E+02  0.50528846682E+02  0.29999959973E+02 0.  0.
        -12    1    1    2    0    0  0.75722588825E+01 -0.37794967850E+02 -0.12937080397E+02  0.40659153318E+02  0.00000000000E+00 0.  1.
         11    1    3    3    0    0 -0.37833512751E+01  0.34624035496E+02  0.19250157797E+02  0.39795805763E+02  0.51100000000E-03 0. -1.
        -11    1    3    3    0    0 -0.51913509005E+01  0.29810107984E+01 -0.21908974266E+01  0.63746828429E+01  0.51100000000E-03 0.  1.
        -12    1    3    3    0    0  0.14024432931E+01  0.18992155598E+00 -0.41221799726E+01  0.43583580755E+01  0.00000000000E+00 0.  1.
</event>
<event>
 7    1  0.5138511E-013  0.5052893E+02  0.7816164E-02  0.1300439E+00
        -11   -1    0    0    0    0  0.00000000000E+00  0.00000000000E+00  0.45593999997E+02  0.45594000000E+02  0.51100000000E-03 0.  1.
         11   -1    0    0    0    0 -0.00000000000E+00 -0.00000000000E+00 -0.45593999997E+02  0.45594000000E+02  0.51100000000E-03 0. -1.
    9900012    2    1    2    0    0  0.26550419310E+02 -0.14179670065E+02 -0.27334444318E+02  0.50528933915E+02  0.30000225129E+02 0.  0.
        -12    1    1    2    0    0 -0.26550419310E+02  0.14179670065E+02  0.27334444318E+02  0.40659066085E+02  0.00000000000E+00 0.  1.
         11    1    3    3    0    0  0.16995737102E+01 -0.12208546160E+01  0.23975134120E+01  0.31823116773E+01  0.51100000000E-03 0. -1.
        -11    1    3    3    0    0  0.15026972103E+02  0.42186816801E+01 -0.19781252340E+02  0.25197323471E+02  0.51100000000E-03 0.  1.
         12    1    3    3    0    0  0.98238734963E+01 -0.17177497129E+02 -0.99507053898E+01  0.22149298767E+02  0.00000000000E+00 0. -1.
</event>
<event>
 7    1  0.5138511E-013  0.5052885E+02  0.7816164E-02  0.1300439E+00
        -11   -1    0    0    0    0  0.00000000000E+00  0.00000000000E+00  0.45593999997E+02  0.45594000000E+02  0.51100000000E-03 0. -1.
         11   -1    0    0    0    0 -0.00000000000E+00 -0.00000000000E+00 -0.45593999997E+02  0.45594000000E+02  0.51100000000E-03 0.  1.
    9900012    2    1    2    0    0 -0.33214659457E+02 -0.11759717982E+02  0.20289450715E+02  0.50528851212E+02  0.29999973743E+02 0.  0.
        -12    1    1    2    0    0  0.33214659457E+02  0.11759717982E+02 -0.20289450715E+02  0.40659148788E+02  0.00000000000E+00 0.  1.
         11    1    3    3    0    0 -0.51540908629E+01  0.39904704132E+01 -0.18028307758E-01  0.65183458041E+01  0.51100000000E-03 0.  1.
        -11    1    3    3    0    0  0.14265929705E+01 -0.79417546464E+01  0.71846960609E+01  0.10804003523E+02  0.51100000000E-03 0. -1.
         12    1    3    3    0    0 -0.29487161565E+02 -0.78084337486E+01  0.13122782962E+02  0.33206501885E+02  0.00000000000E+00 0. -1.
</event>
<event>
 7    1  0.5138511E-013  0.5052893E+02  0.7816164E-02  0.1300439E+00
        -11   -1    0    0    0    0  0.00000000000E+00  0.00000000000E+00  0.45593999997E+02  0.45594000000E+02  0.51100000000E-03 0.  1.
         11   -1    0    0    0    0 -0.00000000000E+00 -0.00000000000E+00 -0.45593999997E+02  0.45594000000E+02  0.51100000000E-03 0. -1.
    9900012    2    1    2    0    0 -0.26148256042E+02 -0.14734120976E+02 -0.27428720137E+02  0.50528925941E+02  0.30000200888E+02 0.  0.
        -12    1    1    2    0    0  0.26148256042E+02  0.14734120976E+02  0.27428720137E+02  0.40659074059E+02  0.00000000000E+00 0.  1.
         11    1    3    3    0    0 -0.16307997590E+02 -0.12710640337E+02 -0.12771867084E+02  0.24302916537E+02  0.51100000000E-03 0. -1.
        -11    1    3    3    0    0 -0.98294159887E+01 -0.93177926333E+01 -0.12941113426E+02  0.18732621151E+02  0.51100000000E-03 0.  1.
        -12    1    3    3    0    0 -0.10842464148E-01  0.72943119939E+01 -0.17157396276E+01  0.74933882518E+01  0.00000000000E+00 0.  1.
</event>
<event>
 7    1  0.5138511E-013  0.5052894E+02  0.7816164E-02  0.1300438E+00
        -11   -1    0    0    0    0  0.00000000000E+00  0.00000000000E+00  0.45593999997E+02  0.45594000000E+02  0.51100000000E-03 0.  1.
         11   -1    0    0    0    0 -0.00000000000E+00 -0.00000000000E+00 -0.45593999997E+02  0.45594000000E+02  0.51100000000E-03 0. -1.
    9900012    2    1    2    0    0  0.22172534506E+02 -0.29778731138E+02 -0.16576030908E+02  0.50528943010E+02  0.30000252774E+02 0.  0.
        -12    1    1    2    0    0 -0.22172534506E+02  0.29778731138E+02  0.16576030908E+02  0.40659056990E+02  0.00000000000E+00 0.  1.
         11    1    3    3    0    0  0.13100071469E+02 -0.11620070948E+02 -0.12591765650E+01  0.17556293664E+02  0.51100000000E-03 0. -1.
        -11    1    3    3    0    0  0.13097999123E+02 -0.53467941699E+01 -0.13253633729E+02  0.19385680184E+02  0.51100000000E-03 0.  1.
         12    1    3    3    0    0 -0.40255360864E+01 -0.12811866020E+02 -0.20632206133E+01  0.13586969162E+02  0.00000000000E+00 0. -1.
</event>
<event>
 7    1  0.5138511E-013  0.5052888E+02  0.7816164E-02  0.1300439E+00
        -11   -1    0    0    0    0  0.00000000000E+00  0.00000000000E+00  0.45593999997E+02  0.45594000000E+02  0.51100000000E-03 0.  1.
         11   -1    0    0    0    0 -0.00000000000E+00 -0.00000000000E+00 -0.45593999997E+02  0.45594000000E+02  0.51100000000E-03 0. -1.
    9900012    2    1    2    0    0  0.21770763574E+02 -0.92302498814E+01 -0.33075682600E+02  0.50528875084E+02  0.30000046306E+02 0.  0.
        -12    1    1    2    0    0 -0.21770763574E+02  0.92302498814E+01  0.33075682600E+02  0.40659124916E+02  0.00000000000E+00 0.  1.
         11    1    3    3    0    0 -0.20851911089E+01 -0.12909568700E+01 -0.22258618746E+01  0.33119560605E+01  0.51100000000E-03 0.  1.
        -11    1    3    3    0    0  0.14350592220E+02  0.36907866260E+01 -0.28351617013E+02  0.31990242114E+02  0.51100000000E-03 0. -1.
         12    1    3    3    0    0  0.95053624627E+01 -0.11630079637E+02 -0.24982037117E+01  0.15226676910E+02  0.00000000000E+00 0. -1.
</event>
<event>
 7    1  0.5138511E-013  0.5052886E+02  0.7816164E-02  0.1300439E+00
        -11   -1    0    0    0    0  0.00000000000E+00  0.00000000000E+00  0.45593999997E+02  0.45594000000E+02  0.51100000000E-03 0. -1.
         11   -1    0    0    0    0 -0.00000000000E+00 -0.00000000000E+00 -0.45593999997E+02  0.45594000000E+02  0.51100000000E-03 0.  1.
    9900012    2    1    2    0    0 -0.24369725178E+02 -0.28613842154E+02  0.15509028611E+02  0.50528862816E+02  0.30000009016E+02 0.  0.
        -12    1    1    2    0    0  0.24369725178E+02  0.28613842154E+02 -0.15509028611E+02  0.40659137184E+02  0.00000000000E+00 0.  1.
         11    1    3    3    0    0 -0.13405184452E+02 -0.88292583934E+01  0.32753276442E+01  0.16382385217E+02  0.51100000000E-03 0. -1.
        -11    1    3    3    0    0 -0.69017935439E+01 -0.23470129275E+02  0.48365410778E+01  0.24937398664E+02  0.51100000000E-03 0.  1.
        -12    1    3    3    0    0 -0.40627471823E+01  0.36855455136E+01  0.73971598893E+01  0.92090789349E+01  0.00000000000E+00 0.  1.
</event>
<event>
 7    1  0.5138511E-013  0.5052886E+02  0.7816164E-02  0.1300439E+00
        -11   -1    0    0    0    0  0.00000000000E+00  0.00000000000E+00  0.45593999997E+02  0.45594000000E+02  0.51100000000E-03 0. -1.
         11   -1    0    0    0    0 -0.00000000000E+00 -0.00000000000E+00 -0.45593999997E+02  0.45594000000E+02  0.51100000000E-03 0.  1.
    9900012    2    1    2    0    0 -0.36396089213E+02 -0.15532242174E+02  0.93402267056E+01  0.50528859676E+02  0.29999999471E+02 0.  0.
        -12    1    1    2    0    0  0.36396089213E+02  0.15532242174E+02 -0.93402267056E+01  0.40659140324E+02  0.00000000000E+00 0.  1.
         11    1    3    3    0    0 -0.39547348623E+01 -0.77396973493E+01  0.64130372469E+01  0.10801383702E+02  0.51100000000E-03 0.  1.
        -11    1    3    3    0    0 -0.32336713294E+02 -0.87641399192E+01 -0.30769540868E+01  0.33644328228E+02  0.51100000000E-03 0. -1.
         12    1    3    3    0    0 -0.10464105676E+00  0.97159509446E+00  0.60041435456E+01  0.60831477456E+01  0.00000000000E+00 0. -1.
</event>
<event>
 7    1  0.5138511E-013  0.5052887E+02  0.7816164E-02  0.1300439E+00
        -11   -1    0    0    0    0  0.00000000000E+00  0.00000000000E+00  0.45593999997E+02  0.45594000000E+02  0.51100000000E-03 0.  1.
         11   -1    0    0    0    0 -0.00000000000E+00 -0.00000000000E+00 -0.45593999997E+02  0.45594000000E+02  0.51100000000E-03 0. -1.
    9900012    2    1    2    0    0  0.75446272161E+01  0.19988478423E+02 -0.34593415910E+02  0.50528867030E+02  0.30000021826E+02 0.  0.
        -12    1    1    2    0    0 -0.75446272161E+01 -0.19988478423E+02  0.34593415910E+02  0.40659132970E+02  0.00000000000E+00 0.  1.
         11    1    3    3    0    0  0.11089972218E+02  0.22660218655E+02 -0.18205202091E+02  0.31111129467E+02  0.51100000000E-03 0. -1.
        -11    1    3    3    0    0  0.30462040014E+01 -0.36339385146E+00 -0.75757788828E+01  0.81733616004E+01  0.51100000000E-03 0.  1.
         12    1    3    3    0    0 -0.65915490036E+01 -0.23083463808E+01 -0.88124349363E+01  0.11244375963E+02  0.00000000000E+00 0. -1.
</event>
<event>
 7    1  0.5138511E-013  0.5052886E+02  0.7816164E-02  0.1300439E+00
        -11   -1    0    0    0    0  0.00000000000E+00  0.00000000000E+00  0.45593999997E+02  0.45594000000E+02  0.51100000000E-03 0.  1.
         11   -1    0    0    0    0 -0.00000000000E+00 -0.00000000000E+00 -0.45593999997E+02  0.45594000000E+02  0.51100000000E-03 0. -1.
    9900012    2    1    2    0    0  0.21263326508E+02  0.10022066750E+02 -0.33175212120E+02  0.50528861109E+02  0.30000003826E+02 0.  0.
        -12    1    1    2    0    0 -0.21263326508E+02 -0.10022066750E+02  0.33175212120E+02  0.40659138891E+02  0.00000000000E+00 0.  1.
         11    1    3    3    0    0  0.54515904598E+01  0.10072955763E+02 -0.10694691405E+02  0.15670376538E+02  0.51100000000E-03 0. -1.
        -11    1    3    3    0    0  0.12447075195E+01  0.30420173633E+01 -0.19368025119E+02  0.19644937356E+02  0.51100000000E-03 0.  1.
        -12    1    3    3    0    0  0.14567028529E+02 -0.30929063762E+01 -0.31124955971E+01  0.15213547215E+02  0.00000000000E+00 0.  1.
</event>
<event>
 7    1  0.5138511E-013  0.5052884E+02  0.7816164E-02  0.1300439E+00
        -11   -1    0    0    0    0  0.00000000000E+00  0.00000000000E+00  0.45593999997E+02  0.45594000000E+02  0.51100000000E-03 0.  1.
         11   -1    0    0    0    0 -0.00000000000E+00 -0.00000000000E+00 -0.45593999997E+02  0.45594000000E+02  0.51100000000E-03 0. -1.
    9900012    2    1    2    0    0  0.25821916035E+02  0.31404384760E+02 -0.40055558439E+00  0.50528841442E+02  0.29999944046E+02 0.  0.
        -12    1    1    2    0    0 -0.25821916035E+02 -0.31404384760E+02  0.40055558439E+00  0.40659158558E+02  0.00000000000E+00 0.  1.
         11    1    3    3    0    0 -0.17720439871E+01  0.25365343561E+01 -0.68700606852E+01  0.75347117073E+01  0.51100000000E-03 0. -1.
        -11    1    3    3    0    0  0.17394518299E+01  0.20460810338E+01  0.50421761924E+01  0.57127647669E+01  0.51100000000E-03 0.  1.
         12    1    3    3    0    0  0.25854508193E+02  0.26821769370E+02  0.14273289084E+01  0.37281364967E+02  0.00000000000E+00 0. -1.
</event>
<event>
 7    1  0.5138511E-013  0.5052874E+02  0.7816164E-02  0.1300439E+00
        -11   -1    0    0    0    0  0.00000000000E+00  0.00000000000E+00  0.45593999997E+02  0.45594000000E+02  0.51100000000E-03 0.  1.
         11   -1    0    0    0    0 -0.00000000000E+00 -0.00000000000E+00 -0.45593999997E+02  0.45594000000E+02  0.51100000000E-03 0. -1.
    9900012    2    1    2    0    0 -0.22598953645E+02 -0.16787788294E+02 -0.29336541197E+02  0.50528742862E+02  0.29999644400E+02 0.  0.
        -12    1    1    2    0    0  0.22598953645E+02  0.16787788294E+02  0.29336541197E+02  0.40659257138E+02  0.00000000000E+00 0.  1.
         11    1    3    3    0    0 -0.15653880078E+01  0.48205478343E+01 -0.40854312847E+00  0.50847840453E+01  0.51100000000E-03 0. -1.
        -11    1    3    3    0    0 -0.19014448962E+01  0.18056824861E+01  0.10876869716E+01  0.28388457413E+01  0.51100000000E-03 0.  1.
         12    1    3    3    0    0 -0.19132120741E+02 -0.23414018615E+02 -0.30015685040E+02  0.42605113075E+02  0.00000000000E+00 0. -1.
</event>
<event>
 7    1  0.5138511E-013  0.5052886E+02  0.7816164E-02  0.1300439E+00
        -11   -1    0    0    0    0  0.00000000000E+00  0.00000000000E+00  0.45593999997E+02  0.45594000000E+02  0.51100000000E-03 0. -1.
         11   -1    0    0    0    0 -0.00000000000E+00 -0.00000000000E+00 -0.45593999997E+02  0.45594000000E+02  0.51100000000E-03 0.  1.
    9900012    2    1    2    0    0 -0.80841697619E+01 -0.39576538964E+02 -0.46378323078E+01  0.50528859261E+02  0.29999998210E+02 0.  0.
        -12    1    1    2    0    0  0.80841697619E+01  0.39576538964E+02  0.46378323078E+01  0.40659140739E+02  0.00000000000E+00 0.  1.
         11    1    3    3    0    0 -0.82104957799E+00  0.15500483456E+00 -0.12822401534E+01  0.15304538478E+01  0.51100000000E-03 0. -1.
        -11    1    3    3    0    0  0.85747806231E+01 -0.58158830444E+01 -0.50550261137E+01  0.11528427802E+02  0.51100000000E-03 0.  1.
         12    1    3    3    0    0 -0.15837900807E+02 -0.33915660754E+02  0.16994339593E+01  0.37469977611E+02  0.00000000000E+00 0. -1.
</event>
<event>
 7    1  0.5138511E-013  0.5052885E+02  0.7816164E-02  0.1300439E+00
        -11   -1    0    0    0    0  0.00000000000E+00  0.00000000000E+00  0.45593999997E+02  0.45594000000E+02  0.51100000000E-03 0.  1.
         11   -1    0    0    0    0 -0.00000000000E+00 -0.00000000000E+00 -0.45593999997E+02  0.45594000000E+02  0.51100000000E-03 0. -1.
    9900012    2    1    2    0    0 -0.10628065060E+00 -0.34216284409E+02 -0.21963633040E+02  0.50528848624E+02  0.29999965878E+02 0.  0.
        -12    1    1    2    0    0  0.10628065060E+00  0.34216284409E+02  0.21963633040E+02  0.40659151376E+02  0.00000000000E+00 0.  1.
         11    1    3    3    0    0 -0.27846355844E-01 -0.47835261606E+00 -0.45547258326E+01  0.45798607311E+01  0.51100000000E-03 0. -1.
        -11    1    3    3    0    0 -0.11532595289E+02 -0.10640766160E+02 -0.11620221691E+02  0.19525783236E+02  0.51100000000E-03 0.  1.
         12    1    3    3    0    0  0.11454160994E+02 -0.23097165633E+02 -0.57886855158E+01  0.26423204657E+02  0.00000000000E+00 0. -1.
</event>
<event>
 7    1  0.5138511E-013  0.5052887E+02  0.7816164E-02  0.1300439E+00
        -11   -1    0    0    0    0  0.00000000000E+00  0.00000000000E+00  0.45593999997E+02  0.45594000000E+02  0.51100000000E-03 0.  1.
         11   -1    0    0    0    0 -0.00000000000E+00 -0.00000000000E+00 -0.45593999997E+02  0.45594000000E+02  0.51100000000E-03 0. -1.
    9900012    2    1    2    0    0 -0.51064276443E+00 -0.23239359265E+02 -0.33359205893E+02  0.50528865812E+02  0.30000018124E+02 0.  0.
        -12    1    1    2    0    0  0.51064276443E+00  0.23239359265E+02  0.33359205893E+02  0.40659134188E+02  0.00000000000E+00 0.  1.
         11    1    3    3    0    0 -0.50049481358E+01 -0.40995799235E+01 -0.17061894108E+02  0.18247309177E+02  0.51100000000E-03 0. -1.
        -11    1    3    3    0    0 -0.28815457529E+01  0.81014827681E+00 -0.94871505856E+01  0.99481492073E+01  0.51100000000E-03 0.  1.
         12    1    3    3    0    0  0.73758511243E+01 -0.19949927618E+02 -0.68101611991E+01  0.22333407428E+02  0.00000000000E+00 0. -1.
</event>
<event>
 7    1  0.5138511E-013  0.5052886E+02  0.7816164E-02  0.1300439E+00
        -11   -1    0    0    0    0  0.00000000000E+00  0.00000000000E+00  0.45593999997E+02  0.45594000000E+02  0.51100000000E-03 0. -1.
         11   -1    0    0    0    0 -0.00000000000E+00 -0.00000000000E+00 -0.45593999997E+02  0.45594000000E+02  0.51100000000E-03 0.  1.
    9900012    2    1    2    0    0  0.14451945635E+02 -0.35863317640E+02 -0.12574936573E+02  0.50528864316E+02  0.30000013574E+02 0.  0.
        -12    1    1    2    0    0 -0.14451945635E+02  0.35863317640E+02  0.12574936573E+02  0.40659135684E+02  0.00000000000E+00 0.  1.
         11    1    3    3    0    0  0.56921543357E+01 -0.13643520877E+02  0.14343153406E+01  0.14852728492E+02  0.51100000000E-03 0.  1.
        -11    1    3    3    0    0 -0.28789268389E+00 -0.23544078879E+02 -0.86952262102E+01  0.25100069553E+02  0.51100000000E-03 0. -1.
        -12    1    3    3    0    0  0.90476839832E+01  0.13242821162E+01 -0.53140257038E+01  0.10576066271E+02  0.00000000000E+00 0.  1.
</event>
<event>
 7    1  0.5138511E-013  0.5052886E+02  0.7816164E-02  0.1300439E+00
        -11   -1    0    0    0    0  0.00000000000E+00  0.00000000000E+00  0.45593999997E+02  0.45594000000E+02  0.51100000000E-03 0. -1.
         11   -1    0    0    0    0 -0.00000000000E+00 -0.00000000000E+00 -0.45593999997E+02  0.45594000000E+02  0.51100000000E-03 0.  1.
    9900012    2    1    2    0    0 -0.26847738776E+02 -0.38635664752E+01  0.30289229094E+02  0.50528860530E+02  0.30000002069E+02 0.  0.
        -12    1    1    2    0    0  0.26847738776E+02  0.38635664752E+01 -0.30289229094E+02  0.40659139470E+02  0.00000000000E+00 0.  1.
         11    1    3    3    0    0 -0.19809605834E+02  0.13116964568E+01  0.91000716716E+01  0.21839238439E+02  0.51100000000E-03 0. -1.
        -11    1    3    3    0    0  0.10395456717E+01  0.51710288230E+01  0.24629806781E+01  0.58212084977E+01  0.51100000000E-03 0.  1.
         12    1    3    3    0    0 -0.80776786142E+01 -0.10346291755E+02  0.18726176744E+02  0.22868413594E+02  0.00000000000E+00 0. -1.
</event>
<event>
 7    1  0.5138511E-013  0.5052885E+02  0.7816164E-02  0.1300439E+00
        -11   -1    0    0    0    0  0.00000000000E+00  0.00000000000E+00  0.45593999997E+02  0.45594000000E+02  0.51100000000E-03 0.  1.
         11   -1    0    0    0    0 -0.00000000000E+00 -0.00000000000E+00 -0.45593999997E+02  0.45594000000E+02  0.51100000000E-03 0. -1.
    9900012    2    1    2    0    0 -0.32029479212E+02  0.79135610907E+01 -0.23762460045E+02  0.50528849798E+02  0.29999969447E+02 0.  0.
        -12    1    1    2    0    0  0.32029479212E+02 -0.79135610907E+01  0.23762460045E+02  0.40659150202E+02  0.00000000000E+00 0.  1.
         11    1    3    3    0    0 -0.11496591025E+02  0.12710711973E+02 -0.78691486416E+01  0.18858878669E+02  0.51100000000E-03 0. -1.
        -11    1    3    3    0    0 -0.21633807544E+01 -0.37842504950E+01  0.30058739243E+01  0.52949075919E+01  0.51100000000E-03 0.  1.
         12    1    3    3    0    0 -0.18369507432E+02 -0.10129003877E+01 -0.18899185328E+02  0.26375063537E+02  0.00000000000E+00 0. -1.
</event>
<event>
 7    1  0.5138511E-013  0.5052886E+02  0.7816164E-02  0.1300439E+00
        -11   -1    0    0    0    0  0.00000000000E+00  0.00000000000E+00  0.45593999997E+02  0.45594000000E+02  0.51100000000E-03 0.  1.
         11   -1    0    0    0    0 -0.00000000000E+00 -0.00000000000E+00 -0.45593999997E+02  0.45594000000E+02  0.51100000000E-03 0. -1.
    9900012    2    1    2    0    0  0.39348107789E+02  0.71951527153E+01  0.72884852158E+01  0.50528858028E+02  0.29999994462E+02 0.  0.
        -12    1    1    2    0    0 -0.39348107789E+02 -0.71951527153E+01 -0.72884852158E+01  0.40659141972E+02  0.00000000000E+00 0.  1.
         11    1    3    3    0    0  0.31154007916E+02 -0.19676389401E+00  0.49174847964E+01  0.31540332627E+02  0.51100000000E-03 0.  1.
        -11    1    3    3    0    0  0.12361035037E+02  0.29323945481E+01  0.10781688280E+01  0.12749767576E+02  0.51100000000E-03 0. -1.
        -12    1    3    3    0    0 -0.41669351637E+01  0.44595220612E+01  0.12928315914E+01  0.62387578248E+01  0.00000000000E+00 0.  1.
</event>
<event>
 7    1  0.5138511E-013  0.5052884E+02  0.7816164E-02  0.1300439E+00
        -11   -1    0    0    0    0  0.00000000000E+00  0.00000000000E+00  0.45593999997E+02  0.45594000000E+02  0.51100000000E-03 0.  1.
         11   -1    0    0    0    0 -0.00000000000E+00 -0.00000000000E+00 -0.45593999997E+02  0.45594000000E+02  0.51100000000E-03 0. -1.
    9900012    2    1    2    0    0  0.36958989614E+02  0.16343240406E+02  0.44831368879E+01  0.50528844369E+02  0.29999952944E+02 0.  0.
        -12    1    1    2    0    0 -0.36958989614E+02 -0.16343240406E+02 -0.44831368879E+01  0.40659155631E+02  0.00000000000E+00 0.  1.
         11    1    3    3    0    0  0.10167519886E+02  0.10813296478E+02 -0.96112047080E+00  0.14873788831E+02  0.51100000000E-03 0. -1.
        -11    1    3    3    0    0  0.39520968021E+01  0.28919008509E+01 -0.77345591596E+01  0.91545379631E+01  0.51100000000E-03 0.  1.
        -12    1    3    3    0    0  0.22839372926E+02  0.26380430768E+01  0.13178816518E+02  0.26500517575E+02  0.00000000000E+00 0.  1.
</event>
<event>
 7    1  0.5138511E-013  0.5052887E+02  0.7816164E-02  0.1300439E+00
        -11   -1    0    0    0    0  0.00000000000E+00  0.00000000000E+00  0.45593999997E+02  0.45594000000E+02  0.51100000000E-03 0. -1.
         11   -1    0    0    0    0 -0.00000000000E+00 -0.00000000000E+00 -0.45593999997E+02  0.45594000000E+02  0.51100000000E-03 0.  1.
    9900012    2    1    2    0    0 -0.26967803190E+02  0.29380647984E-01  0.30428633122E+02  0.50528868359E+02  0.30000025863E+02 0.  0.
        -12    1    1    2    0    0  0.26967803190E+02 -0.29380647984E-01 -0.30428633122E+02  0.40659131641E+02  0.00000000000E+00 0.  1.
         11    1    3    3    0    0 -0.50316738445E+01  0.92358271698E+00  0.19417137262E+02  0.20079740198E+02  0.51100000000E-03 0. -1.
        -11    1    3    3    0    0  0.21621991857E+01 -0.32032974294E+01  0.26808412668E-01  0.38648335918E+01  0.51100000000E-03 0.  1.
         12    1    3    3    0    0 -0.24098328531E+02  0.23090953604E+01  0.10984687447E+02  0.26584294569E+02  0.00000000000E+00 0. -1.
</event>
<event>
 7    1  0.5138511E-013  0.5052887E+02  0.7816164E-02  0.1300439E+00
        -11   -1    0    0    0    0  0.00000000000E+00  0.00000000000E+00  0.45593999997E+02  0.45594000000E+02  0.51100000000E-03 0.  1.
         11   -1    0    0    0    0 -0.00000000000E+00 -0.00000000000E+00 -0.45593999997E+02  0.45594000000E+02  0.51100000000E-03 0. -1.
    9900012    2    1    2    0    0  0.77931300509E+01  0.29754255323E+02 -0.26591662454E+02  0.50528866981E+02  0.30000021674E+02 0.  0.
        -12    1    1    2    0    0 -0.77931300509E+01 -0.29754255323E+02  0.26591662454E+02  0.40659133019E+02  0.00000000000E+00 0.  1.
         11    1    3    3    0    0 -0.25043453214E+01  0.20062492179E+01 -0.67301292812E+01  0.74559655186E+01  0.51100000000E-03 0. -1.
        -11    1    3    3    0    0  0.47501459817E+01 -0.28971933208E+01  0.91042814796E+00  0.56379513707E+01  0.51100000000E-03 0.  1.
         12    1    3    3    0    0  0.55473293906E+01  0.30645199426E+02 -0.20771961321E+02  0.37434950091E+02  0.00000000000E+00 0. -1.
</event>
<event>
 7    1  0.5138511E-013  0.5052886E+02  0.7816164E-02  0.1300439E+00
        -11   -1    0    0    0    0  0.00000000000E+00  0.00000000000E+00  0.45593999997E+02  0.45594000000E+02  0.51100000000E-03 0. -1.
         11   -1    0    0    0    0 -0.00000000000E+00 -0.00000000000E+00 -0.45593999997E+02  0.45594000000E+02  0.51100000000E-03 0.  1.
    9900012    2    1    2    0    0 -0.13129960919E+02 -0.38244371340E+02  0.42589018476E+01  0.50528855176E+02  0.29999985792E+02 0.  0.
        -12    1    1    2    0    0  0.13129960919E+02  0.38244371340E+02 -0.42589018476E+01  0.40659144824E+02  0.00000000000E+00 0.  1.
         11    1    3    3    0    0  0.43214836320E+01 -0.11620469460E+02  0.33428826045E+01  0.12840770834E+02  0.51100000000E-03 0. -1.
        -11    1    3    3    0    0 -0.70641238741E+01 -0.29997635812E+00  0.55799876270E+01  0.90071135278E+01  0.51100000000E-03 0.  1.
         12    1    3    3    0    0 -0.10387320677E+02 -0.26323925522E+02 -0.46639683839E+01  0.28680970814E+02  0.00000000000E+00 0. -1.
</event>
<event>
 7    1  0.5138511E-013  0.5052886E+02  0.7816164E-02  0.1300439E+00
        -11   -1    0    0    0    0  0.00000000000E+00  0.00000000000E+00  0.45593999997E+02  0.45594000000E+02  0.51100000000E-03 0. -1.
         11   -1    0    0    0    0 -0.00000000000E+00 -0.00000000000E+00 -0.45593999997E+02  0.45594000000E+02  0.51100000000E-03 0.  1.
    9900012    2    1    2    0    0 -0.33255249149E+02 -0.21581091875E+02  0.90283040145E+01  0.50528863317E+02  0.30000010537E+02 0.  0.
        -12    1    1    2    0    0  0.33255249149E+02  0.21581091875E+02 -0.90283040145E+01  0.40659136683E+02  0.00000000000E+00 0.  1.
         11    1    3    3    0    0 -0.87524446381E+01 -0.82329215486E+01 -0.73553467793E+01  0.14088556025E+02  0.51100000000E-03 0. -1.
        -11    1    3    3    0    0 -0.10084196725E+02 -0.11653888272E+02  0.15558430394E+02  0.21899061442E+02  0.51100000000E-03 0.  1.
         12    1    3    3    0    0 -0.14418607786E+02 -0.16942820543E+01  0.82522040006E+00  0.14541245850E+02  0.00000000000E+00 0. -1.
</event>
<event>
 7    1  0.5138511E-013  0.5052886E+02  0.7816164E-02  0.1300439E+00
        -11   -1    0    0    0    0  0.00000000000E+00  0.00000000000E+00  0.45593999997E+02  0.45594000000E+02  0.51100000000E-03 0. -1.
         11   -1    0    0    0    0 -0.00000000000E+00 -0.00000000000E+00 -0.45593999997E+02  0.45594000000E+02  0.51100000000E-03 0.  1.
    9900012    2    1    2    0    0  0.66078174731E+01 -0.38267585605E+02 -0.12045500476E+02  0.50528862755E+02  0.30000008831E+02 0.  0.
        -12    1    1    2    0    0 -0.66078174731E+01  0.38267585605E+02  0.12045500476E+02  0.40659137245E+02  0.00000000000E+00 0.  1.
         11    1    3    3    0    0  0.73308471652E+01 -0.13739437314E+02 -0.33724097892E+01  0.15933819565E+02  0.51100000000E-03 0. -1.
        -11    1    3    3    0    0  0.29172949067E+01 -0.76824548474E+01 -0.14276324350E+02  0.16472527409E+02  0.51100000000E-03 0.  1.
         12    1    3    3    0    0 -0.36403245988E+01 -0.16845693443E+02  0.56032336631E+01  0.18122515781E+02  0.00000000000E+00 0. -1.
</event>
<event>
 7    1  0.5138511E-013  0.5052883E+02  0.7816164E-02  0.1300439E+00
        -11   -1    0    0    0    0  0.00000000000E+00  0.00000000000E+00  0.45593999997E+02  0.45594000000E+02  0.51100000000E-03 0.  1.
         11   -1    0    0    0    0 -0.00000000000E+00 -0.00000000000E+00 -0.45593999997E+02  0.45594000000E+02  0.51100000000E-03 0. -1.
    9900012    2    1    2    0    0  0.76268172420E+01 -0.32130146541E+02 -0.23720312183E+02  0.50528832914E+02  0.29999918127E+02 0.  0.
        -12    1    1    2    0    0 -0.76268172420E+01  0.32130146541E+02  0.23720312183E+02  0.40659167086E+02  0.00000000000E+00 0.  1.
         11    1    3    3    0    0  0.30058858011E+01 -0.11148712218E+02 -0.46581460016E+01  0.12451002289E+02  0.51100000000E-03 0. -1.
        -11    1    3    3    0    0  0.12866467600E+02 -0.15876741833E+02 -0.50729226703E+01  0.21055912813E+02  0.51100000000E-03 0.  1.
         12    1    3    3    0    0 -0.82455361591E+01 -0.51046924906E+01 -0.13989243511E+02  0.17021917812E+02  0.00000000000E+00 0. -1.
</event>
