<event>
 7    1  0.3162486E-013  0.7246142E+02  0.7816164E-02  0.1226708E+00
        -11   -1    0    0    0    0  0.00000000000E+00  0.00000000000E+00  0.45593999997E+02  0.45594000000E+02  0.51100000000E-03 0. -1.
         11   -1    0    0    0    0 -0.00000000000E+00 -0.00000000000E+00 -0.45593999997E+02  0.45594000000E+02  0.51100000000E-03 0.  1.
    9900012    2    1    2    0    0  0.10081157719E+02  0.40350765469E+01 -0.15256905534E+02  0.72461421290E+02  0.69999805894E+02 0.  0.
         12    1    1    2    0    0 -0.10081157719E+02 -0.40350765469E+01  0.15256905534E+02  0.18726578710E+02  0.00000000000E+00 0. -1.
         11    1    3    3    0    0 -0.13533946152E+02  0.29680015598E+01  0.14177044678E+02  0.19823353091E+02  0.51100000000E-03 0.  1.
        -11    1    3    3    0    0 -0.24705741658E+00  0.18796053399E+01  0.80090703432E+01  0.82303804058E+01  0.51100000000E-03 0. -1.
        -12    1    3    3    0    0  0.23862161288E+02 -0.81253035275E+00 -0.37443020555E+02  0.44407687794E+02  0.00000000000E+00 0.  1.
</event>
<event>
 7    1  0.3162486E-013  0.7246150E+02  0.7816164E-02  0.1226708E+00
        -11   -1    0    0    0    0  0.00000000000E+00  0.00000000000E+00  0.45593999997E+02  0.45594000000E+02  0.51100000000E-03 0. -1.
         11   -1    0    0    0    0 -0.00000000000E+00 -0.00000000000E+00 -0.45593999997E+02  0.45594000000E+02  0.51100000000E-03 0.  1.
    9900012    2    1    2    0    0 -0.16358832577E+02  0.87203145570E+01  0.26507774276E+01  0.72461497117E+02  0.69999904673E+02 0.  0.
         12    1    1    2    0    0  0.16358832577E+02 -0.87203145570E+01 -0.26507774276E+01  0.18726502883E+02  0.00000000000E+00 0. -1.
         11    1    3    3    0    0 -0.50395823924E+01 -0.25183461751E+01  0.16163897576E+02  0.17117565342E+02  0.51100000000E-03 0. -1.
        -11    1    3    3    0    0 -0.29365278836E+02  0.45959152655E+01  0.31628723937E+01  0.29890563733E+02  0.51100000000E-03 0.  1.
         12    1    3    3    0    0  0.18046028651E+02  0.66427454667E+01 -0.16675992542E+02  0.25453368042E+02  0.00000000000E+00 0. -1.
</event>
<event>
 7    1  0.3162486E-013  0.7246159E+02  0.7816164E-02  0.1226708E+00
        -11   -1    0    0    0    0  0.00000000000E+00  0.00000000000E+00  0.45593999997E+02  0.45594000000E+02  0.51100000000E-03 0.  1.
         11   -1    0    0    0    0 -0.00000000000E+00 -0.00000000000E+00 -0.45593999997E+02  0.45594000000E+02  0.51100000000E-03 0. -1.
    9900012    2    1    2    0    0 -0.65231000985E+01 -0.15107645669E+02  0.89379362073E+01  0.72461588272E+02  0.70000023419E+02 0.  0.
         12    1    1    2    0    0  0.65231000985E+01  0.15107645669E+02 -0.89379362073E+01  0.18726411728E+02  0.00000000000E+00 0. -1.
         11    1    3    3    0    0  0.51509144893E+00 -0.21336756969E+02  0.13197531100E+02  0.25093771031E+02  0.51100000000E-03 0. -1.
        -11    1    3    3    0    0 -0.15031720001E+02 -0.14257985805E+02 -0.12133161821E+02  0.24009506064E+02  0.51100000000E-03 0.  1.
         12    1    3    3    0    0  0.79935284532E+01  0.20487097104E+02  0.78735669289E+01  0.23358311178E+02  0.00000000000E+00 0. -1.
</event>
<event>
 7    1  0.3162486E-013  0.7246153E+02  0.7816164E-02  0.1226708E+00
        -11   -1    0    0    0    0  0.00000000000E+00  0.00000000000E+00  0.45593999997E+02  0.45594000000E+02  0.51100000000E-03 0. -1.
         11   -1    0    0    0    0 -0.00000000000E+00 -0.00000000000E+00 -0.45593999997E+02  0.45594000000E+02  0.51100000000E-03 0.  1.
    9900012    2    1    2    0    0  0.89204914934E+01 -0.15851393746E+02  0.44540759819E+01  0.72461530898E+02  0.69999948679E+02 0.  0.
         12    1    1    2    0    0 -0.89204914934E+01  0.15851393746E+02 -0.44540759819E+01  0.18726469102E+02  0.00000000000E+00 0. -1.
         11    1    3    3    0    0 -0.27103105968E+02 -0.10197563245E+02 -0.28107611924E+01  0.29094140785E+02  0.51100000000E-03 0. -1.
        -11    1    3    3    0    0  0.19718041906E+01  0.63167479485E+01  0.42938068262E+00  0.66312656743E+01  0.51100000000E-03 0.  1.
        -12    1    3    3    0    0  0.34051793271E+02 -0.11970578449E+02  0.68354564917E+01  0.36736124439E+02  0.00000000000E+00 0.  1.
</event>
<event>
 7    1  0.3162486E-013  0.7246160E+02  0.7816164E-02  0.1226708E+00
        -11   -1    0    0    0    0  0.00000000000E+00  0.00000000000E+00  0.45593999997E+02  0.45594000000E+02  0.51100000000E-03 0.  1.
         11   -1    0    0    0    0 -0.00000000000E+00 -0.00000000000E+00 -0.45593999997E+02  0.45594000000E+02  0.51100000000E-03 0. -1.
    9900012    2    1    2    0    0  0.16934136870E+02 -0.68060474641E+01  0.41941372423E+01  0.72461599897E+02  0.70000038562E+02 0.  0.
         12    1    1    2    0    0 -0.16934136870E+02  0.68060474641E+01 -0.41941372423E+01  0.18726400103E+02  0.00000000000E+00 0. -1.
         11    1    3    3    0    0 -0.31372997629E+01 -0.39078288556E+01 -0.18362848889E+02  0.19034389819E+02  0.51100000000E-03 0. -1.
        -11    1    3    3    0    0  0.65881909162E-01  0.18418434627E+02  0.13453155336E+02  0.22808561184E+02  0.51100000000E-03 0.  1.
         12    1    3    3    0    0  0.20005554724E+02 -0.21316653235E+02  0.91038307960E+01  0.30618648894E+02  0.00000000000E+00 0. -1.
</event>
<event>
 7    1  0.3162486E-013  0.7246108E+02  0.7816164E-02  0.1226709E+00
        -11   -1    0    0    0    0  0.00000000000E+00  0.00000000000E+00  0.45593999997E+02  0.45594000000E+02  0.51100000000E-03 0. -1.
         11   -1    0    0    0    0 -0.00000000000E+00 -0.00000000000E+00 -0.45593999997E+02  0.45594000000E+02  0.51100000000E-03 0.  1.
    9900012    2    1    2    0    0  0.17103314999E+02 -0.28685736057E+01  0.70672035364E+01  0.72461081826E+02  0.69999363676E+02 0.  0.
         12    1    1    2    0    0 -0.17103314999E+02  0.28685736057E+01 -0.70672035364E+01  0.18726918174E+02  0.00000000000E+00 0. -1.
         11    1    3    3    0    0 -0.12540494757E+02 -0.76949146088E-01  0.16922779147E+01  0.12654395866E+02  0.51100000000E-03 0. -1.
        -11    1    3    3    0    0  0.15439300807E+02  0.19743974506E+02 -0.12217571597E+02  0.27883070037E+02  0.51100000000E-03 0.  1.
        -12    1    3    3    0    0  0.14204508949E+02 -0.22535598966E+02  0.17592497219E+02  0.31923615923E+02  0.00000000000E+00 0.  1.
</event>
<event>
 7    1  0.3162486E-013  0.7246154E+02  0.7816164E-02  0.1226708E+00
        -11   -1    0    0    0    0  0.00000000000E+00  0.00000000000E+00  0.45593999997E+02  0.45594000000E+02  0.51100000000E-03 0.  1.
         11   -1    0    0    0    0 -0.00000000000E+00 -0.00000000000E+00 -0.45593999997E+02  0.45594000000E+02  0.51100000000E-03 0. -1.
    9900012    2    1    2    0    0  0.14821427147E+02  0.97090722521E+01  0.60613146353E+01  0.72461539529E+02  0.69999959922E+02 0.  0.
         12    1    1    2    0    0 -0.14821427147E+02 -0.97090722521E+01 -0.60613146353E+01  0.18726460471E+02  0.00000000000E+00 0. -1.
         11    1    3    3    0    0  0.34033530512E+01 -0.59462075681E+01  0.16029079882E+02  0.17431913221E+02  0.51100000000E-03 0. -1.
        -11    1    3    3    0    0 -0.17046165560E+02  0.16330527134E+02  0.29016500341E+01  0.23783974646E+02  0.51100000000E-03 0.  1.
         12    1    3    3    0    0  0.28464239655E+02 -0.67524731423E+00 -0.12869415281E+02  0.31245651662E+02  0.00000000000E+00 0. -1.
</event>
<event>
 7    1  0.3162486E-013  0.7246197E+02  0.7816164E-02  0.1226707E+00
        -11   -1    0    0    0    0  0.00000000000E+00  0.00000000000E+00  0.45593999997E+02  0.45594000000E+02  0.51100000000E-03 0. -1.
         11   -1    0    0    0    0 -0.00000000000E+00 -0.00000000000E+00 -0.45593999997E+02  0.45594000000E+02  0.51100000000E-03 0.  1.
    9900012    2    1    2    0    0  0.15890733970E+02  0.41659717579E+01  0.89885142321E+01  0.72461971727E+02  0.70000522938E+02 0.  0.
         12    1    1    2    0    0 -0.15890733970E+02 -0.41659717579E+01 -0.89885142321E+01  0.18726028273E+02  0.00000000000E+00 0. -1.
         11    1    3    3    0    0 -0.10261971636E+02 -0.84874019177E+01  0.12467647535E+02  0.18242430992E+02  0.51100000000E-03 0. -1.
        -11    1    3    3    0    0 -0.11905086118E+01 -0.15694471857E+01  0.17065441001E+02  0.17178758745E+02  0.51100000000E-03 0.  1.
        -12    1    3    3    0    0  0.27343214218E+02  0.14222820861E+02 -0.20544574304E+02  0.37040781989E+02  0.00000000000E+00 0.  1.
</event>
<event>
 7    1  0.3162486E-013  0.7246166E+02  0.7816164E-02  0.1226708E+00
        -11   -1    0    0    0    0  0.00000000000E+00  0.00000000000E+00  0.45593999997E+02  0.45594000000E+02  0.51100000000E-03 0.  1.
         11   -1    0    0    0    0 -0.00000000000E+00 -0.00000000000E+00 -0.45593999997E+02  0.45594000000E+02  0.51100000000E-03 0. -1.
    9900012    2    1    2    0    0 -0.38787493286E+01 -0.39200559158E+01  0.17895923894E+02  0.72461664887E+02  0.70000123224E+02 0.  0.
         12    1    1    2    0    0  0.38787493286E+01  0.39200559158E+01 -0.17895923894E+02  0.18726335113E+02  0.00000000000E+00 0. -1.
         11    1    3    3    0    0  0.35538126458E-02 -0.13239984430E+02 -0.23573710809E+02  0.27037326826E+02  0.51100000000E-03 0. -1.
        -11    1    3    3    0    0 -0.64604986377E+01 -0.73912319541E+00  0.76185318320E+01  0.10016305371E+02  0.51100000000E-03 0.  1.
        -12    1    3    3    0    0  0.25781954965E+01  0.10059051710E+02  0.33851102872E+02  0.35408032690E+02  0.00000000000E+00 0.  1.
</event>
<event>
 7    1  0.3162486E-013  0.7246127E+02  0.7816164E-02  0.1226709E+00
        -11   -1    0    0    0    0  0.00000000000E+00  0.00000000000E+00  0.45593999997E+02  0.45594000000E+02  0.51100000000E-03 0.  1.
         11   -1    0    0    0    0 -0.00000000000E+00 -0.00000000000E+00 -0.45593999997E+02  0.45594000000E+02  0.51100000000E-03 0. -1.
    9900012    2    1    2    0    0  0.13145992855E+02  0.11122398792E+02 -0.73597269592E+01  0.72461268733E+02  0.69999607160E+02 0.  0.
         12    1    1    2    0    0 -0.13145992855E+02 -0.11122398792E+02  0.73597269592E+01  0.18726731267E+02  0.00000000000E+00 0. -1.
         11    1    3    3    0    0  0.17942863895E+02  0.17472359018E+02 -0.11184723629E+02  0.27428593425E+02  0.51100000000E-03 0. -1.
        -11    1    3    3    0    0 -0.14515155830E+02  0.99984876838E+01 -0.11123700450E+02  0.20842173992E+02  0.51100000000E-03 0.  1.
        -12    1    3    3    0    0  0.97182847906E+01 -0.16348447910E+02  0.14948697120E+02  0.24190501316E+02  0.00000000000E+00 0.  1.
</event>
<event>
 7    1  0.3162486E-013  0.7246170E+02  0.7816164E-02  0.1226708E+00
        -11   -1    0    0    0    0  0.00000000000E+00  0.00000000000E+00  0.45593999997E+02  0.45594000000E+02  0.51100000000E-03 0.  1.
         11   -1    0    0    0    0 -0.00000000000E+00 -0.00000000000E+00 -0.45593999997E+02  0.45594000000E+02  0.51100000000E-03 0. -1.
    9900012    2    1    2    0    0  0.51423625745E+01  0.15524810986E+02  0.91219925200E+01  0.72461697735E+02  0.70000166015E+02 0.  0.
         12    1    1    2    0    0 -0.51423625745E+01 -0.15524810986E+02 -0.91219925200E+01  0.18726302265E+02  0.00000000000E+00 0. -1.
         11    1    3    3    0    0  0.29553373550E+01  0.14975734177E+02  0.14784500840E+02  0.21250602306E+02  0.51100000000E-03 0. -1.
        -11    1    3    3    0    0  0.24190981557E+02  0.26581037513E+01  0.75224955293E+01  0.25472672484E+02  0.51100000000E-03 0.  1.
         12    1    3    3    0    0 -0.22003956338E+02 -0.21090269425E+01 -0.13185003849E+02  0.25738422944E+02  0.00000000000E+00 0. -1.
</event>
<event>
 7    1  0.3162486E-013  0.7246155E+02  0.7816164E-02  0.1226708E+00
        -11   -1    0    0    0    0  0.00000000000E+00  0.00000000000E+00  0.45593999997E+02  0.45594000000E+02  0.51100000000E-03 0.  1.
         11   -1    0    0    0    0 -0.00000000000E+00 -0.00000000000E+00 -0.45593999997E+02  0.45594000000E+02  0.51100000000E-03 0. -1.
    9900012    2    1    2    0    0 -0.61307901309E+01 -0.38325603511E+01  0.17274394185E+02  0.72461553435E+02  0.69999978038E+02 0.  0.
         12    1    1    2    0    0  0.61307901309E+01  0.38325603511E+01 -0.17274394185E+02  0.18726446565E+02  0.00000000000E+00 0. -1.
         11    1    3    3    0    0 -0.14942307736E+02  0.19445554815E+02  0.17176505713E+02  0.29940516217E+02  0.51100000000E-03 0.  1.
        -11    1    3    3    0    0  0.18305668902E+02 -0.30925932044E+01 -0.57958694484E+01  0.19448746736E+02  0.51100000000E-03 0. -1.
         12    1    3    3    0    0 -0.94941512964E+01 -0.20185521962E+02  0.58937579207E+01  0.23072290483E+02  0.00000000000E+00 0. -1.
</event>
<event>
 7    1  0.3162486E-013  0.7246152E+02  0.7816164E-02  0.1226708E+00
        -11   -1    0    0    0    0  0.00000000000E+00  0.00000000000E+00  0.45593999997E+02  0.45594000000E+02  0.51100000000E-03 0. -1.
         11   -1    0    0    0    0 -0.00000000000E+00 -0.00000000000E+00 -0.45593999997E+02  0.45594000000E+02  0.51100000000E-03 0.  1.
    9900012    2    1    2    0    0  0.72490404870E+01  0.11909194775E+02 -0.12502140878E+02  0.72461520494E+02  0.69999935126E+02 0.  0.
         12    1    1    2    0    0 -0.72490404870E+01 -0.11909194775E+02  0.12502140878E+02  0.18726479506E+02  0.00000000000E+00 0. -1.
         11    1    3    3    0    0 -0.13368505115E+02 -0.87630728267E+01  0.79118603818E+01  0.17835523803E+02  0.51100000000E-03 0. -1.
        -11    1    3    3    0    0  0.95177772732E+01 -0.37357913051E+01  0.98465861705E+01  0.14195051263E+02  0.51100000000E-03 0.  1.
        -12    1    3    3    0    0  0.11099768328E+02  0.24408058906E+02 -0.30260587430E+02  0.40430945427E+02  0.00000000000E+00 0.  1.
</event>
<event>
 7    1  0.3162486E-013  0.7246148E+02  0.7816164E-02  0.1226708E+00
        -11   -1    0    0    0    0  0.00000000000E+00  0.00000000000E+00  0.45593999997E+02  0.45594000000E+02  0.51100000000E-03 0.  1.
         11   -1    0    0    0    0 -0.00000000000E+00 -0.00000000000E+00 -0.45593999997E+02  0.45594000000E+02  0.51100000000E-03 0. -1.
    9900012    2    1    2    0    0 -0.73192933410E+01  0.14937060364E+02  0.86020289662E+01  0.72461475238E+02  0.69999876171E+02 0.  0.
         12    1    1    2    0    0  0.73192933410E+01 -0.14937060364E+02 -0.86020289662E+01  0.18726524762E+02  0.00000000000E+00 0. -1.
         11    1    3    3    0    0 -0.21302150779E+02  0.85755931950E+01  0.27952500894E+02  0.36175471427E+02  0.51100000000E-03 0. -1.
        -11    1    3    3    0    0 -0.71782189753E+01  0.11266780201E+01 -0.10477404733E+02  0.12750382003E+02  0.51100000000E-03 0.  1.
        -12    1    3    3    0    0  0.21161076414E+02  0.52347891492E+01 -0.88730671951E+01  0.23535621807E+02  0.00000000000E+00 0.  1.
</event>
<event>
 7    1  0.3162486E-013  0.7246153E+02  0.7816164E-02  0.1226708E+00
        -11   -1    0    0    0    0  0.00000000000E+00  0.00000000000E+00  0.45593999997E+02  0.45594000000E+02  0.51100000000E-03 0.  1.
         11   -1    0    0    0    0 -0.00000000000E+00 -0.00000000000E+00 -0.45593999997E+02  0.45594000000E+02  0.51100000000E-03 0. -1.
    9900012    2    1    2    0    0  0.17877776019E+02 -0.12956264384E+01  0.54209807743E+01  0.72461533281E+02  0.69999951783E+02 0.  0.
         12    1    1    2    0    0 -0.17877776019E+02  0.12956264384E+01 -0.54209807743E+01  0.18726466719E+02  0.00000000000E+00 0. -1.
         11    1    3    3    0    0 -0.18098079906E+01  0.18878788209E+02 -0.18687748867E+02  0.26625476656E+02  0.51100000000E-03 0. -1.
        -11    1    3    3    0    0  0.90090336495E+00  0.45295696326E+01 -0.22317045054E+01  0.51292429452E+01  0.51100000000E-03 0.  1.
        -12    1    3    3    0    0  0.18786680644E+02 -0.24703984279E+02  0.26340434147E+02  0.40706813679E+02  0.00000000000E+00 0.  1.
</event>
<event>
 7    1  0.3162486E-013  0.7246157E+02  0.7816164E-02  0.1226708E+00
        -11   -1    0    0    0    0  0.00000000000E+00  0.00000000000E+00  0.45593999997E+02  0.45594000000E+02  0.51100000000E-03 0.  1.
         11   -1    0    0    0    0 -0.00000000000E+00 -0.00000000000E+00 -0.45593999997E+02  0.45594000000E+02  0.51100000000E-03 0. -1.
    9900012    2    1    2    0    0  0.37754617660E+01 -0.95738877771E+01  0.15644989072E+02  0.72461571569E+02  0.70000001661E+02 0.  0.
         12    1    1    2    0    0 -0.37754617660E+01  0.95738877771E+01 -0.15644989072E+02  0.18726428431E+02  0.00000000000E+00 0. -1.
         11    1    3    3    0    0 -0.81621670539E+00 -0.32362815126E+02  0.50055599445E+00  0.32376975911E+02  0.51100000000E-03 0.  1.
        -11    1    3    3    0    0  0.11886301754E+02  0.55507491845E+01 -0.35908464831E+01  0.13601072186E+02  0.51100000000E-03 0. -1.
        -12    1    3    3    0    0 -0.72946232822E+01  0.17238178165E+02  0.18735279560E+02  0.26483523472E+02  0.00000000000E+00 0.  1.
</event>
<event>
 7    1  0.3162486E-013  0.7246155E+02  0.7816164E-02  0.1226708E+00
        -11   -1    0    0    0    0  0.00000000000E+00  0.00000000000E+00  0.45593999997E+02  0.45594000000E+02  0.51100000000E-03 0.  1.
         11   -1    0    0    0    0 -0.00000000000E+00 -0.00000000000E+00 -0.45593999997E+02  0.45594000000E+02  0.51100000000E-03 0. -1.
    9900012    2    1    2    0    0  0.14682209574E+02  0.41044501661E+01  0.10875019131E+02  0.72461552653E+02  0.69999977019E+02 0.  0.
         12    1    1    2    0    0 -0.14682209574E+02 -0.41044501661E+01 -0.10875019131E+02  0.18726447347E+02  0.00000000000E+00 0. -1.
         11    1    3    3    0    0  0.89566233650E+01  0.85352013037E+01 -0.10558890103E+02  0.16265328889E+02  0.51100000000E-03 0.  1.
        -11    1    3    3    0    0 -0.61466963876E+01  0.17851157109E+02 -0.51136866187E+01  0.19560047998E+02  0.51100000000E-03 0. -1.
        -12    1    3    3    0    0  0.11872282597E+02 -0.22281908246E+02  0.26547595853E+02  0.36636175766E+02  0.00000000000E+00 0.  1.
</event>
<event>
 7    1  0.3162486E-013  0.7246160E+02  0.7816164E-02  0.1226708E+00
        -11   -1    0    0    0    0  0.00000000000E+00  0.00000000000E+00  0.45593999997E+02  0.45594000000E+02  0.51100000000E-03 0.  1.
         11   -1    0    0    0    0 -0.00000000000E+00 -0.00000000000E+00 -0.45593999997E+02  0.45594000000E+02  0.51100000000E-03 0. -1.
    9900012    2    1    2    0    0 -0.14747234460E+02  0.82479836756E+01  0.80726658004E+01  0.72461599063E+02  0.70000037476E+02 0.  0.
         12    1    1    2    0    0  0.14747234460E+02 -0.82479836756E+01 -0.80726658004E+01  0.18726400937E+02  0.00000000000E+00 0. -1.
         11    1    3    3    0    0 -0.29050502227E+02  0.66312450586E+01 -0.98120023861E+01  0.31371650925E+02  0.51100000000E-03 0. -1.
        -11    1    3    3    0    0 -0.81343919427E+01 -0.84083960867E+01  0.21114611159E+01  0.11888133804E+02  0.51100000000E-03 0.  1.
        -12    1    3    3    0    0  0.22437659710E+02  0.10025134704E+02  0.15773207071E+02  0.29201814334E+02  0.00000000000E+00 0.  1.
</event>
<event>
 7    1  0.3162486E-013  0.7246187E+02  0.7816164E-02  0.1226707E+00
        -11   -1    0    0    0    0  0.00000000000E+00  0.00000000000E+00  0.45593999997E+02  0.45594000000E+02  0.51100000000E-03 0.  1.
         11   -1    0    0    0    0 -0.00000000000E+00 -0.00000000000E+00 -0.45593999997E+02  0.45594000000E+02  0.51100000000E-03 0. -1.
    9900012    2    1    2    0    0  0.13739389042E+01 -0.64770504833E+01  0.17516506272E+02  0.72461871648E+02  0.70000392568E+02 0.  0.
         12    1    1    2    0    0 -0.13739389042E+01  0.64770504833E+01 -0.17516506272E+02  0.18726128352E+02  0.00000000000E+00 0. -1.
         11    1    3    3    0    0 -0.12124242537E+02  0.58716341874E+01 -0.58679533018E+01  0.14693747695E+02  0.51100000000E-03 0. -1.
        -11    1    3    3    0    0  0.15912794673E+01 -0.13751718350E+02 -0.13285999920E+02  0.19187488686E+02  0.51100000000E-03 0.  1.
        -12    1    3    3    0    0  0.11906901974E+02  0.14030336798E+01  0.36670459494E+02  0.38580635267E+02  0.00000000000E+00 0.  1.
</event>
<event>
 7    1  0.3162486E-013  0.7246160E+02  0.7816164E-02  0.1226708E+00
        -11   -1    0    0    0    0  0.00000000000E+00  0.00000000000E+00  0.45593999997E+02  0.45594000000E+02  0.51100000000E-03 0.  1.
         11   -1    0    0    0    0 -0.00000000000E+00 -0.00000000000E+00 -0.45593999997E+02  0.45594000000E+02  0.51100000000E-03 0. -1.
    9900012    2    1    2    0    0 -0.88375356417E+01 -0.40279216897E+01  0.16010989410E+02  0.72461602289E+02  0.70000041679E+02 0.  0.
         12    1    1    2    0    0  0.88375356417E+01  0.40279216897E+01 -0.16010989410E+02  0.18726397711E+02  0.00000000000E+00 0. -1.
         11    1    3    3    0    0  0.28660736779E+01 -0.25381866379E+02 -0.71676458952E+01  0.26529769451E+02  0.51100000000E-03 0. -1.
        -11    1    3    3    0    0 -0.11337173438E+02  0.86350622993E+01 -0.49280051239E+01  0.15079159036E+02  0.51100000000E-03 0.  1.
        -12    1    3    3    0    0 -0.36643588128E+00  0.12718882390E+02  0.28106640429E+02  0.30852673801E+02  0.00000000000E+00 0.  1.
</event>
<event>
 7    1  0.3162486E-013  0.7246174E+02  0.7816164E-02  0.1226708E+00
        -11   -1    0    0    0    0  0.00000000000E+00  0.00000000000E+00  0.45593999997E+02  0.45594000000E+02  0.51100000000E-03 0.  1.
         11   -1    0    0    0    0 -0.00000000000E+00 -0.00000000000E+00 -0.45593999997E+02  0.45594000000E+02  0.51100000000E-03 0. -1.
    9900012    2    1    2    0    0 -0.86725266384E+01 -0.15972459665E+02  0.45100423422E+01  0.72461743888E+02  0.70000226137E+02 0.  0.
         12    1    1    2    0    0  0.86725266384E+01  0.15972459665E+02 -0.45100423422E+01  0.18726256112E+02  0.00000000000E+00 0. -1.
         11    1    3    3    0    0 -0.55886568133E+01 -0.41034744779E+02  0.63921834147E+01  0.41903978010E+02  0.51100000000E-03 0. -1.
        -11    1    3    3    0    0  0.22874778717E+01  0.92993325369E+01  0.68308752884E+01  0.11763120254E+02  0.51100000000E-03 0.  1.
        -12    1    3    3    0    0 -0.53713476968E+01  0.15762952576E+02 -0.87130163609E+01  0.18794645623E+02  0.00000000000E+00 0.  1.
</event>
<event>
 7    1  0.3162486E-013  0.7246161E+02  0.7816164E-02  0.1226708E+00
        -11   -1    0    0    0    0  0.00000000000E+00  0.00000000000E+00  0.45593999997E+02  0.45594000000E+02  0.51100000000E-03 0.  1.
         11   -1    0    0    0    0 -0.00000000000E+00 -0.00000000000E+00 -0.45593999997E+02  0.45594000000E+02  0.51100000000E-03 0. -1.
    9900012    2    1    2    0    0 -0.12150085645E+02 -0.11314967603E+02 -0.86616854364E+01  0.72461605055E+02  0.70000045282E+02 0.  0.
         12    1    1    2    0    0  0.12150085645E+02  0.11314967603E+02  0.86616854364E+01  0.18726394945E+02  0.00000000000E+00 0. -1.
         11    1    3    3    0    0 -0.41392631700E+00 -0.35408233153E+02 -0.40150225450E+01  0.35637546441E+02  0.51100000000E-03 0. -1.
        -11    1    3    3    0    0 -0.32831824489E+01  0.59769732855E+01  0.99559253283E+01  0.12067474717E+02  0.51100000000E-03 0.  1.
        -12    1    3    3    0    0 -0.84529768793E+01  0.18116292265E+02 -0.14602588220E+02  0.24756583897E+02  0.00000000000E+00 0.  1.
</event>
<event>
 7    1  0.3261392E-013  0.7246156E+02  0.7816164E-02  0.1226708E+00
        -11   -1    0    0    0    0  0.00000000000E+00  0.00000000000E+00  0.45593999997E+02  0.45594000000E+02  0.51100000000E-03 0. -1.
         11   -1    0    0    0    0 -0.00000000000E+00 -0.00000000000E+00 -0.45593999997E+02  0.45594000000E+02  0.51100000000E-03 0.  1.
    9900012    2    1    2    0    0  0.12812667122E+02  0.96994948267E+01 -0.96143043338E+01  0.72461561831E+02  0.69999988975E+02 0.  0.
         12    1    1    2    0    0 -0.12812667122E+02 -0.96994948267E+01  0.96143043338E+01  0.18726438169E+02  0.00000000000E+00 0. -1.
         11    1    3    3    0    0  0.26564855034E+01  0.23708677512E+01  0.50535796295E+01  0.61819573322E+01  0.51100000000E-03 0. -1.
        -11    1    3    3    0    0  0.35946207595E+02  0.12962799262E+02 -0.77528244659E+01  0.38990643655E+02  0.51100000000E-03 0.  1.
         12    1    3    3    0    0 -0.25790025977E+02 -0.56341721869E+01 -0.69150594974E+01  0.27288960844E+02  0.00000000000E+00 0. -1.
</event>
<event>
 7    1  0.3162486E-013  0.7246167E+02  0.7816164E-02  0.1226708E+00
        -11   -1    0    0    0    0  0.00000000000E+00  0.00000000000E+00  0.45593999997E+02  0.45594000000E+02  0.51100000000E-03 0.  1.
         11   -1    0    0    0    0 -0.00000000000E+00 -0.00000000000E+00 -0.45593999997E+02  0.45594000000E+02  0.51100000000E-03 0. -1.
    9900012    2    1    2    0    0 -0.22444150663E+01  0.15893070845E+02 -0.96461584492E+01  0.72461669000E+02  0.70000128583E+02 0.  0.
         12    1    1    2    0    0  0.22444150663E+01 -0.15893070845E+02  0.96461584492E+01  0.18726331000E+02  0.00000000000E+00 0. -1.
         11    1    3    3    0    0  0.83766650776E+00 -0.59129674776E+01 -0.31975137114E+02  0.32528053481E+02  0.51100000000E-03 0. -1.
        -11    1    3    3    0    0  0.38552528357E+01 -0.38127503956E+01  0.82958615675E+01  0.99106689691E+01  0.51100000000E-03 0.  1.
        -12    1    3    3    0    0 -0.69373344097E+01  0.25618788718E+02  0.14033117097E+02  0.30022946550E+02  0.00000000000E+00 0.  1.
</event>
<event>
 7    1  0.3162486E-013  0.7246164E+02  0.7816164E-02  0.1226708E+00
        -11   -1    0    0    0    0  0.00000000000E+00  0.00000000000E+00  0.45593999997E+02  0.45594000000E+02  0.51100000000E-03 0.  1.
         11   -1    0    0    0    0 -0.00000000000E+00 -0.00000000000E+00 -0.45593999997E+02  0.45594000000E+02  0.51100000000E-03 0. -1.
    9900012    2    1    2    0    0 -0.80248581314E+01 -0.40815899574E+01  0.16420077824E+02  0.72461636756E+02  0.70000086578E+02 0.  0.
         12    1    1    2    0    0  0.80248581314E+01  0.40815899574E+01 -0.16420077824E+02  0.18726363244E+02  0.00000000000E+00 0. -1.
         11    1    3    3    0    0  0.19091513629E+02  0.10303838927E+02 -0.13685212299E+02  0.25650341619E+02  0.51100000000E-03 0. -1.
        -11    1    3    3    0    0  0.26444810156E+01 -0.91480467656E+00  0.76213750957E+00  0.29001726298E+01  0.51100000000E-03 0.  1.
        -12    1    3    3    0    0 -0.29760852776E+02 -0.13470624208E+02  0.29343152613E+02  0.43911122506E+02  0.00000000000E+00 0.  1.
</event>
<event>
 7    1  0.3162486E-013  0.7246161E+02  0.7816164E-02  0.1226708E+00
        -11   -1    0    0    0    0  0.00000000000E+00  0.00000000000E+00  0.45593999997E+02  0.45594000000E+02  0.51100000000E-03 0. -1.
         11   -1    0    0    0    0 -0.00000000000E+00 -0.00000000000E+00 -0.45593999997E+02  0.45594000000E+02  0.51100000000E-03 0.  1.
    9900012    2    1    2    0    0  0.14389552037E+02  0.80878040819E+01 -0.88434095261E+01  0.72461610205E+02  0.70000051991E+02 0.  0.
         12    1    1    2    0    0 -0.14389552037E+02 -0.80878040819E+01  0.88434095261E+01  0.18726389795E+02  0.00000000000E+00 0. -1.
         11    1    3    3    0    0  0.43638603306E+01  0.18074901203E+01  0.15860177459E+02  0.16548580810E+02  0.51100000000E-03 0. -1.
        -11    1    3    3    0    0 -0.18253509512E+02 -0.17973609038E+01 -0.14104508650E+01  0.18395936716E+02  0.51100000000E-03 0.  1.
        -12    1    3    3    0    0  0.28279201219E+02  0.80776748654E+01 -0.23293136120E+02  0.37517092680E+02  0.00000000000E+00 0.  1.
</event>
<event>
 7    1  0.3162486E-013  0.7246144E+02  0.7816164E-02  0.1226708E+00
        -11   -1    0    0    0    0  0.00000000000E+00  0.00000000000E+00  0.45593999997E+02  0.45594000000E+02  0.51100000000E-03 0. -1.
         11   -1    0    0    0    0 -0.00000000000E+00 -0.00000000000E+00 -0.45593999997E+02  0.45594000000E+02  0.51100000000E-03 0.  1.
    9900012    2    1    2    0    0  0.55826086065E+01 -0.73154475231E+01 -0.16309594876E+02  0.72461436612E+02  0.69999825854E+02 0.  0.
         12    1    1    2    0    0 -0.55826086065E+01  0.73154475231E+01  0.16309594876E+02  0.18726563388E+02  0.00000000000E+00 0. -1.
         11    1    3    3    0    0 -0.62741645054E+01 -0.24463719953E+02 -0.56616875868E+01  0.25882299758E+02  0.51100000000E-03 0. -1.
        -11    1    3    3    0    0  0.98251027081E+01  0.51684182531E+01 -0.25249957668E+02  0.27582703873E+02  0.51100000000E-03 0.  1.
         12    1    3    3    0    0  0.20316704038E+01  0.11979854177E+02  0.14602050379E+02  0.18996432981E+02  0.00000000000E+00 0. -1.
</event>
<event>
 7    1  0.3162486E-013  0.7246159E+02  0.7816164E-02  0.1226708E+00
        -11   -1    0    0    0    0  0.00000000000E+00  0.00000000000E+00  0.45593999997E+02  0.45594000000E+02  0.51100000000E-03 0.  1.
         11   -1    0    0    0    0 -0.00000000000E+00 -0.00000000000E+00 -0.45593999997E+02  0.45594000000E+02  0.51100000000E-03 0. -1.
    9900012    2    1    2    0    0 -0.79020709344E+01  0.26574208265E+01  0.16768235177E+02  0.72461592938E+02  0.70000029498E+02 0.  0.
         12    1    1    2    0    0  0.79020709344E+01 -0.26574208265E+01 -0.16768235177E+02  0.18726407062E+02  0.00000000000E+00 0. -1.
         11    1    3    3    0    0 -0.89438886383E+01  0.16630592993E+02  0.18395097116E+01  0.18972442213E+02  0.51100000000E-03 0. -1.
        -11    1    3    3    0    0 -0.20692554408E+01  0.18361822803E+02  0.86548524670E+01  0.20404529551E+02  0.51100000000E-03 0.  1.
        -12    1    3    3    0    0  0.31110731448E+01 -0.32334994970E+02  0.62738729979E+01  0.33084621174E+02  0.00000000000E+00 0.  1.
</event>
<event>
 7    1  0.3162486E-013  0.7246154E+02  0.7816164E-02  0.1226708E+00
        -11   -1    0    0    0    0  0.00000000000E+00  0.00000000000E+00  0.45593999997E+02  0.45594000000E+02  0.51100000000E-03 0.  1.
         11   -1    0    0    0    0 -0.00000000000E+00 -0.00000000000E+00 -0.45593999997E+02  0.45594000000E+02  0.51100000000E-03 0. -1.
    9900012    2    1    2    0    0 -0.10471917879E+02  0.71723921804E+01  0.13768666045E+02  0.72461536417E+02  0.69999955869E+02 0.  0.
         12    1    1    2    0    0  0.10471917879E+02 -0.71723921804E+01 -0.13768666045E+02  0.18726463583E+02  0.00000000000E+00 0. -1.
         11    1    3    3    0    0  0.20875124324E+02 -0.73404678921E+01  0.11798138696E+02  0.25076869051E+02  0.51100000000E-03 0. -1.
        -11    1    3    3    0    0 -0.67046385338E+01 -0.74425741312E+01 -0.80953953693E+01  0.12879422115E+02  0.51100000000E-03 0.  1.
        -12    1    3    3    0    0 -0.24642403670E+02  0.21955434204E+02  0.10065922718E+02  0.34505245252E+02  0.00000000000E+00 0.  1.
</event>
<event>
 7    1  0.3162486E-013  0.7246139E+02  0.7816164E-02  0.1226708E+00
        -11   -1    0    0    0    0  0.00000000000E+00  0.00000000000E+00  0.45593999997E+02  0.45594000000E+02  0.51100000000E-03 0.  1.
         11   -1    0    0    0    0 -0.00000000000E+00 -0.00000000000E+00 -0.45593999997E+02  0.45594000000E+02  0.51100000000E-03 0. -1.
    9900012    2    1    2    0    0 -0.29095900185E+01  0.38891663877E+01  0.18085757003E+02  0.72461389639E+02  0.69999764662E+02 0.  0.
         12    1    1    2    0    0  0.29095900185E+01 -0.38891663877E+01 -0.18085757003E+02  0.18726610361E+02  0.00000000000E+00 0. -1.
         11    1    3    3    0    0  0.18240030796E+02 -0.10829633514E+02  0.14827950120E+02  0.25881417862E+02  0.51100000000E-03 0. -1.
        -11    1    3    3    0    0  0.10444989919E+01 -0.70101082639E+00 -0.14298070906E+02  0.14353300186E+02  0.51100000000E-03 0.  1.
        -12    1    3    3    0    0 -0.22194119807E+02  0.15419810728E+02  0.17555877789E+02  0.32226671591E+02  0.00000000000E+00 0.  1.
</event>
<event>
 7    1  0.3162486E-013  0.7246153E+02  0.7816164E-02  0.1226708E+00
        -11   -1    0    0    0    0  0.00000000000E+00  0.00000000000E+00  0.45593999997E+02  0.45594000000E+02  0.51100000000E-03 0.  1.
         11   -1    0    0    0    0 -0.00000000000E+00 -0.00000000000E+00 -0.45593999997E+02  0.45594000000E+02  0.51100000000E-03 0. -1.
    9900012    2    1    2    0    0 -0.12927104452E+02 -0.13294531310E+02 -0.26126760070E+01  0.72461530280E+02  0.69999947873E+02 0.  0.
         12    1    1    2    0    0  0.12927104452E+02  0.13294531310E+02  0.26126760070E+01  0.18726469720E+02  0.00000000000E+00 0. -1.
         11    1    3    3    0    0 -0.19189348661E+02 -0.85644706736E+01 -0.24058622713E+02  0.31943678358E+02  0.51100000000E-03 0.  1.
        -11    1    3    3    0    0 -0.13973550383E+01 -0.13840359488E+02 -0.21634104373E+01  0.14077943629E+02  0.51100000000E-03 0. -1.
         12    1    3    3    0    0  0.76595992470E+01  0.91102988511E+01  0.23609357143E+02  0.26439908292E+02  0.00000000000E+00 0. -1.
</event>
<event>
 7    1  0.3162486E-013  0.7246153E+02  0.7816164E-02  0.1226708E+00
        -11   -1    0    0    0    0  0.00000000000E+00  0.00000000000E+00  0.45593999997E+02  0.45594000000E+02  0.51100000000E-03 0. -1.
         11   -1    0    0    0    0 -0.00000000000E+00 -0.00000000000E+00 -0.45593999997E+02  0.45594000000E+02  0.51100000000E-03 0.  1.
    9900012    2    1    2    0    0  0.13163590905E+01  0.17945647889E+02  0.51866736224E+01  0.72461530427E+02  0.69999948065E+02 0.  0.
         12    1    1    2    0    0 -0.13163590905E+01 -0.17945647889E+02 -0.51866736224E+01  0.18726469573E+02  0.00000000000E+00 0. -1.
         11    1    3    3    0    0  0.94312257806E+01 -0.97158506582E+01  0.37347975028E+01  0.14046155573E+02  0.51100000000E-03 0. -1.
        -11    1    3    3    0    0 -0.41606406022E+01 -0.11393166301E+02 -0.11861346038E+02  0.16964866598E+02  0.51100000000E-03 0.  1.
        -12    1    3    3    0    0 -0.39542260879E+01  0.39054664849E+02  0.13313222158E+02  0.41450508255E+02  0.00000000000E+00 0.  1.
</event>
<event>
 7    1  0.3162486E-013  0.7246161E+02  0.7816164E-02  0.1226708E+00
        -11   -1    0    0    0    0  0.00000000000E+00  0.00000000000E+00  0.45593999997E+02  0.45594000000E+02  0.51100000000E-03 0. -1.
         11   -1    0    0    0    0 -0.00000000000E+00 -0.00000000000E+00 -0.45593999997E+02  0.45594000000E+02  0.51100000000E-03 0.  1.
    9900012    2    1    2    0    0 -0.18212609720E+02 -0.31558841877E+01 -0.30031398215E+01  0.72461612025E+02  0.70000054362E+02 0.  0.
         12    1    1    2    0    0  0.18212609720E+02  0.31558841877E+01  0.30031398215E+01  0.18726387975E+02  0.00000000000E+00 0. -1.
         11    1    3    3    0    0 -0.17241791911E+02  0.68002150534E+01 -0.23381720634E+02  0.29836674968E+02  0.51100000000E-03 0. -1.
        -11    1    3    3    0    0  0.37343066659E+01 -0.95528872145E+01 -0.85256240805E+01  0.13337502264E+02  0.51100000000E-03 0.  1.
         12    1    3    3    0    0 -0.47051244751E+01 -0.40321202669E+00  0.28904204893E+02  0.29287434793E+02  0.00000000000E+00 0. -1.
</event>
<event>
 7    1  0.3162486E-013  0.7246156E+02  0.7816164E-02  0.1226708E+00
        -11   -1    0    0    0    0  0.00000000000E+00  0.00000000000E+00  0.45593999997E+02  0.45594000000E+02  0.51100000000E-03 0.  1.
         11   -1    0    0    0    0 -0.00000000000E+00 -0.00000000000E+00 -0.45593999997E+02  0.45594000000E+02  0.51100000000E-03 0. -1.
    9900012    2    1    2    0    0  0.11736482480E+02 -0.83030941195E+01  0.11999717211E+02  0.72461558637E+02  0.69999984815E+02 0.  0.
         12    1    1    2    0    0 -0.11736482480E+02  0.83030941195E+01 -0.11999717211E+02  0.18726441363E+02  0.00000000000E+00 0. -1.
         11    1    3    3    0    0 -0.51458454900E+01  0.11194649514E+02  0.15648893940E+02  0.19917022502E+02  0.51100000000E-03 0. -1.
        -11    1    3    3    0    0 -0.15415040884E+01 -0.12388935529E+02  0.18849234631E+02  0.22608750625E+02  0.51100000000E-03 0.  1.
        -12    1    3    3    0    0  0.18423832059E+02 -0.71088081046E+01 -0.22498411360E+02  0.29935785510E+02  0.00000000000E+00 0.  1.
</event>
<event>
 7    1  0.3162486E-013  0.7246172E+02  0.7816164E-02  0.1226708E+00
        -11   -1    0    0    0    0  0.00000000000E+00  0.00000000000E+00  0.45593999997E+02  0.45594000000E+02  0.51100000000E-03 0.  1.
         11   -1    0    0    0    0 -0.00000000000E+00 -0.00000000000E+00 -0.45593999997E+02  0.45594000000E+02  0.51100000000E-03 0. -1.
    9900012    2    1    2    0    0 -0.71329871263E+01 -0.15212143013E+02  0.82695016579E+01  0.72461722792E+02  0.70000198657E+02 0.  0.
         12    1    1    2    0    0  0.71329871263E+01  0.15212143013E+02 -0.82695016579E+01  0.18726277208E+02  0.00000000000E+00 0. -1.
         11    1    3    3    0    0 -0.60765240628E+00 -0.27894008640E+02 -0.14409873226E+02  0.31402060539E+02  0.51100000000E-03 0. -1.
        -11    1    3    3    0    0  0.52078092224E+00 -0.90875620941E+01  0.13766547438E+02  0.16503721586E+02  0.51100000000E-03 0.  1.
        -12    1    3    3    0    0 -0.70461156423E+01  0.21769427721E+02  0.89128274463E+01  0.24555940667E+02  0.00000000000E+00 0.  1.
</event>
<event>
 7    1  0.3162486E-013  0.7246134E+02  0.7816164E-02  0.1226709E+00
        -11   -1    0    0    0    0  0.00000000000E+00  0.00000000000E+00  0.45593999997E+02  0.45594000000E+02  0.51100000000E-03 0. -1.
         11   -1    0    0    0    0 -0.00000000000E+00 -0.00000000000E+00 -0.45593999997E+02  0.45594000000E+02  0.51100000000E-03 0.  1.
    9900012    2    1    2    0    0  0.45146555778E+01  0.17842939543E+02 -0.34547583196E+01  0.72461335546E+02  0.69999694196E+02 0.  0.
         12    1    1    2    0    0 -0.45146555778E+01 -0.17842939543E+02  0.34547583196E+01  0.18726664454E+02  0.00000000000E+00 0. -1.
         11    1    3    3    0    0  0.49454186719E+01  0.96716106565E+00  0.13291439627E+01  0.52114480043E+01  0.51100000000E-03 0. -1.
        -11    1    3    3    0    0  0.74984335951E+01 -0.49309531520E+01 -0.30980767901E+02  0.32254438227E+02  0.51100000000E-03 0.  1.
         12    1    3    3    0    0 -0.79291966892E+01  0.21806731630E+02  0.26196865618E+02  0.34995449315E+02  0.00000000000E+00 0. -1.
</event>
<event>
 7    1  0.3162486E-013  0.7246166E+02  0.7816164E-02  0.1226708E+00
        -11   -1    0    0    0    0  0.00000000000E+00  0.00000000000E+00  0.45593999997E+02  0.45594000000E+02  0.51100000000E-03 0.  1.
         11   -1    0    0    0    0 -0.00000000000E+00 -0.00000000000E+00 -0.45593999997E+02  0.45594000000E+02  0.51100000000E-03 0. -1.
    9900012    2    1    2    0    0 -0.80717304965E+01 -0.15423237224E+02  0.69026643866E+01  0.72461658784E+02  0.70000115275E+02 0.  0.
         12    1    1    2    0    0  0.80717304965E+01  0.15423237224E+02 -0.69026643866E+01  0.18726341216E+02  0.00000000000E+00 0. -1.
         11    1    3    3    0    0 -0.14420962373E+02 -0.10415132242E+02 -0.21119159659E+02  0.27612642763E+02  0.51100000000E-03 0. -1.
        -11    1    3    3    0    0 -0.32942703511E+01 -0.57071551109E+01 -0.63450846964E+01  0.91478924716E+01  0.51100000000E-03 0.  1.
        -12    1    3    3    0    0  0.96435022278E+01  0.69905012825E+00  0.34366908742E+02  0.35701123550E+02  0.00000000000E+00 0.  1.
</event>
<event>
 7    1  0.3162486E-013  0.7246155E+02  0.7816164E-02  0.1226708E+00
        -11   -1    0    0    0    0  0.00000000000E+00  0.00000000000E+00  0.45593999997E+02  0.45594000000E+02  0.51100000000E-03 0.  1.
         11   -1    0    0    0    0 -0.00000000000E+00 -0.00000000000E+00 -0.45593999997E+02  0.45594000000E+02  0.51100000000E-03 0. -1.
    9900012    2    1    2    0    0 -0.25671803386E+01  0.31404527195E+01  0.18281877600E+02  0.72461550610E+02  0.69999974358E+02 0.  0.
         12    1    1    2    0    0  0.25671803386E+01 -0.31404527195E+01 -0.18281877600E+02  0.18726449390E+02  0.00000000000E+00 0. -1.
         11    1    3    3    0    0 -0.68909747303E+00 -0.39730538989E-01  0.19007143271E+01  0.20221644486E+01  0.51100000000E-03 0. -1.
        -11    1    3    3    0    0  0.25787324837E+02 -0.11079569158E+02  0.25589986643E+02  0.37981447993E+02  0.51100000000E-03 0.  1.
         12    1    3    3    0    0 -0.27665407703E+02  0.14259752416E+02 -0.92088233706E+01  0.32457938169E+02  0.00000000000E+00 0. -1.
</event>
<event>
 7    1  0.3162486E-013  0.7246161E+02  0.7816164E-02  0.1226708E+00
        -11   -1    0    0    0    0  0.00000000000E+00  0.00000000000E+00  0.45593999997E+02  0.45594000000E+02  0.51100000000E-03 0.  1.
         11   -1    0    0    0    0 -0.00000000000E+00 -0.00000000000E+00 -0.45593999997E+02  0.45594000000E+02  0.51100000000E-03 0. -1.
    9900012    2    1    2    0    0  0.16672934454E+02  0.57466934288E+01  0.62981270218E+01  0.72461611329E+02  0.70000053455E+02 0.  0.
         12    1    1    2    0    0 -0.16672934454E+02 -0.57466934288E+01 -0.62981270218E+01  0.18726388671E+02  0.00000000000E+00 0. -1.
         11    1    3    3    0    0  0.11408322054E+02  0.55804531075E-01  0.90289880035E+01  0.14549073884E+02  0.51100000000E-03 0. -1.
        -11    1    3    3    0    0  0.16665202626E+02 -0.69814943013E+01  0.21627699435E+02  0.28182044361E+02  0.51100000000E-03 0.  1.
         12    1    3    3    0    0 -0.11400590226E+02  0.12672383199E+02 -0.24358560417E+02  0.29730493084E+02  0.00000000000E+00 0. -1.
</event>
<event>
 7    1  0.3162486E-013  0.7246157E+02  0.7816164E-02  0.1226708E+00
        -11   -1    0    0    0    0  0.00000000000E+00  0.00000000000E+00  0.45593999997E+02  0.45594000000E+02  0.51100000000E-03 0.  1.
         11   -1    0    0    0    0 -0.00000000000E+00 -0.00000000000E+00 -0.45593999997E+02  0.45594000000E+02  0.51100000000E-03 0. -1.
    9900012    2    1    2    0    0 -0.14499894632E+02  0.90932362445E+01 -0.75990372647E+01  0.72461567956E+02  0.69999996954E+02 0.  0.
         12    1    1    2    0    0  0.14499894632E+02 -0.90932362445E+01  0.75990372647E+01  0.18726432044E+02  0.00000000000E+00 0. -1.
         11    1    3    3    0    0  0.22065138764E+01  0.56555537531E+01 -0.90305750883E+01  0.10881418953E+02  0.51100000000E-03 0. -1.
        -11    1    3    3    0    0 -0.19734044811E+02  0.84060121364E+01  0.27496707624E+02  0.34873521403E+02  0.51100000000E-03 0.  1.
         12    1    3    3    0    0  0.30276363024E+01 -0.49683296450E+01 -0.26065169801E+02  0.26706627600E+02  0.00000000000E+00 0. -1.
</event>
<event>
 7    1  0.3162486E-013  0.7246159E+02  0.7816164E-02  0.1226708E+00
        -11   -1    0    0    0    0  0.00000000000E+00  0.00000000000E+00  0.45593999997E+02  0.45594000000E+02  0.51100000000E-03 0. -1.
         11   -1    0    0    0    0 -0.00000000000E+00 -0.00000000000E+00 -0.45593999997E+02  0.45594000000E+02  0.51100000000E-03 0.  1.
    9900012    2    1    2    0    0  0.14893761097E+02  0.11335933548E+02 -0.59243915022E+00  0.72461588353E+02  0.70000023524E+02 0.  0.
         12    1    1    2    0    0 -0.14893761097E+02 -0.11335933548E+02  0.59243915022E+00  0.18726411647E+02  0.00000000000E+00 0. -1.
         11    1    3    3    0    0 -0.20599616218E+00 -0.67380117742E+01 -0.24095321922E+01  0.71588464667E+01  0.51100000000E-03 0. -1.
        -11    1    3    3    0    0 -0.57952374689E+01 -0.18745625430E+02  0.10248024880E+02  0.22136062529E+02  0.51100000000E-03 0.  1.
        -12    1    3    3    0    0  0.20894994728E+02  0.36819570752E+02 -0.84309318380E+01  0.43166679357E+02  0.00000000000E+00 0.  1.
</event>
<event>
 7    1  0.3162486E-013  0.7246159E+02  0.7816164E-02  0.1226708E+00
        -11   -1    0    0    0    0  0.00000000000E+00  0.00000000000E+00  0.45593999997E+02  0.45594000000E+02  0.51100000000E-03 0. -1.
         11   -1    0    0    0    0 -0.00000000000E+00 -0.00000000000E+00 -0.45593999997E+02  0.45594000000E+02  0.51100000000E-03 0.  1.
    9900012    2    1    2    0    0 -0.17153189190E+02  0.15367785772E+01 -0.73542330169E+01  0.72461592682E+02  0.70000029163E+02 0.  0.
         12    1    1    2    0    0  0.17153189190E+02 -0.15367785772E+01  0.73542330169E+01  0.18726407318E+02  0.00000000000E+00 0. -1.
         11    1    3    3    0    0  0.13808795963E+02  0.67796618666E+00  0.76148410399E+01  0.15783798289E+02  0.51100000000E-03 0. -1.
        -11    1    3    3    0    0 -0.13803193191E+02 -0.14606274116E+02  0.10181849269E+02  0.22528680401E+02  0.51100000000E-03 0.  1.
        -12    1    3    3    0    0 -0.17158791962E+02  0.15465086506E+02 -0.25150923326E+02  0.34149113991E+02  0.00000000000E+00 0.  1.
</event>
<event>
 7    1  0.3162486E-013  0.7246154E+02  0.7816164E-02  0.1226708E+00
        -11   -1    0    0    0    0  0.00000000000E+00  0.00000000000E+00  0.45593999997E+02  0.45594000000E+02  0.51100000000E-03 0. -1.
         11   -1    0    0    0    0 -0.00000000000E+00 -0.00000000000E+00 -0.45593999997E+02  0.45594000000E+02  0.51100000000E-03 0.  1.
    9900012    2    1    2    0    0  0.17033185252E+02  0.62341626225E+01 -0.46568252750E+01  0.72461542645E+02  0.69999963981E+02 0.  0.
         12    1    1    2    0    0 -0.17033185252E+02 -0.62341626225E+01  0.46568252750E+01  0.18726457355E+02  0.00000000000E+00 0. -1.
         11    1    3    3    0    0  0.76247999540E+01  0.22282649980E+00  0.93532574964E+01  0.12069409764E+02  0.51100000000E-03 0. -1.
        -11    1    3    3    0    0  0.32057223665E+02 -0.64359278313E+01 -0.53231264922E+01  0.33127366814E+02  0.51100000000E-03 0.  1.
         12    1    3    3    0    0 -0.22648838366E+02  0.12447263954E+02 -0.86869562792E+01  0.27264766067E+02  0.00000000000E+00 0. -1.
</event>
<event>
 7    1  0.3162486E-013  0.7246157E+02  0.7816164E-02  0.1226708E+00
        -11   -1    0    0    0    0  0.00000000000E+00  0.00000000000E+00  0.45593999997E+02  0.45594000000E+02  0.51100000000E-03 0.  1.
         11   -1    0    0    0    0 -0.00000000000E+00 -0.00000000000E+00 -0.45593999997E+02  0.45594000000E+02  0.51100000000E-03 0. -1.
    9900012    2    1    2    0    0 -0.18382170088E+02 -0.56612454812E+00 -0.35290788415E+01  0.72461572909E+02  0.70000003406E+02 0.  0.
         12    1    1    2    0    0  0.18382170088E+02  0.56612454812E+00  0.35290788415E+01  0.18726427091E+02  0.00000000000E+00 0. -1.
         11    1    3    3    0    0 -0.78199076267E+01  0.11891455625E+02  0.51794929293E+01  0.15145455406E+02  0.51100000000E-03 0. -1.
        -11    1    3    3    0    0 -0.20201586688E+01 -0.40693697968E+01  0.22988672079E+02  0.23433306549E+02  0.51100000000E-03 0.  1.
         12    1    3    3    0    0 -0.85421037922E+01 -0.83882103766E+01 -0.31697243850E+02  0.33882810955E+02  0.00000000000E+00 0. -1.
</event>
<event>
 7    1  0.3162486E-013  0.7246117E+02  0.7816164E-02  0.1226709E+00
        -11   -1    0    0    0    0  0.00000000000E+00  0.00000000000E+00  0.45593999997E+02  0.45594000000E+02  0.51100000000E-03 0. -1.
         11   -1    0    0    0    0 -0.00000000000E+00 -0.00000000000E+00 -0.45593999997E+02  0.45594000000E+02  0.51100000000E-03 0.  1.
    9900012    2    1    2    0    0  0.22853944173E+01 -0.12392068616E+02 -0.13853074761E+02  0.72461172384E+02  0.69999481646E+02 0.  0.
         12    1    1    2    0    0 -0.22853944173E+01  0.12392068616E+02  0.13853074761E+02  0.18726827616E+02  0.00000000000E+00 0. -1.
         11    1    3    3    0    0  0.11128137109E+01  0.47214323325E+01  0.31351545070E+01  0.57757658946E+01  0.51100000000E-03 0. -1.
        -11    1    3    3    0    0  0.27417116791E+02  0.74546338131E+01 -0.54573307438E+01  0.28931856448E+02  0.51100000000E-03 0.  1.
        -12    1    3    3    0    0 -0.26244536084E+02 -0.24568134762E+02 -0.11530898524E+02  0.37753550041E+02  0.00000000000E+00 0.  1.
</event>
<event>
 7    1  0.3162486E-013  0.7246155E+02  0.7816164E-02  0.1226708E+00
        -11   -1    0    0    0    0  0.00000000000E+00  0.00000000000E+00  0.45593999997E+02  0.45594000000E+02  0.51100000000E-03 0. -1.
         11   -1    0    0    0    0 -0.00000000000E+00 -0.00000000000E+00 -0.45593999997E+02  0.45594000000E+02  0.51100000000E-03 0.  1.
    9900012    2    1    2    0    0 -0.48228642293E+01  0.79279880453E+01 -0.16265518757E+02  0.72461545069E+02  0.69999967140E+02 0.  0.
         12    1    1    2    0    0  0.48228642293E+01 -0.79279880453E+01  0.16265518757E+02  0.18726454931E+02  0.00000000000E+00 0. -1.
         11    1    3    3    0    0  0.10876215481E+02 -0.15952451956E+01 -0.15649776894E+02  0.19124653919E+02  0.51100000000E-03 0. -1.
        -11    1    3    3    0    0 -0.90703839539E+01  0.16032997020E+02 -0.22784798479E+02  0.29299759393E+02  0.51100000000E-03 0.  1.
         12    1    3    3    0    0 -0.66286957559E+01 -0.65097637789E+01  0.22169056616E+02  0.24037131757E+02  0.00000000000E+00 0. -1.
</event>
<event>
 7    1  0.3162486E-013  0.7246156E+02  0.7816164E-02  0.1226708E+00
        -11   -1    0    0    0    0  0.00000000000E+00  0.00000000000E+00  0.45593999997E+02  0.45594000000E+02  0.51100000000E-03 0. -1.
         11   -1    0    0    0    0 -0.00000000000E+00 -0.00000000000E+00 -0.45593999997E+02  0.45594000000E+02  0.51100000000E-03 0.  1.
    9900012    2    1    2    0    0  0.54171411031E+01  0.33250462703E+01 -0.17614717606E+02  0.72461558086E+02  0.69999984096E+02 0.  0.
         12    1    1    2    0    0 -0.54171411031E+01 -0.33250462703E+01  0.17614717606E+02  0.18726441914E+02  0.00000000000E+00 0. -1.
         11    1    3    3    0    0  0.46572602182E+01 -0.22621209853E+02  0.12054472655E+01  0.23127090421E+02  0.51100000000E-03 0. -1.
        -11    1    3    3    0    0  0.34258517850E+01 -0.69720643588E+01  0.44323726653E+01  0.89438285752E+01  0.51100000000E-03 0.  1.
        -12    1    3    3    0    0 -0.26659709001E+01  0.32918320482E+02 -0.23252537537E+02  0.40390639090E+02  0.00000000000E+00 0.  1.
</event>
<event>
 7    1  0.3407932E-013  0.7246158E+02  0.7816164E-02  0.1226708E+00
        -11   -1    0    0    0    0  0.00000000000E+00  0.00000000000E+00  0.45593999997E+02  0.45594000000E+02  0.51100000000E-03 0. -1.
         11   -1    0    0    0    0 -0.00000000000E+00 -0.00000000000E+00 -0.45593999997E+02  0.45594000000E+02  0.51100000000E-03 0.  1.
    9900012    2    1    2    0    0 -0.30033790919E+01  0.44554203173E+01 -0.17939001298E+02  0.72461579527E+02  0.70000012027E+02 0.  0.
         12    1    1    2    0    0  0.30033790919E+01 -0.44554203173E+01  0.17939001298E+02  0.18726420473E+02  0.00000000000E+00 0. -1.
         11    1    3    3    0    0  0.68088740913E+01  0.19886025859E+02  0.17200833824E+02  0.27160329073E+02  0.51100000000E-03 0. -1.
        -11    1    3    3    0    0 -0.41738354936E+00 -0.44084554875E+01  0.24197264516E+01  0.50461634114E+01  0.51100000000E-03 0.  1.
        -12    1    3    3    0    0 -0.93948696339E+01 -0.11022150054E+02 -0.37559561573E+02  0.40255087043E+02  0.00000000000E+00 0.  1.
</event>
<event>
 7    1  0.3162486E-013  0.7246160E+02  0.7816164E-02  0.1226708E+00
        -11   -1    0    0    0    0  0.00000000000E+00  0.00000000000E+00  0.45593999997E+02  0.45594000000E+02  0.51100000000E-03 0.  1.
         11   -1    0    0    0    0 -0.00000000000E+00 -0.00000000000E+00 -0.45593999997E+02  0.45594000000E+02  0.51100000000E-03 0. -1.
    9900012    2    1    2    0    0 -0.46326001258E+01  0.15566605529E+01  0.18077443947E+02  0.72461597365E+02  0.70000035264E+02 0.  0.
         12    1    1    2    0    0  0.46326001258E+01 -0.15566605529E+01 -0.18077443947E+02  0.18726402635E+02  0.00000000000E+00 0. -1.
         11    1    3    3    0    0  0.38230339843E+01  0.20148358466E+01 -0.77676306728E+00  0.43907304014E+01  0.51100000000E-03 0. -1.
        -11    1    3    3    0    0  0.10937037195E+02 -0.13556533546E+02  0.35371131690E+02  0.39427342564E+02  0.51100000000E-03 0.  1.
         12    1    3    3    0    0 -0.19392671305E+02  0.13098358253E+02 -0.16516924676E+02  0.28643524399E+02  0.00000000000E+00 0. -1.
</event>
<event>
 7    1  0.3162486E-013  0.7246152E+02  0.7816164E-02  0.1226708E+00
        -11   -1    0    0    0    0  0.00000000000E+00  0.00000000000E+00  0.45593999997E+02  0.45594000000E+02  0.51100000000E-03 0. -1.
         11   -1    0    0    0    0 -0.00000000000E+00 -0.00000000000E+00 -0.45593999997E+02  0.45594000000E+02  0.51100000000E-03 0.  1.
    9900012    2    1    2    0    0 -0.11202733885E+02 -0.11917520210E+02  0.91187984467E+01  0.72461520898E+02  0.69999935652E+02 0.  0.
         12    1    1    2    0    0  0.11202733885E+02  0.11917520210E+02 -0.91187984467E+01  0.18726479102E+02  0.00000000000E+00 0. -1.
         11    1    3    3    0    0 -0.10576259401E+02  0.16462066027E+02 -0.59574995498E+01  0.20453573818E+02  0.51100000000E-03 0. -1.
        -11    1    3    3    0    0 -0.15829784777E+02  0.41188818641E+00 -0.65293799995E+00  0.15848598243E+02  0.51100000000E-03 0.  1.
         12    1    3    3    0    0  0.15203310293E+02 -0.28791474423E+02  0.15729235996E+02  0.36159348837E+02  0.00000000000E+00 0. -1.
</event>
<event>
 7    1  0.3162486E-013  0.7246155E+02  0.7816164E-02  0.1226708E+00
        -11   -1    0    0    0    0  0.00000000000E+00  0.00000000000E+00  0.45593999997E+02  0.45594000000E+02  0.51100000000E-03 0.  1.
         11   -1    0    0    0    0 -0.00000000000E+00 -0.00000000000E+00 -0.45593999997E+02  0.45594000000E+02  0.51100000000E-03 0. -1.
    9900012    2    1    2    0    0  0.90577969850E+01  0.14544766736E+01  0.16325457663E+02  0.72461554621E+02  0.69999979583E+02 0.  0.
         12    1    1    2    0    0 -0.90577969850E+01 -0.14544766736E+01 -0.16325457663E+02  0.18726445379E+02  0.00000000000E+00 0. -1.
         11    1    3    3    0    0  0.43861910439E+01  0.10004317407E-01 -0.19909757242E+02  0.20387182386E+02  0.51100000000E-03 0. -1.
        -11    1    3    3    0    0 -0.84106471437E+01 -0.14064523614E+02  0.21329478495E+02  0.26897889564E+02  0.51100000000E-03 0.  1.
         12    1    3    3    0    0  0.13082253085E+02  0.15508995970E+02  0.14905736410E+02  0.25176482671E+02  0.00000000000E+00 0. -1.
</event>
<event>
 7    1  0.3162486E-013  0.7246170E+02  0.7816164E-02  0.1226708E+00
        -11   -1    0    0    0    0  0.00000000000E+00  0.00000000000E+00  0.45593999997E+02  0.45594000000E+02  0.51100000000E-03 0.  1.
         11   -1    0    0    0    0 -0.00000000000E+00 -0.00000000000E+00 -0.45593999997E+02  0.45594000000E+02  0.51100000000E-03 0. -1.
    9900012    2    1    2    0    0  0.67664344952E+01 -0.17452839516E+02 -0.53666104784E+00  0.72461701700E+02  0.70000171180E+02 0.  0.
         12    1    1    2    0    0 -0.67664344952E+01  0.17452839516E+02  0.53666104784E+00  0.18726298300E+02  0.00000000000E+00 0. -1.
         11    1    3    3    0    0  0.24223826777E+02 -0.70434627036E+01  0.86477273355E+01  0.26668095899E+02  0.51100000000E-03 0.  1.
        -11    1    3    3    0    0  0.85735807591E+01  0.55011545295E+01 -0.11297857124E+02  0.15212184723E+02  0.51100000000E-03 0. -1.
        -12    1    3    3    0    0 -0.26030973041E+02 -0.15910531341E+02  0.21134687408E+01  0.30581421078E+02  0.00000000000E+00 0.  1.
</event>
<event>
 7    1  0.3162486E-013  0.7246159E+02  0.7816164E-02  0.1226708E+00
        -11   -1    0    0    0    0  0.00000000000E+00  0.00000000000E+00  0.45593999997E+02  0.45594000000E+02  0.51100000000E-03 0.  1.
         11   -1    0    0    0    0 -0.00000000000E+00 -0.00000000000E+00 -0.45593999997E+02  0.45594000000E+02  0.51100000000E-03 0. -1.
    9900012    2    1    2    0    0  0.11429269267E+02  0.55864286133E+00 -0.14823564617E+02  0.72461592289E+02  0.70000028652E+02 0.  0.
         12    1    1    2    0    0 -0.11429269267E+02 -0.55864286133E+00  0.14823564617E+02  0.18726407711E+02  0.00000000000E+00 0. -1.
         11    1    3    3    0    0  0.22009509836E+02  0.13646571902E+02 -0.32847983054E+02  0.41828667668E+02  0.51100000000E-03 0. -1.
        -11    1    3    3    0    0  0.33136806118E+01  0.87091744412E+00 -0.65544919558E+00  0.34883506562E+01  0.51100000000E-03 0.  1.
        -12    1    3    3    0    0 -0.13893921181E+02 -0.13958846484E+02  0.18679867633E+02  0.27144573965E+02  0.00000000000E+00 0.  1.
</event>
<event>
 7    1  0.3162486E-013  0.7246156E+02  0.7816164E-02  0.1226708E+00
        -11   -1    0    0    0    0  0.00000000000E+00  0.00000000000E+00  0.45593999997E+02  0.45594000000E+02  0.51100000000E-03 0. -1.
         11   -1    0    0    0    0 -0.00000000000E+00 -0.00000000000E+00 -0.45593999997E+02  0.45594000000E+02  0.51100000000E-03 0.  1.
    9900012    2    1    2    0    0 -0.59819145647E+01 -0.13759254530E+02  0.11206209012E+02  0.72461561271E+02  0.69999988245E+02 0.  0.
         12    1    1    2    0    0  0.59819145647E+01  0.13759254530E+02 -0.11206209012E+02  0.18726438729E+02  0.00000000000E+00 0. -1.
         11    1    3    3    0    0 -0.30056717422E+00 -0.49055218862E+01  0.14257404136E+02  0.15080718105E+02  0.51100000000E-03 0. -1.
        -11    1    3    3    0    0 -0.19165822070E+02 -0.27787760341E+02  0.10705290927E+01  0.33773279278E+02  0.51100000000E-03 0.  1.
         12    1    3    3    0    0  0.13484474680E+02  0.18934027697E+02 -0.41217242169E+01  0.23607563888E+02  0.00000000000E+00 0. -1.
</event>
<event>
 7    1  0.3162486E-013  0.7246158E+02  0.7816164E-02  0.1226708E+00
        -11   -1    0    0    0    0  0.00000000000E+00  0.00000000000E+00  0.45593999997E+02  0.45594000000E+02  0.51100000000E-03 0. -1.
         11   -1    0    0    0    0 -0.00000000000E+00 -0.00000000000E+00 -0.45593999997E+02  0.45594000000E+02  0.51100000000E-03 0.  1.
    9900012    2    1    2    0    0  0.17094031257E+02 -0.76356655598E+01 -0.41176042624E+00  0.72461579098E+02  0.70000011469E+02 0.  0.
         12    1    1    2    0    0 -0.17094031257E+02  0.76356655598E+01  0.41176042624E+00  0.18726420902E+02  0.00000000000E+00 0. -1.
         11    1    3    3    0    0  0.70156003903E+01 -0.30928874223E+02  0.19463501753E+02  0.37210775460E+02  0.51100000000E-03 0. -1.
        -11    1    3    3    0    0  0.95435792697E+00  0.83742009258E+00 -0.82884109827E+01  0.83850956073E+01  0.51100000000E-03 0.  1.
        -12    1    3    3    0    0  0.91240729394E+01  0.22455788571E+02 -0.11586851197E+02  0.26865708031E+02  0.00000000000E+00 0.  1.
</event>
<event>
 7    1  0.3162486E-013  0.7246157E+02  0.7816164E-02  0.1226708E+00
        -11   -1    0    0    0    0  0.00000000000E+00  0.00000000000E+00  0.45593999997E+02  0.45594000000E+02  0.51100000000E-03 0.  1.
         11   -1    0    0    0    0 -0.00000000000E+00 -0.00000000000E+00 -0.45593999997E+02  0.45594000000E+02  0.51100000000E-03 0. -1.
    9900012    2    1    2    0    0  0.24842400842E+01  0.10824685758E+02  0.15077593779E+02  0.72461572025E+02  0.70000002254E+02 0.  0.
         12    1    1    2    0    0 -0.24842400842E+01 -0.10824685758E+02 -0.15077593779E+02  0.18726427975E+02  0.00000000000E+00 0. -1.
         11    1    3    3    0    0 -0.70876186699E+01  0.15613763650E+02 -0.55660222262E+01  0.18027882777E+02  0.51100000000E-03 0. -1.
        -11    1    3    3    0    0 -0.61047313734E+01  0.18689462919E+02  0.16955754511E+02  0.25962692092E+02  0.51100000000E-03 0.  1.
        -12    1    3    3    0    0  0.15676590128E+02 -0.23478540811E+02  0.36878614938E+01  0.28470997156E+02  0.00000000000E+00 0.  1.
</event>
<event>
 7    1  0.3162486E-013  0.7246154E+02  0.7816164E-02  0.1226708E+00
        -11   -1    0    0    0    0  0.00000000000E+00  0.00000000000E+00  0.45593999997E+02  0.45594000000E+02  0.51100000000E-03 0. -1.
         11   -1    0    0    0    0 -0.00000000000E+00 -0.00000000000E+00 -0.45593999997E+02  0.45594000000E+02  0.51100000000E-03 0.  1.
    9900012    2    1    2    0    0 -0.12530498237E+02  0.13890366261E+02 -0.85121672722E+00  0.72461541957E+02  0.69999963085E+02 0.  0.
         12    1    1    2    0    0  0.12530498237E+02 -0.13890366261E+02  0.85121672722E+00  0.18726458043E+02  0.00000000000E+00 0. -1.
         11    1    3    3    0    0 -0.33175427119E+01 -0.48346741560E+01 -0.80561945314E+01  0.99640571270E+01  0.51100000000E-03 0. -1.
        -11    1    3    3    0    0  0.53403694930E+01 -0.13708764278E+02 -0.14654252103E+02  0.20765280381E+02  0.51100000000E-03 0.  1.
        -12    1    3    3    0    0 -0.14553325018E+02  0.32433804694E+02  0.21859229907E+02  0.41732204449E+02  0.00000000000E+00 0.  1.
</event>
<event>
 7    1  0.3162486E-013  0.7246157E+02  0.7816164E-02  0.1226708E+00
        -11   -1    0    0    0    0  0.00000000000E+00  0.00000000000E+00  0.45593999997E+02  0.45594000000E+02  0.51100000000E-03 0. -1.
         11   -1    0    0    0    0 -0.00000000000E+00 -0.00000000000E+00 -0.45593999997E+02  0.45594000000E+02  0.51100000000E-03 0.  1.
    9900012    2    1    2    0    0  0.17596822380E+02 -0.58982385743E+01  0.24983899902E+01  0.72461566044E+02  0.69999994463E+02 0.  0.
         12    1    1    2    0    0 -0.17596822380E+02  0.58982385743E+01 -0.24983899902E+01  0.18726433956E+02  0.00000000000E+00 0. -1.
         11    1    3    3    0    0  0.16408427058E+02 -0.17952136257E+02  0.24416491373E+01  0.24443349310E+02  0.51100000000E-03 0. -1.
        -11    1    3    3    0    0  0.15282817165E+02 -0.12096864005E+02 -0.35896392937E+01  0.19818782248E+02  0.51100000000E-03 0.  1.
        -12    1    3    3    0    0 -0.14094421843E+02  0.24150761688E+02  0.36463801466E+01  0.28199434487E+02  0.00000000000E+00 0.  1.
</event>
<event>
 7    1  0.3162486E-013  0.7246163E+02  0.7816164E-02  0.1226708E+00
        -11   -1    0    0    0    0  0.00000000000E+00  0.00000000000E+00  0.45593999997E+02  0.45594000000E+02  0.51100000000E-03 0. -1.
         11   -1    0    0    0    0 -0.00000000000E+00 -0.00000000000E+00 -0.45593999997E+02  0.45594000000E+02  0.51100000000E-03 0.  1.
    9900012    2    1    2    0    0 -0.70287840750E+00 -0.18700673395E+02 -0.68385956566E+00  0.72461631228E+02  0.70000079377E+02 0.  0.
         12    1    1    2    0    0  0.70287840750E+00  0.18700673395E+02  0.68385956566E+00  0.18726368772E+02  0.00000000000E+00 0. -1.
         11    1    3    3    0    0 -0.19499243222E+01  0.19244181599E+01 -0.47920881973E+01  0.55199365638E+01  0.51100000000E-03 0. -1.
        -11    1    3    3    0    0 -0.22806399752E+02 -0.17541521564E+02 -0.18155403016E+02  0.34021397787E+02  0.51100000000E-03 0.  1.
         12    1    3    3    0    0  0.24053445667E+02 -0.30835699910E+01  0.22263631647E+02  0.32920296877E+02  0.00000000000E+00 0. -1.
</event>
<event>
 7    1  0.3162486E-013  0.7246156E+02  0.7816164E-02  0.1226708E+00
        -11   -1    0    0    0    0  0.00000000000E+00  0.00000000000E+00  0.45593999997E+02  0.45594000000E+02  0.51100000000E-03 0.  1.
         11   -1    0    0    0    0 -0.00000000000E+00 -0.00000000000E+00 -0.45593999997E+02  0.45594000000E+02  0.51100000000E-03 0. -1.
    9900012    2    1    2    0    0 -0.12776945768E+02  0.10177542951E+02 -0.91567856034E+01  0.72461562905E+02  0.69999990374E+02 0.  0.
         12    1    1    2    0    0  0.12776945768E+02 -0.10177542951E+02  0.91567856034E+01  0.18726437095E+02  0.00000000000E+00 0. -1.
         11    1    3    3    0    0 -0.87472433325E+01  0.33776542345E+02  0.11232943697E+01  0.34908893841E+02  0.51100000000E-03 0. -1.
        -11    1    3    3    0    0 -0.97435215315E+01 -0.49434221005E+00  0.31152512473E+01  0.10241356192E+02  0.51100000000E-03 0.  1.
        -12    1    3    3    0    0  0.57138190958E+01 -0.23104657185E+02 -0.13395331220E+02  0.27311312872E+02  0.00000000000E+00 0.  1.
</event>
<event>
 7    1  0.3162486E-013  0.7246158E+02  0.7816164E-02  0.1226708E+00
        -11   -1    0    0    0    0  0.00000000000E+00  0.00000000000E+00  0.45593999997E+02  0.45594000000E+02  0.51100000000E-03 0. -1.
         11   -1    0    0    0    0 -0.00000000000E+00 -0.00000000000E+00 -0.45593999997E+02  0.45594000000E+02  0.51100000000E-03 0.  1.
    9900012    2    1    2    0    0 -0.20688671609E+01 -0.16942187458E+02 -0.77046127669E+01  0.72461575219E+02  0.70000006415E+02 0.  0.
         12    1    1    2    0    0  0.20688671609E+01  0.16942187458E+02  0.77046127669E+01  0.18726424781E+02  0.00000000000E+00 0. -1.
         11    1    3    3    0    0  0.28580562674E+01 -0.45712025652E+01 -0.17394580683E+02  0.18210870817E+02  0.51100000000E-03 0.  1.
        -11    1    3    3    0    0  0.17345617628E+02  0.68328390074E+01 -0.76042246743E+01  0.20134109688E+02  0.51100000000E-03 0. -1.
         12    1    3    3    0    0 -0.22272541056E+02 -0.19203823901E+02  0.17294192590E+02  0.34116594713E+02  0.00000000000E+00 0. -1.
</event>
<event>
 7    1  0.3162486E-013  0.7246168E+02  0.7816164E-02  0.1226708E+00
        -11   -1    0    0    0    0  0.00000000000E+00  0.00000000000E+00  0.45593999997E+02  0.45594000000E+02  0.51100000000E-03 0. -1.
         11   -1    0    0    0    0 -0.00000000000E+00 -0.00000000000E+00 -0.45593999997E+02  0.45594000000E+02  0.51100000000E-03 0.  1.
    9900012    2    1    2    0    0 -0.15879447846E+02  0.74213404167E+01  0.65910559660E+01  0.72461676917E+02  0.70000138895E+02 0.  0.
         12    1    1    2    0    0  0.15879447846E+02 -0.74213404167E+01 -0.65910559660E+01  0.18726323083E+02  0.00000000000E+00 0. -1.
         11    1    3    3    0    0  0.26439310512E+01  0.10461050423E+02  0.18346576056E+02  0.21284285297E+02  0.51100000000E-03 0. -1.
        -11    1    3    3    0    0  0.91753449257E+01  0.77931876928E+01  0.88962250578E+01  0.14968752435E+02  0.51100000000E-03 0.  1.
        -12    1    3    3    0    0 -0.27698723823E+02 -0.10832897700E+02 -0.20651745148E+02  0.36208639185E+02  0.00000000000E+00 0.  1.
</event>
<event>
 7    1  0.3162486E-013  0.7246159E+02  0.7816164E-02  0.1226708E+00
        -11   -1    0    0    0    0  0.00000000000E+00  0.00000000000E+00  0.45593999997E+02  0.45594000000E+02  0.51100000000E-03 0.  1.
         11   -1    0    0    0    0 -0.00000000000E+00 -0.00000000000E+00 -0.45593999997E+02  0.45594000000E+02  0.51100000000E-03 0. -1.
    9900012    2    1    2    0    0 -0.14267837208E+02 -0.11769323492E+02  0.29308879780E+01  0.72461594621E+02  0.70000031691E+02 0.  0.
         12    1    1    2    0    0  0.14267837208E+02  0.11769323492E+02 -0.29308879780E+01  0.18726405379E+02  0.00000000000E+00 0. -1.
         11    1    3    3    0    0  0.82156393988E+01 -0.66772071059E+01 -0.13267339227E+02  0.16973630015E+02  0.51100000000E-03 0. -1.
        -11    1    3    3    0    0 -0.33037328322E+02  0.41172156469E+01 -0.99945274037E+00  0.33307888456E+02  0.51100000000E-03 0.  1.
         12    1    3    3    0    0  0.10553851715E+02 -0.92093320333E+01  0.17197679946E+02  0.22180076150E+02  0.00000000000E+00 0. -1.
</event>
<event>
 7    1  0.3162486E-013  0.7246154E+02  0.7816164E-02  0.1226708E+00
        -11   -1    0    0    0    0  0.00000000000E+00  0.00000000000E+00  0.45593999997E+02  0.45594000000E+02  0.51100000000E-03 0. -1.
         11   -1    0    0    0    0 -0.00000000000E+00 -0.00000000000E+00 -0.45593999997E+02  0.45594000000E+02  0.51100000000E-03 0.  1.
    9900012    2    1    2    0    0  0.55057859116E+01 -0.13563314280E+01 -0.17847328302E+02  0.72461536347E+02  0.69999955777E+02 0.  0.
         12    1    1    2    0    0 -0.55057859116E+01  0.13563314280E+01  0.17847328302E+02  0.18726463653E+02  0.00000000000E+00 0. -1.
         11    1    3    3    0    0 -0.16765851002E+02  0.59411501964E+00  0.10658935811E+02  0.19876107399E+02  0.51100000000E-03 0. -1.
        -11    1    3    3    0    0 -0.32221600348E+01 -0.59011726619E+00  0.76513371912E+01  0.83230712331E+01  0.51100000000E-03 0.  1.
        -12    1    3    3    0    0  0.25493796948E+02 -0.13603291815E+01 -0.36157601304E+02  0.44262357714E+02  0.00000000000E+00 0.  1.
</event>
<event>
 7    1  0.3162486E-013  0.7246152E+02  0.7816164E-02  0.1226708E+00
        -11   -1    0    0    0    0  0.00000000000E+00  0.00000000000E+00  0.45593999997E+02  0.45594000000E+02  0.51100000000E-03 0.  1.
         11   -1    0    0    0    0 -0.00000000000E+00 -0.00000000000E+00 -0.45593999997E+02  0.45594000000E+02  0.51100000000E-03 0. -1.
    9900012    2    1    2    0    0 -0.12504060162E+02 -0.13646259478E+02 -0.28476805109E+01  0.72461516012E+02  0.69999929287E+02 0.  0.
         12    1    1    2    0    0  0.12504060162E+02  0.13646259478E+02  0.28476805109E+01  0.18726483988E+02  0.00000000000E+00 0. -1.
         11    1    3    3    0    0 -0.16019372130E+02 -0.18108786179E+00  0.54900635188E+01  0.16934989636E+02  0.51100000000E-03 0. -1.
        -11    1    3    3    0    0  0.15356602974E+01  0.27457653062E+01  0.21383616129E+02  0.21613803892E+02  0.51100000000E-03 0.  1.
        -12    1    3    3    0    0  0.19796516706E+01 -0.16210936922E+02 -0.29721360158E+02  0.33912722484E+02  0.00000000000E+00 0.  1.
</event>
<event>
 7    1  0.3162486E-013  0.7246154E+02  0.7816164E-02  0.1226708E+00
        -11   -1    0    0    0    0  0.00000000000E+00  0.00000000000E+00  0.45593999997E+02  0.45594000000E+02  0.51100000000E-03 0.  1.
         11   -1    0    0    0    0 -0.00000000000E+00 -0.00000000000E+00 -0.45593999997E+02  0.45594000000E+02  0.51100000000E-03 0. -1.
    9900012    2    1    2    0    0  0.75676152610E+01 -0.90327396597E+01  0.14554075811E+02  0.72461539864E+02  0.69999960359E+02 0.  0.
         12    1    1    2    0    0 -0.75676152610E+01  0.90327396597E+01 -0.14554075811E+02  0.18726460136E+02  0.00000000000E+00 0. -1.
         11    1    3    3    0    0 -0.11662752953E+02 -0.24443726599E+01  0.14779592086E+02  0.18985023219E+02  0.51100000000E-03 0. -1.
        -11    1    3    3    0    0 -0.79853984381E+00 -0.25527333261E+02  0.30333453153E+01  0.25719323345E+02  0.51100000000E-03 0.  1.
         12    1    3    3    0    0  0.20028908058E+02  0.18938966261E+02 -0.32588615902E+01  0.27757193300E+02  0.00000000000E+00 0. -1.
</event>
<event>
 7    1  0.3162486E-013  0.7246155E+02  0.7816164E-02  0.1226708E+00
        -11   -1    0    0    0    0  0.00000000000E+00  0.00000000000E+00  0.45593999997E+02  0.45594000000E+02  0.51100000000E-03 0.  1.
         11   -1    0    0    0    0 -0.00000000000E+00 -0.00000000000E+00 -0.45593999997E+02  0.45594000000E+02  0.51100000000E-03 0. -1.
    9900012    2    1    2    0    0 -0.12254348759E+01 -0.10818968239E+02  0.15235748554E+02  0.72461553504E+02  0.69999978127E+02 0.  0.
         12    1    1    2    0    0  0.12254348759E+01  0.10818968239E+02 -0.15235748554E+02  0.18726446496E+02  0.00000000000E+00 0. -1.
         11    1    3    3    0    0  0.37794088873E+00 -0.93272972440E+01 -0.22765792137E+01  0.96085444460E+01  0.51100000000E-03 0. -1.
        -11    1    3    3    0    0  0.13204256010E+02 -0.10755977234E+02  0.34508151975E+02  0.38481891534E+02  0.51100000000E-03 0.  1.
        -12    1    3    3    0    0 -0.14807631775E+02  0.92643062399E+01 -0.16995824207E+02  0.24371117524E+02  0.00000000000E+00 0.  1.
</event>
<event>
 7    1  0.3162486E-013  0.7246161E+02  0.7816164E-02  0.1226708E+00
        -11   -1    0    0    0    0  0.00000000000E+00  0.00000000000E+00  0.45593999997E+02  0.45594000000E+02  0.51100000000E-03 0. -1.
         11   -1    0    0    0    0 -0.00000000000E+00 -0.00000000000E+00 -0.45593999997E+02  0.45594000000E+02  0.51100000000E-03 0.  1.
    9900012    2    1    2    0    0  0.68380914277E+01 -0.10717318007E+02 -0.13749804603E+02  0.72461614170E+02  0.70000057156E+02 0.  0.
         12    1    1    2    0    0 -0.68380914277E+01  0.10717318007E+02  0.13749804603E+02  0.18726385830E+02  0.00000000000E+00 0. -1.
         11    1    3    3    0    0 -0.18185464679E+02 -0.20775070144E+02 -0.13509555594E+02  0.30737969317E+02  0.51100000000E-03 0. -1.
        -11    1    3    3    0    0 -0.65794060567E+01  0.53873849879E+01  0.41758520715E+01  0.94736604252E+01  0.51100000000E-03 0.  1.
        -12    1    3    3    0    0  0.31602962164E+02  0.46703671496E+01 -0.44161010805E+01  0.32249984428E+02  0.00000000000E+00 0.  1.
</event>
<event>
 7    1  0.3162486E-013  0.7246159E+02  0.7816164E-02  0.1226708E+00
        -11   -1    0    0    0    0  0.00000000000E+00  0.00000000000E+00  0.45593999997E+02  0.45594000000E+02  0.51100000000E-03 0. -1.
         11   -1    0    0    0    0 -0.00000000000E+00 -0.00000000000E+00 -0.45593999997E+02  0.45594000000E+02  0.51100000000E-03 0.  1.
    9900012    2    1    2    0    0  0.12481566556E+02 -0.79028193472E+01 -0.11508020697E+02  0.72461585563E+02  0.70000019890E+02 0.  0.
         12    1    1    2    0    0 -0.12481566556E+02  0.79028193472E+01  0.11508020697E+02  0.18726414437E+02  0.00000000000E+00 0. -1.
         11    1    3    3    0    0 -0.15303242414E+02 -0.14564246601E+02 -0.33009377345E+01  0.21382298699E+02  0.51100000000E-03 0. -1.
        -11    1    3    3    0    0  0.48814171885E+01 -0.10718002919E+02 -0.17296925012E+02  0.20925760093E+02  0.51100000000E-03 0.  1.
         12    1    3    3    0    0  0.22903391782E+02  0.17379430173E+02  0.90898420500E+01  0.30153526771E+02  0.00000000000E+00 0. -1.
</event>
<event>
 7    1  0.3162486E-013  0.7246165E+02  0.7816164E-02  0.1226708E+00
        -11   -1    0    0    0    0  0.00000000000E+00  0.00000000000E+00  0.45593999997E+02  0.45594000000E+02  0.51100000000E-03 0. -1.
         11   -1    0    0    0    0 -0.00000000000E+00 -0.00000000000E+00 -0.45593999997E+02  0.45594000000E+02  0.51100000000E-03 0.  1.
    9900012    2    1    2    0    0  0.14010520936E+01  0.12106407039E+02 -0.14217877467E+02  0.72461652838E+02  0.70000107528E+02 0.  0.
         12    1    1    2    0    0 -0.14010520936E+01 -0.12106407039E+02  0.14217877467E+02  0.18726347162E+02  0.00000000000E+00 0. -1.
         11    1    3    3    0    0 -0.14077560742E+02 -0.17168462917E+02  0.12456400704E+01  0.22237028912E+02  0.51100000000E-03 0. -1.
        -11    1    3    3    0    0 -0.41193622860E+01 -0.55324225096E+01  0.10937401980E+01  0.69837749355E+01  0.51100000000E-03 0.  1.
        -12    1    3    3    0    0  0.19597975122E+02  0.34807292466E+02 -0.16557257736E+02  0.43240848990E+02  0.00000000000E+00 0.  1.
</event>
<event>
 7    1  0.3162486E-013  0.7246170E+02  0.7816164E-02  0.1226708E+00
        -11   -1    0    0    0    0  0.00000000000E+00  0.00000000000E+00  0.45593999997E+02  0.45594000000E+02  0.51100000000E-03 0.  1.
         11   -1    0    0    0    0 -0.00000000000E+00 -0.00000000000E+00 -0.45593999997E+02  0.45594000000E+02  0.51100000000E-03 0. -1.
    9900012    2    1    2    0    0  0.16047991567E+02 -0.96485702923E+01  0.20358927961E+00  0.72461697893E+02  0.70000166220E+02 0.  0.
         12    1    1    2    0    0 -0.16047991567E+02  0.96485702923E+01 -0.20358927961E+00  0.18726302107E+02  0.00000000000E+00 0. -1.
         11    1    3    3    0    0  0.90511447173E+01  0.24728673692E+02  0.29056342008E+01  0.26492890247E+02  0.51100000000E-03 0. -1.
        -11    1    3    3    0    0 -0.45633184623E+01  0.36987692154E+01  0.11672174734E+01  0.59889202690E+01  0.51100000000E-03 0.  1.
         12    1    3    3    0    0  0.11560165312E+02 -0.38076013199E+02 -0.38692623945E+01  0.39979887377E+02  0.00000000000E+00 0. -1.
</event>
<event>
 7    1  0.3162486E-013  0.7246158E+02  0.7816164E-02  0.1226708E+00
        -11   -1    0    0    0    0  0.00000000000E+00  0.00000000000E+00  0.45593999997E+02  0.45594000000E+02  0.51100000000E-03 0.  1.
         11   -1    0    0    0    0 -0.00000000000E+00 -0.00000000000E+00 -0.45593999997E+02  0.45594000000E+02  0.51100000000E-03 0. -1.
    9900012    2    1    2    0    0  0.46474048152E+01 -0.18110362845E+02 -0.10465537608E+01  0.72461577793E+02  0.70000009768E+02 0.  0.
         12    1    1    2    0    0 -0.46474048152E+01  0.18110362845E+02  0.10465537608E+01  0.18726422207E+02  0.00000000000E+00 0. -1.
         11    1    3    3    0    0  0.14914142085E+01 -0.52538432064E+01 -0.31547121330E+02  0.32016371582E+02  0.51100000000E-03 0. -1.
        -11    1    3    3    0    0 -0.23234071732E+01 -0.10009754749E+02  0.10216438242E+01  0.10326527363E+02  0.51100000000E-03 0.  1.
        -12    1    3    3    0    0  0.54793977799E+01 -0.28467648902E+01  0.29478923745E+02  0.30118678848E+02  0.00000000000E+00 0.  1.
</event>
<event>
 7    1  0.3162486E-013  0.7246183E+02  0.7816164E-02  0.1226707E+00
        -11   -1    0    0    0    0  0.00000000000E+00  0.00000000000E+00  0.45593999997E+02  0.45594000000E+02  0.51100000000E-03 0. -1.
         11   -1    0    0    0    0 -0.00000000000E+00 -0.00000000000E+00 -0.45593999997E+02  0.45594000000E+02  0.51100000000E-03 0.  1.
    9900012    2    1    2    0    0 -0.11930774625E+02 -0.10056384908E+01 -0.14398432994E+02  0.72461826749E+02  0.70000334079E+02 0.  0.
         12    1    1    2    0    0  0.11930774625E+02  0.10056384908E+01  0.14398432994E+02  0.18726173251E+02  0.00000000000E+00 0. -1.
         11    1    3    3    0    0  0.40292698013E+01 -0.17687532092E+01  0.13981297440E+01  0.46171712215E+01  0.51100000000E-03 0. -1.
        -11    1    3    3    0    0 -0.18071857855E+02  0.15562696599E+02 -0.35711507384E+02  0.42943000963E+02  0.51100000000E-03 0.  1.
         12    1    3    3    0    0  0.21118134285E+01 -0.14799581881E+02  0.19914944646E+02  0.24901654565E+02  0.00000000000E+00 0. -1.
</event>
<event>
 7    1  0.3162486E-013  0.7246149E+02  0.7816164E-02  0.1226708E+00
        -11   -1    0    0    0    0  0.00000000000E+00  0.00000000000E+00  0.45593999997E+02  0.45594000000E+02  0.51100000000E-03 0. -1.
         11   -1    0    0    0    0 -0.00000000000E+00 -0.00000000000E+00 -0.45593999997E+02  0.45594000000E+02  0.51100000000E-03 0.  1.
    9900012    2    1    2    0    0 -0.10999948561E+00 -0.18725302814E+02 -0.18200964672E+00  0.72461489570E+02  0.69999894842E+02 0.  0.
         12    1    1    2    0    0  0.10999948561E+00  0.18725302814E+02  0.18200964672E+00  0.18726510430E+02  0.00000000000E+00 0. -1.
         11    1    3    3    0    0  0.16444712232E+02 -0.27694038504E+02  0.13734931676E+02  0.35014806546E+02  0.51100000000E-03 0. -1.
        -11    1    3    3    0    0 -0.30253863866E+01  0.11569582133E+02  0.58813278330E+01  0.13326597873E+02  0.51100000000E-03 0.  1.
        -12    1    3    3    0    0 -0.13529325331E+02 -0.26008464436E+01 -0.19798269155E+02  0.24120085151E+02  0.00000000000E+00 0.  1.
</event>
<event>
 7    1  0.3162486E-013  0.7246159E+02  0.7816164E-02  0.1226708E+00
        -11   -1    0    0    0    0  0.00000000000E+00  0.00000000000E+00  0.45593999997E+02  0.45594000000E+02  0.51100000000E-03 0.  1.
         11   -1    0    0    0    0 -0.00000000000E+00 -0.00000000000E+00 -0.45593999997E+02  0.45594000000E+02  0.51100000000E-03 0. -1.
    9900012    2    1    2    0    0 -0.18430367775E+02 -0.27954385134E+01  0.17848094210E+01  0.72461588772E+02  0.70000024071E+02 0.  0.
         12    1    1    2    0    0  0.18430367775E+02  0.27954385134E+01 -0.17848094210E+01  0.18726411228E+02  0.00000000000E+00 0. -1.
         11    1    3    3    0    0 -0.15701945901E+02 -0.52951455885E+00 -0.11814892510E+02  0.19657649300E+02  0.51100000000E-03 0. -1.
        -11    1    3    3    0    0 -0.22604141154E+01 -0.20613138146E+02 -0.99064536645E+01  0.22981487347E+02  0.51100000000E-03 0.  1.
         12    1    3    3    0    0 -0.46800775872E+00  0.18347214192E+02  0.23506155595E+02  0.29822452125E+02  0.00000000000E+00 0. -1.
</event>
<event>
 7    1  0.3162486E-013  0.7246159E+02  0.7816164E-02  0.1226708E+00
        -11   -1    0    0    0    0  0.00000000000E+00  0.00000000000E+00  0.45593999997E+02  0.45594000000E+02  0.51100000000E-03 0. -1.
         11   -1    0    0    0    0 -0.00000000000E+00 -0.00000000000E+00 -0.45593999997E+02  0.45594000000E+02  0.51100000000E-03 0.  1.
    9900012    2    1    2    0    0  0.35507173667E+01  0.10809389902E+02 -0.14873733347E+02  0.72461589571E+02  0.70000025111E+02 0.  0.
         12    1    1    2    0    0 -0.35507173667E+01 -0.10809389902E+02  0.14873733347E+02  0.18726410429E+02  0.00000000000E+00 0. -1.
         11    1    3    3    0    0 -0.50559482965E-01 -0.98529281718E+01 -0.14009759271E+01  0.99521597470E+01  0.51100000000E-03 0. -1.
        -11    1    3    3    0    0 -0.25492766088E+02  0.39306465300E+01  0.13291917187E+01  0.25828237567E+02  0.51100000000E-03 0.  1.
        -12    1    3    3    0    0  0.29094042937E+02  0.16731671544E+02 -0.14801949139E+02  0.36681192257E+02  0.00000000000E+00 0.  1.
</event>
<event>
 7    1  0.3162486E-013  0.7246157E+02  0.7816164E-02  0.1226708E+00
        -11   -1    0    0    0    0  0.00000000000E+00  0.00000000000E+00  0.45593999997E+02  0.45594000000E+02  0.51100000000E-03 0.  1.
         11   -1    0    0    0    0 -0.00000000000E+00 -0.00000000000E+00 -0.45593999997E+02  0.45594000000E+02  0.51100000000E-03 0. -1.
    9900012    2    1    2    0    0  0.69613007580E+01  0.68612856387E+01  0.15973172125E+02  0.72461570105E+02  0.69999999754E+02 0.  0.
         12    1    1    2    0    0 -0.69613007580E+01 -0.68612856387E+01 -0.15973172125E+02  0.18726429895E+02  0.00000000000E+00 0. -1.
         11    1    3    3    0    0  0.30607018199E+02  0.57006909332E+01 -0.57526291907E+01  0.31660388232E+02  0.51100000000E-03 0. -1.
        -11    1    3    3    0    0 -0.44019823346E+01  0.46564232331E+01 -0.46842153368E+01  0.79373546842E+01  0.51100000000E-03 0.  1.
        -12    1    3    3    0    0 -0.19243735106E+02 -0.34958285276E+01  0.26410016653E+02  0.32863827189E+02  0.00000000000E+00 0.  1.
</event>
<event>
 7    1  0.3162486E-013  0.7246159E+02  0.7816164E-02  0.1226708E+00
        -11   -1    0    0    0    0  0.00000000000E+00  0.00000000000E+00  0.45593999997E+02  0.45594000000E+02  0.51100000000E-03 0.  1.
         11   -1    0    0    0    0 -0.00000000000E+00 -0.00000000000E+00 -0.45593999997E+02  0.45594000000E+02  0.51100000000E-03 0. -1.
    9900012    2    1    2    0    0  0.42490717228E+01  0.18012546409E+02 -0.28586968625E+01  0.72461585864E+02  0.70000020283E+02 0.  0.
         12    1    1    2    0    0 -0.42490717228E+01 -0.18012546409E+02  0.28586968625E+01  0.18726414136E+02  0.00000000000E+00 0. -1.
         11    1    3    3    0    0 -0.44613314936E+01  0.37343030591E+01  0.83081651995E+01  0.10142687379E+02  0.51100000000E-03 0. -1.
        -11    1    3    3    0    0  0.20929929924E+02  0.32100556690E+02 -0.74603855455E+00  0.38328374349E+02  0.51100000000E-03 0.  1.
         12    1    3    3    0    0 -0.12219526708E+02 -0.17822313340E+02 -0.10420823507E+02  0.23990524136E+02  0.00000000000E+00 0. -1.
</event>
<event>
 7    1  0.3162486E-013  0.7246166E+02  0.7816164E-02  0.1226708E+00
        -11   -1    0    0    0    0  0.00000000000E+00  0.00000000000E+00  0.45593999997E+02  0.45594000000E+02  0.51100000000E-03 0.  1.
         11   -1    0    0    0    0 -0.00000000000E+00 -0.00000000000E+00 -0.45593999997E+02  0.45594000000E+02  0.51100000000E-03 0. -1.
    9900012    2    1    2    0    0  0.11324000929E+01 -0.59034878543E+01  0.17735343255E+02  0.72461657614E+02  0.70000113749E+02 0.  0.
         12    1    1    2    0    0 -0.11324000929E+01  0.59034878543E+01 -0.17735343255E+02  0.18726342386E+02  0.00000000000E+00 0. -1.
         11    1    3    3    0    0  0.33651304232E+01 -0.60373811392E+01 -0.17885266120E+02  0.19174379213E+02  0.51100000000E-03 0. -1.
        -11    1    3    3    0    0  0.15709642136E+02  0.67740657556E+01  0.62070459927E+01  0.18199127538E+02  0.51100000000E-03 0.  1.
        -12    1    3    3    0    0 -0.17942372466E+02 -0.66401724707E+01  0.29413563382E+02  0.35088150863E+02  0.00000000000E+00 0.  1.
</event>
<event>
 7    1  0.3162486E-013  0.7246158E+02  0.7816164E-02  0.1226708E+00
        -11   -1    0    0    0    0  0.00000000000E+00  0.00000000000E+00  0.45593999997E+02  0.45594000000E+02  0.51100000000E-03 0. -1.
         11   -1    0    0    0    0 -0.00000000000E+00 -0.00000000000E+00 -0.45593999997E+02  0.45594000000E+02  0.51100000000E-03 0.  1.
    9900012    2    1    2    0    0  0.14733779046E+02 -0.62609392669E+01 -0.97157154401E+01  0.72461581976E+02  0.70000015218E+02 0.  0.
         12    1    1    2    0    0 -0.14733779046E+02  0.62609392669E+01  0.97157154401E+01  0.18726418024E+02  0.00000000000E+00 0. -1.
         11    1    3    3    0    0  0.20063388484E+02 -0.18741188157E+02 -0.13743080046E+02  0.30702507071E+02  0.51100000000E-03 0.  1.
        -11    1    3    3    0    0  0.11287413741E+02 -0.63765351056E+01 -0.65088798213E+01  0.14506254710E+02  0.51100000000E-03 0. -1.
         12    1    3    3    0    0 -0.16617023179E+02  0.18856783996E+02  0.10536244427E+02  0.27252820196E+02  0.00000000000E+00 0. -1.
</event>
<event>
 7    1  0.3162486E-013  0.7246158E+02  0.7816164E-02  0.1226708E+00
        -11   -1    0    0    0    0  0.00000000000E+00  0.00000000000E+00  0.45593999997E+02  0.45594000000E+02  0.51100000000E-03 0.  1.
         11   -1    0    0    0    0 -0.00000000000E+00 -0.00000000000E+00 -0.45593999997E+02  0.45594000000E+02  0.51100000000E-03 0. -1.
    9900012    2    1    2    0    0 -0.99022189086E+00 -0.99259363600E+01  0.15848472281E+02  0.72461579476E+02  0.70000011960E+02 0.  0.
         12    1    1    2    0    0  0.99022189086E+00  0.99259363600E+01 -0.15848472281E+02  0.18726420524E+02  0.00000000000E+00 0. -1.
         11    1    3    3    0    0  0.10369680780E+02  0.17413075730E+02  0.92923954165E+01  0.22295607161E+02  0.51100000000E-03 0. -1.
        -11    1    3    3    0    0 -0.13979989581E+02  0.53414228420E+01  0.86998859167E+01  0.17310659198E+02  0.51100000000E-03 0.  1.
         12    1    3    3    0    0  0.26200869104E+01 -0.32680434932E+02 -0.21438090524E+01  0.32855313117E+02  0.00000000000E+00 0. -1.
</event>
<event>
 7    1  0.3162486E-013  0.7246150E+02  0.7816164E-02  0.1226708E+00
        -11   -1    0    0    0    0  0.00000000000E+00  0.00000000000E+00  0.45593999997E+02  0.45594000000E+02  0.51100000000E-03 0. -1.
         11   -1    0    0    0    0 -0.00000000000E+00 -0.00000000000E+00 -0.45593999997E+02  0.45594000000E+02  0.51100000000E-03 0.  1.
    9900012    2    1    2    0    0 -0.61156948076E+01 -0.96350751753E+01 -0.14847408729E+02  0.72461496253E+02  0.69999903547E+02 0.  0.
         12    1    1    2    0    0  0.61156948076E+01  0.96350751753E+01  0.14847408729E+02  0.18726503747E+02  0.00000000000E+00 0. -1.
         11    1    3    3    0    0 -0.79168817146E+01  0.12547371611E+02 -0.20798396335E+02  0.25547736510E+02  0.51100000000E-03 0.  1.
        -11    1    3    3    0    0 -0.15647957328E+02 -0.23428276212E+02 -0.74288561067E+00  0.28183232144E+02  0.51100000000E-03 0. -1.
         12    1    3    3    0    0  0.17449144235E+02  0.12458294253E+01  0.66938732161E+01  0.18730527598E+02  0.00000000000E+00 0. -1.
</event>
<event>
 7    1  0.3162486E-013  0.7246157E+02  0.7816164E-02  0.1226708E+00
        -11   -1    0    0    0    0  0.00000000000E+00  0.00000000000E+00  0.45593999997E+02  0.45594000000E+02  0.51100000000E-03 0.  1.
         11   -1    0    0    0    0 -0.00000000000E+00 -0.00000000000E+00 -0.45593999997E+02  0.45594000000E+02  0.51100000000E-03 0. -1.
    9900012    2    1    2    0    0 -0.90168363501E+01  0.13462846125E+01  0.16357363837E+02  0.72461570235E+02  0.69999999923E+02 0.  0.
         12    1    1    2    0    0  0.90168363501E+01 -0.13462846125E+01 -0.16357363837E+02  0.18726429765E+02  0.00000000000E+00 0. -1.
         11    1    3    3    0    0 -0.10865494073E+02 -0.22899884131E+02  0.24935557074E+02  0.35556232387E+02  0.51100000000E-03 0. -1.
        -11    1    3    3    0    0 -0.89486663454E+01  0.73197628327E+00 -0.62217291532E+01  0.10923567758E+02  0.51100000000E-03 0.  1.
        -12    1    3    3    0    0  0.10797324068E+02  0.23514192460E+02 -0.23564640837E+01  0.25981770091E+02  0.00000000000E+00 0.  1.
</event>
<event>
 7    1  0.3162486E-013  0.7246158E+02  0.7816164E-02  0.1226708E+00
        -11   -1    0    0    0    0  0.00000000000E+00  0.00000000000E+00  0.45593999997E+02  0.45594000000E+02  0.51100000000E-03 0.  1.
         11   -1    0    0    0    0 -0.00000000000E+00 -0.00000000000E+00 -0.45593999997E+02  0.45594000000E+02  0.51100000000E-03 0. -1.
    9900012    2    1    2    0    0  0.73572153124E+01  0.12564599087E+02  0.11776290866E+02  0.72461580322E+02  0.70000013063E+02 0.  0.
         12    1    1    2    0    0 -0.73572153124E+01 -0.12564599087E+02 -0.11776290866E+02  0.18726419678E+02  0.00000000000E+00 0. -1.
         11    1    3    3    0    0 -0.26682663400E+02  0.44978771230E+01  0.14102645850E+02  0.30513604261E+02  0.51100000000E-03 0. -1.
        -11    1    3    3    0    0 -0.31511407293E+01 -0.25137821601E+00  0.17626418259E+01  0.36193625642E+01  0.51100000000E-03 0.  1.
        -12    1    3    3    0    0  0.37191019442E+02  0.83181001803E+01 -0.40889968095E+01  0.38328613498E+02  0.00000000000E+00 0.  1.
</event>
<event>
 7    1  0.3162486E-013  0.7246159E+02  0.7816164E-02  0.1226708E+00
        -11   -1    0    0    0    0  0.00000000000E+00  0.00000000000E+00  0.45593999997E+02  0.45594000000E+02  0.51100000000E-03 0.  1.
         11   -1    0    0    0    0 -0.00000000000E+00 -0.00000000000E+00 -0.45593999997E+02  0.45594000000E+02  0.51100000000E-03 0. -1.
    9900012    2    1    2    0    0  0.15074892852E+01 -0.72330789746E+00  0.18651611890E+02  0.72461592860E+02  0.70000029396E+02 0.  0.
         12    1    1    2    0    0 -0.15074892852E+01  0.72330789746E+00 -0.18651611890E+02  0.18726407140E+02  0.00000000000E+00 0. -1.
         11    1    3    3    0    0  0.31349917546E+02 -0.12761360256E+01 -0.58088224090E+01  0.31909062527E+02  0.51100000000E-03 0. -1.
        -11    1    3    3    0    0 -0.40420290254E+01 -0.35340571197E+01  0.81399026610E+01  0.97511832082E+01  0.51100000000E-03 0.  1.
        -12    1    3    3    0    0 -0.25800399236E+02  0.40868852478E+01  0.16320531638E+02  0.30801347125E+02  0.00000000000E+00 0.  1.
</event>
<event>
 7    1  0.3162486E-013  0.7246164E+02  0.7816164E-02  0.1226708E+00
        -11   -1    0    0    0    0  0.00000000000E+00  0.00000000000E+00  0.45593999997E+02  0.45594000000E+02  0.51100000000E-03 0. -1.
         11   -1    0    0    0    0 -0.00000000000E+00 -0.00000000000E+00 -0.45593999997E+02  0.45594000000E+02  0.51100000000E-03 0.  1.
    9900012    2    1    2    0    0 -0.20321028720E+00  0.18662101997E+02 -0.15365883645E+01  0.72461642929E+02  0.70000094619E+02 0.  0.
         12    1    1    2    0    0  0.20321028720E+00 -0.18662101997E+02  0.15365883645E+01  0.18726357071E+02  0.00000000000E+00 0. -1.
         11    1    3    3    0    0  0.25170603095E+02  0.24496694191E+02  0.34905230753E+01  0.35296331793E+02  0.51100000000E-03 0. -1.
        -11    1    3    3    0    0 -0.10260618592E+02  0.74562181334E+01  0.62018783636E+01  0.14118738550E+02  0.51100000000E-03 0.  1.
        -12    1    3    3    0    0 -0.15113194790E+02 -0.13290810328E+02 -0.11228989803E+02  0.23046572585E+02  0.00000000000E+00 0.  1.
</event>
<event>
 7    1  0.3162486E-013  0.7246147E+02  0.7816164E-02  0.1226708E+00
        -11   -1    0    0    0    0  0.00000000000E+00  0.00000000000E+00  0.45593999997E+02  0.45594000000E+02  0.51100000000E-03 0.  1.
         11   -1    0    0    0    0 -0.00000000000E+00 -0.00000000000E+00 -0.45593999997E+02  0.45594000000E+02  0.51100000000E-03 0. -1.
    9900012    2    1    2    0    0 -0.29338028236E+01  0.16731865586E+02  0.78816390164E+01  0.72461474466E+02  0.69999875165E+02 0.  0.
         12    1    1    2    0    0  0.29338028236E+01 -0.16731865586E+02 -0.78816390164E+01  0.18726525534E+02  0.00000000000E+00 0. -1.
         11    1    3    3    0    0 -0.25851983774E+02  0.99567122928E+01  0.31391241365E+01  0.27880374555E+02  0.51100000000E-03 0.  1.
        -11    1    3    3    0    0  0.47766277127E+01  0.85723137045E+01 -0.14862400294E+02  0.17809875837E+02  0.51100000000E-03 0. -1.
        -12    1    3    3    0    0  0.18141553238E+02 -0.17971604113E+01  0.19604915174E+02  0.26771224074E+02  0.00000000000E+00 0.  1.
</event>
<event>
 7    1  0.3162486E-013  0.7246155E+02  0.7816164E-02  0.1226708E+00
        -11   -1    0    0    0    0  0.00000000000E+00  0.00000000000E+00  0.45593999997E+02  0.45594000000E+02  0.51100000000E-03 0. -1.
         11   -1    0    0    0    0 -0.00000000000E+00 -0.00000000000E+00 -0.45593999997E+02  0.45594000000E+02  0.51100000000E-03 0.  1.
    9900012    2    1    2    0    0  0.20869049687E+01  0.10084118907E+02 -0.15640818631E+02  0.72461552555E+02  0.69999976891E+02 0.  0.
         12    1    1    2    0    0 -0.20869049687E+01 -0.10084118907E+02  0.15640818631E+02  0.18726447445E+02  0.00000000000E+00 0. -1.
         11    1    3    3    0    0 -0.48082350479E+01 -0.10563684760E+02  0.46733806806E+01  0.12512036094E+02  0.51100000000E-03 0. -1.
        -11    1    3    3    0    0 -0.71874795831E+01 -0.14888333731E+02  0.27006043596E+00  0.16534668940E+02  0.51100000000E-03 0.  1.
         12    1    3    3    0    0  0.14082619600E+02  0.35536137398E+02 -0.20584259747E+02  0.43414847521E+02  0.00000000000E+00 0. -1.
</event>
<event>
 7    1  0.3162486E-013  0.7246163E+02  0.7816164E-02  0.1226708E+00
        -11   -1    0    0    0    0  0.00000000000E+00  0.00000000000E+00  0.45593999997E+02  0.45594000000E+02  0.51100000000E-03 0. -1.
         11   -1    0    0    0    0 -0.00000000000E+00 -0.00000000000E+00 -0.45593999997E+02  0.45594000000E+02  0.51100000000E-03 0.  1.
    9900012    2    1    2    0    0 -0.15638770921E+01  0.79325725139E+01  0.16890983703E+02  0.72461634931E+02  0.70000084201E+02 0.  0.
         12    1    1    2    0    0  0.15638770921E+01 -0.79325725139E+01 -0.16890983703E+02  0.18726365069E+02  0.00000000000E+00 0. -1.
         11    1    3    3    0    0  0.68681648852E+01  0.10744108554E+01  0.22527436944E+02  0.23575654034E+02  0.51100000000E-03 0. -1.
        -11    1    3    3    0    0 -0.10741971904E+02  0.21706528443E+02  0.10885129873E+02  0.26552766147E+02  0.51100000000E-03 0.  1.
        -12    1    3    3    0    0  0.23099299269E+01 -0.14848366785E+02 -0.16521583115E+02  0.22333214750E+02  0.00000000000E+00 0.  1.
</event>
<event>
 7    1  0.3162486E-013  0.7246156E+02  0.7816164E-02  0.1226708E+00
        -11   -1    0    0    0    0  0.00000000000E+00  0.00000000000E+00  0.45593999997E+02  0.45594000000E+02  0.51100000000E-03 0. -1.
         11   -1    0    0    0    0 -0.00000000000E+00 -0.00000000000E+00 -0.45593999997E+02  0.45594000000E+02  0.51100000000E-03 0.  1.
    9900012    2    1    2    0    0 -0.31128380902E+01 -0.17588256820E+02 -0.56252234352E+01  0.72461556728E+02  0.69999982327E+02 0.  0.
         12    1    1    2    0    0  0.31128380902E+01  0.17588256820E+02  0.56252234352E+01  0.18726443272E+02  0.00000000000E+00 0. -1.
         11    1    3    3    0    0 -0.30218826942E+01  0.51363295090E+01 -0.14222488875E+01  0.61266996010E+01  0.51100000000E-03 0. -1.
        -11    1    3    3    0    0 -0.17859532800E+02 -0.55486471295E+01 -0.26912279509E+02  0.32772262440E+02  0.51100000000E-03 0.  1.
         12    1    3    3    0    0  0.17768577404E+02 -0.17175939199E+02  0.22709304961E+02  0.33562594687E+02  0.00000000000E+00 0. -1.
</event>
<event>
 7    1  0.3162486E-013  0.7246156E+02  0.7816164E-02  0.1226708E+00
        -11   -1    0    0    0    0  0.00000000000E+00  0.00000000000E+00  0.45593999997E+02  0.45594000000E+02  0.51100000000E-03 0. -1.
         11   -1    0    0    0    0 -0.00000000000E+00 -0.00000000000E+00 -0.45593999997E+02  0.45594000000E+02  0.51100000000E-03 0.  1.
    9900012    2    1    2    0    0 -0.11046901702E+02  0.15058179478E+02 -0.13772713976E+01  0.72461556586E+02  0.69999982143E+02 0.  0.
         12    1    1    2    0    0  0.11046901702E+02 -0.15058179478E+02  0.13772713976E+01  0.18726443414E+02  0.00000000000E+00 0. -1.
         11    1    3    3    0    0  0.72328734577E+01  0.15111972359E+01  0.23061197261E+02  0.24216048292E+02  0.51100000000E-03 0. -1.
        -11    1    3    3    0    0  0.90071755130E+01  0.23176033422E+01 -0.14273985893E+02  0.17036641967E+02  0.51100000000E-03 0.  1.
         12    1    3    3    0    0 -0.27286950673E+02  0.11229378900E+02 -0.10164482765E+02  0.31208866327E+02  0.00000000000E+00 0. -1.
</event>
<event>
 7    1  0.3162486E-013  0.7246158E+02  0.7816164E-02  0.1226708E+00
        -11   -1    0    0    0    0  0.00000000000E+00  0.00000000000E+00  0.45593999997E+02  0.45594000000E+02  0.51100000000E-03 0.  1.
         11   -1    0    0    0    0 -0.00000000000E+00 -0.00000000000E+00 -0.45593999997E+02  0.45594000000E+02  0.51100000000E-03 0. -1.
    9900012    2    1    2    0    0  0.60579803092E+01 -0.79093735717E+01  0.15856275726E+02  0.72461580277E+02  0.70000013004E+02 0.  0.
         12    1    1    2    0    0 -0.60579803092E+01  0.79093735717E+01 -0.15856275726E+02  0.18726419723E+02  0.00000000000E+00 0. -1.
         11    1    3    3    0    0 -0.15551990610E+02  0.87107472138E+01  0.28688177742E+01  0.18054684839E+02  0.51100000000E-03 0. -1.
        -11    1    3    3    0    0 -0.12997698813E+02 -0.46170577051E+01 -0.35102587531E+01  0.14233035975E+02  0.51100000000E-03 0.  1.
         12    1    3    3    0    0  0.34607669733E+02 -0.12003063080E+02  0.16497716705E+02  0.40173859463E+02  0.00000000000E+00 0. -1.
</event>
<event>
 7    1  0.3162486E-013  0.7246156E+02  0.7816164E-02  0.1226708E+00
        -11   -1    0    0    0    0  0.00000000000E+00  0.00000000000E+00  0.45593999997E+02  0.45594000000E+02  0.51100000000E-03 0. -1.
         11   -1    0    0    0    0 -0.00000000000E+00 -0.00000000000E+00 -0.45593999997E+02  0.45594000000E+02  0.51100000000E-03 0.  1.
    9900012    2    1    2    0    0 -0.63347389899E+01 -0.89014513495E+01  0.15209036997E+02  0.72461559853E+02  0.69999986398E+02 0.  0.
         12    1    1    2    0    0  0.63347389899E+01  0.89014513495E+01 -0.15209036997E+02  0.18726440147E+02  0.00000000000E+00 0. -1.
         11    1    3    3    0    0  0.35820103976E+01  0.11393702553E+02  0.43214971430E+00  0.11951318337E+02  0.51100000000E-03 0. -1.
        -11    1    3    3    0    0 -0.31101996803E+02 -0.14194651650E+02  0.17307548902E+02  0.38319363119E+02  0.51100000000E-03 0.  1.
         12    1    3    3    0    0  0.21185247416E+02 -0.61005022523E+01 -0.25306616191E+01  0.22190878397E+02  0.00000000000E+00 0. -1.
</event>
<event>
 7    1  0.3162486E-013  0.7246159E+02  0.7816164E-02  0.1226708E+00
        -11   -1    0    0    0    0  0.00000000000E+00  0.00000000000E+00  0.45593999997E+02  0.45594000000E+02  0.51100000000E-03 0.  1.
         11   -1    0    0    0    0 -0.00000000000E+00 -0.00000000000E+00 -0.45593999997E+02  0.45594000000E+02  0.51100000000E-03 0. -1.
    9900012    2    1    2    0    0  0.11645582910E+02  0.14600123840E+02 -0.13767318442E+01  0.72461585286E+02  0.70000019530E+02 0.  0.
         12    1    1    2    0    0 -0.11645582910E+02 -0.14600123840E+02  0.13767318442E+01  0.18726414714E+02  0.00000000000E+00 0. -1.
         11    1    3    3    0    0 -0.15835937987E+01  0.11796713913E+02  0.14086619992E+02  0.18441884164E+02  0.51100000000E-03 0. -1.
        -11    1    3    3    0    0  0.24433003622E+02  0.19698917717E+02 -0.77376531990E+01  0.32324762993E+02  0.51100000000E-03 0.  1.
         12    1    3    3    0    0 -0.11203826913E+02 -0.16895507791E+02 -0.77256986375E+01  0.21694938129E+02  0.00000000000E+00 0. -1.
</event>
<event>
 7    1  0.3162486E-013  0.7246155E+02  0.7816164E-02  0.1226708E+00
        -11   -1    0    0    0    0  0.00000000000E+00  0.00000000000E+00  0.45593999997E+02  0.45594000000E+02  0.51100000000E-03 0.  1.
         11   -1    0    0    0    0 -0.00000000000E+00 -0.00000000000E+00 -0.45593999997E+02  0.45594000000E+02  0.51100000000E-03 0. -1.
    9900012    2    1    2    0    0  0.13269109367E+01  0.85150217889E+01  0.16625690696E+02  0.72461551330E+02  0.69999975295E+02 0.  0.
         12    1    1    2    0    0 -0.13269109367E+01 -0.85150217889E+01 -0.16625690696E+02  0.18726448670E+02  0.00000000000E+00 0. -1.
         11    1    3    3    0    0  0.63163094044E+01 -0.51950493791E+01  0.19745863810E+02  0.21372492611E+02  0.51100000000E-03 0. -1.
        -11    1    3    3    0    0  0.18033493162E+02 -0.59340249153E+01  0.52332870160E+01  0.19692811394E+02  0.51100000000E-03 0.  1.
         12    1    3    3    0    0 -0.23022891630E+02  0.19644096083E+02 -0.83534601302E+01  0.31396247325E+02  0.00000000000E+00 0. -1.
</event>
<event>
 7    1  0.3162486E-013  0.7246164E+02  0.7816164E-02  0.1226708E+00
        -11   -1    0    0    0    0  0.00000000000E+00  0.00000000000E+00  0.45593999997E+02  0.45594000000E+02  0.51100000000E-03 0. -1.
         11   -1    0    0    0    0 -0.00000000000E+00 -0.00000000000E+00 -0.45593999997E+02  0.45594000000E+02  0.51100000000E-03 0.  1.
    9900012    2    1    2    0    0  0.15775809844E+02 -0.35866343521E+01 -0.94306193244E+01  0.72461636150E+02  0.70000085789E+02 0.  0.
         12    1    1    2    0    0 -0.15775809844E+02  0.35866343521E+01  0.94306193244E+01  0.18726363850E+02  0.00000000000E+00 0. -1.
         11    1    3    3    0    0 -0.74698426899E+01  0.25282106831E+01 -0.73885786888E+01  0.10806548680E+02  0.51100000000E-03 0. -1.
        -11    1    3    3    0    0 -0.90654471092E+01  0.15899015578E+02 -0.11256362532E+02  0.21486431191E+02  0.51100000000E-03 0.  1.
         12    1    3    3    0    0  0.32311099643E+02 -0.22013860613E+02  0.92143218963E+01  0.40168656279E+02  0.00000000000E+00 0. -1.
</event>
<event>
 7    1  0.3162486E-013  0.7246155E+02  0.7816164E-02  0.1226708E+00
        -11   -1    0    0    0    0  0.00000000000E+00  0.00000000000E+00  0.45593999997E+02  0.45594000000E+02  0.51100000000E-03 0.  1.
         11   -1    0    0    0    0 -0.00000000000E+00 -0.00000000000E+00 -0.45593999997E+02  0.45594000000E+02  0.51100000000E-03 0. -1.
    9900012    2    1    2    0    0 -0.43034264886E+01 -0.54857801377E+01  0.17380067347E+02  0.72461548007E+02  0.69999970966E+02 0.  0.
         12    1    1    2    0    0  0.43034264886E+01  0.54857801377E+01 -0.17380067347E+02  0.18726451993E+02  0.00000000000E+00 0. -1.
         11    1    3    3    0    0 -0.52096016948E+01 -0.86399734687E+01 -0.84878883270E+01  0.13184587209E+02  0.51100000000E-03 0. -1.
        -11    1    3    3    0    0  0.16909071411E+02 -0.19347486790E+02  0.13424918234E+02  0.28990867026E+02  0.51100000000E-03 0.  1.
        -12    1    3    3    0    0 -0.16002896205E+02  0.22501680121E+02  0.12443037440E+02  0.30286093772E+02  0.00000000000E+00 0.  1.
</event>
<event>
 7    1  0.3162486E-013  0.7246156E+02  0.7816164E-02  0.1226708E+00
        -11   -1    0    0    0    0  0.00000000000E+00  0.00000000000E+00  0.45593999997E+02  0.45594000000E+02  0.51100000000E-03 0. -1.
         11   -1    0    0    0    0 -0.00000000000E+00 -0.00000000000E+00 -0.45593999997E+02  0.45594000000E+02  0.51100000000E-03 0.  1.
    9900012    2    1    2    0    0  0.18329720499E+02  0.53512430266E+00 -0.37966567446E+01  0.72461558426E+02  0.69999984539E+02 0.  0.
         12    1    1    2    0    0 -0.18329720499E+02 -0.53512430266E+00  0.37966567446E+01  0.18726441574E+02  0.00000000000E+00 0. -1.
         11    1    3    3    0    0  0.45691542045E+01 -0.61322586168E+01  0.14367032064E+01  0.77811234569E+01  0.51100000000E-03 0. -1.
        -11    1    3    3    0    0  0.18202377015E+02 -0.24991119223E+02 -0.96955186901E+01  0.32401939016E+02  0.51100000000E-03 0.  1.
         12    1    3    3    0    0 -0.44418107205E+01  0.31658502143E+02  0.44621587392E+01  0.32278495954E+02  0.00000000000E+00 0. -1.
</event>
<event>
 7    1  0.3162486E-013  0.7246158E+02  0.7816164E-02  0.1226708E+00
        -11   -1    0    0    0    0  0.00000000000E+00  0.00000000000E+00  0.45593999997E+02  0.45594000000E+02  0.51100000000E-03 0.  1.
         11   -1    0    0    0    0 -0.00000000000E+00 -0.00000000000E+00 -0.45593999997E+02  0.45594000000E+02  0.51100000000E-03 0. -1.
    9900012    2    1    2    0    0  0.76509468296E+01 -0.10645984718E+02  0.13371797457E+02  0.72461576283E+02  0.70000007801E+02 0.  0.
         12    1    1    2    0    0 -0.76509468296E+01  0.10645984718E+02 -0.13371797457E+02  0.18726423717E+02  0.00000000000E+00 0. -1.
         11    1    3    3    0    0  0.17607184051E+02  0.67636653780E+01 -0.17564303986E+02  0.25773336500E+02  0.51100000000E-03 0. -1.
        -11    1    3    3    0    0  0.89845663758E+01 -0.23577128614E+01  0.15245417633E+02  0.17852282823E+02  0.51100000000E-03 0.  1.
        -12    1    3    3    0    0 -0.18940803597E+02 -0.15051937234E+02  0.15690683810E+02  0.28835956961E+02  0.00000000000E+00 0.  1.
</event>
<event>
 7    1  0.3162486E-013  0.7246162E+02  0.7816164E-02  0.1226708E+00
        -11   -1    0    0    0    0  0.00000000000E+00  0.00000000000E+00  0.45593999997E+02  0.45594000000E+02  0.51100000000E-03 0.  1.
         11   -1    0    0    0    0 -0.00000000000E+00 -0.00000000000E+00 -0.45593999997E+02  0.45594000000E+02  0.51100000000E-03 0. -1.
    9900012    2    1    2    0    0  0.13171794673E+02  0.53395029751E+01  0.12193072255E+02  0.72461615460E+02  0.70000058836E+02 0.  0.
         12    1    1    2    0    0 -0.13171794673E+02 -0.53395029751E+01 -0.12193072255E+02  0.18726384540E+02  0.00000000000E+00 0. -1.
         11    1    3    3    0    0  0.21569158519E+02 -0.28094952338E+01 -0.18995914049E+02  0.28878480110E+02  0.51100000000E-03 0. -1.
        -11    1    3    3    0    0 -0.14315501670E+00  0.62856560499E+01 -0.39596464018E+01  0.74302601048E+01  0.51100000000E-03 0.  1.
        -12    1    3    3    0    0 -0.82542088286E+01  0.18633421590E+01  0.35148632705E+02  0.36152875245E+02  0.00000000000E+00 0.  1.
</event>
<event>
 7    1  0.3162486E-013  0.7246154E+02  0.7816164E-02  0.1226708E+00
        -11   -1    0    0    0    0  0.00000000000E+00  0.00000000000E+00  0.45593999997E+02  0.45594000000E+02  0.51100000000E-03 0. -1.
         11   -1    0    0    0    0 -0.00000000000E+00 -0.00000000000E+00 -0.45593999997E+02  0.45594000000E+02  0.51100000000E-03 0.  1.
    9900012    2    1    2    0    0  0.40247849713E+01 -0.52089587863E+01 -0.17531345573E+02  0.72461542158E+02  0.69999963347E+02 0.  0.
         12    1    1    2    0    0 -0.40247849713E+01  0.52089587863E+01  0.17531345573E+02  0.18726457842E+02  0.00000000000E+00 0. -1.
         11    1    3    3    0    0 -0.86208739834E+01  0.26339120953E+01 -0.39886959227E+01  0.98573148773E+01  0.51100000000E-03 0. -1.
        -11    1    3    3    0    0 -0.22738514253E+02 -0.36313682093E+01  0.31734304187E+01  0.23244300944E+02  0.51100000000E-03 0.  1.
         12    1    3    3    0    0  0.35384173208E+02 -0.42115026723E+01 -0.16716080069E+02  0.39359926337E+02  0.00000000000E+00 0. -1.
</event>
<event>
 7    1  0.3162486E-013  0.7246157E+02  0.7816164E-02  0.1226708E+00
        -11   -1    0    0    0    0  0.00000000000E+00  0.00000000000E+00  0.45593999997E+02  0.45594000000E+02  0.51100000000E-03 0.  1.
         11   -1    0    0    0    0 -0.00000000000E+00 -0.00000000000E+00 -0.45593999997E+02  0.45594000000E+02  0.51100000000E-03 0. -1.
    9900012    2    1    2    0    0  0.64652898332E+01  0.11325634991E+02  0.13439089552E+02  0.72461571922E+02  0.70000002120E+02 0.  0.
         12    1    1    2    0    0 -0.64652898332E+01 -0.11325634991E+02 -0.13439089552E+02  0.18726428078E+02  0.00000000000E+00 0. -1.
         11    1    3    3    0    0  0.14979728681E+02  0.14531399380E+02 -0.36822363357E+01  0.21192279349E+02  0.51100000000E-03 0. -1.
        -11    1    3    3    0    0  0.61245984104E+01  0.12415083385E+02 -0.97354062853E+01  0.16924040207E+02  0.51100000000E-03 0.  1.
         12    1    3    3    0    0 -0.14639037259E+02 -0.15620847773E+02  0.26856732173E+02  0.34345252365E+02  0.00000000000E+00 0. -1.
</event>
<event>
 7    1  0.3162486E-013  0.7246150E+02  0.7816164E-02  0.1226708E+00
        -11   -1    0    0    0    0  0.00000000000E+00  0.00000000000E+00  0.45593999997E+02  0.45594000000E+02  0.51100000000E-03 0. -1.
         11   -1    0    0    0    0 -0.00000000000E+00 -0.00000000000E+00 -0.45593999997E+02  0.45594000000E+02  0.51100000000E-03 0.  1.
    9900012    2    1    2    0    0 -0.10499882675E+02 -0.12033162359E+02 -0.97794385749E+01  0.72461496018E+02  0.69999903241E+02 0.  0.
         12    1    1    2    0    0  0.10499882675E+02  0.12033162359E+02  0.97794385749E+01  0.18726503982E+02  0.00000000000E+00 0. -1.
         11    1    3    3    0    0  0.29098784944E+01 -0.50459005566E+01 -0.12768533336E+02  0.14034384529E+02  0.51100000000E-03 0. -1.
        -11    1    3    3    0    0  0.21845120892E+02 -0.46620970501E+01  0.55074168403E+01  0.23006001309E+02  0.51100000000E-03 0.  1.
         12    1    3    3    0    0 -0.35254882062E+02 -0.23251647522E+01 -0.25183220791E+01  0.35421110181E+02  0.00000000000E+00 0. -1.
</event>
<event>
 7    1  0.3162486E-013  0.7246157E+02  0.7816164E-02  0.1226708E+00
        -11   -1    0    0    0    0  0.00000000000E+00  0.00000000000E+00  0.45593999997E+02  0.45594000000E+02  0.51100000000E-03 0.  1.
         11   -1    0    0    0    0 -0.00000000000E+00 -0.00000000000E+00 -0.45593999997E+02  0.45594000000E+02  0.51100000000E-03 0. -1.
    9900012    2    1    2    0    0 -0.18367955499E+02 -0.31731785386E+01 -0.17967522781E+01  0.72461570281E+02  0.69999999983E+02 0.  0.
         12    1    1    2    0    0  0.18367955499E+02  0.31731785386E+01  0.17967522781E+01  0.18726429719E+02  0.00000000000E+00 0. -1.
         11    1    3    3    0    0 -0.98378190049E+01  0.77953505551E+01  0.12208499961E+02  0.17509929886E+02  0.51100000000E-03 0. -1.
        -11    1    3    3    0    0 -0.11175033907E+02  0.50790304150E+01 -0.29831487133E+02  0.32258263400E+02  0.51100000000E-03 0.  1.
         12    1    3    3    0    0  0.26448974126E+01 -0.16047559509E+02  0.15826234894E+02  0.22693376994E+02  0.00000000000E+00 0. -1.
</event>
<event>
 7    1  0.3162486E-013  0.7246157E+02  0.7816164E-02  0.1226708E+00
        -11   -1    0    0    0    0  0.00000000000E+00  0.00000000000E+00  0.45593999997E+02  0.45594000000E+02  0.51100000000E-03 0.  1.
         11   -1    0    0    0    0 -0.00000000000E+00 -0.00000000000E+00 -0.45593999997E+02  0.45594000000E+02  0.51100000000E-03 0. -1.
    9900012    2    1    2    0    0 -0.13672859759E+02  0.12590996415E+02 -0.22800978002E+01  0.72461571331E+02  0.70000001350E+02 0.  0.
         12    1    1    2    0    0  0.13672859759E+02 -0.12590996415E+02  0.22800978002E+01  0.18726428669E+02  0.00000000000E+00 0. -1.
         11    1    3    3    0    0 -0.14882961461E+02  0.13770792145E+02 -0.53007035466E+01  0.20957927295E+02  0.51100000000E-03 0. -1.
        -11    1    3    3    0    0 -0.19708570340E+01 -0.17408771796E+02  0.20817673464E+02  0.27208916583E+02  0.51100000000E-03 0.  1.
         12    1    3    3    0    0  0.31809587365E+01  0.16228976067E+02 -0.17797067718E+02  0.24294727453E+02  0.00000000000E+00 0. -1.
</event>
<event>
 7    1  0.3162486E-013  0.7246154E+02  0.7816164E-02  0.1226708E+00
        -11   -1    0    0    0    0  0.00000000000E+00  0.00000000000E+00  0.45593999997E+02  0.45594000000E+02  0.51100000000E-03 0.  1.
         11   -1    0    0    0    0 -0.00000000000E+00 -0.00000000000E+00 -0.45593999997E+02  0.45594000000E+02  0.51100000000E-03 0. -1.
    9900012    2    1    2    0    0 -0.43039971413E+01 -0.74816338599E+01  0.16618691296E+02  0.72461544462E+02  0.69999966349E+02 0.  0.
         12    1    1    2    0    0  0.43039971413E+01  0.74816338599E+01 -0.16618691296E+02  0.18726455538E+02  0.00000000000E+00 0. -1.
         11    1    3    3    0    0 -0.15720451430E+02 -0.11895803705E+02 -0.51494590278E+01  0.20375467295E+02  0.51100000000E-03 0. -1.
        -11    1    3    3    0    0 -0.96743125523E+01 -0.11090626885E+02 -0.41067873229E+01  0.15279398890E+02  0.51100000000E-03 0.  1.
        -12    1    3    3    0    0  0.21090766841E+02  0.15504796730E+02  0.25874937647E+02  0.36806678277E+02  0.00000000000E+00 0.  1.
</event>
<event>
 7    1  0.3162486E-013  0.7246158E+02  0.7816164E-02  0.1226708E+00
        -11   -1    0    0    0    0  0.00000000000E+00  0.00000000000E+00  0.45593999997E+02  0.45594000000E+02  0.51100000000E-03 0.  1.
         11   -1    0    0    0    0 -0.00000000000E+00 -0.00000000000E+00 -0.45593999997E+02  0.45594000000E+02  0.51100000000E-03 0. -1.
    9900012    2    1    2    0    0 -0.11319517753E+02  0.14906471138E+02 -0.58700860152E+00  0.72461576341E+02  0.70000007877E+02 0.  0.
         12    1    1    2    0    0  0.11319517753E+02 -0.14906471138E+02  0.58700860152E+00  0.18726423659E+02  0.00000000000E+00 0. -1.
         11    1    3    3    0    0 -0.18330562527E+02  0.12384343502E+02 -0.14463191420E+02  0.26430387679E+02  0.51100000000E-03 0.  1.
        -11    1    3    3    0    0 -0.14158571718E+02  0.85956811942E+01 -0.47021884295E+01  0.17218056353E+02  0.51100000000E-03 0. -1.
        -12    1    3    3    0    0  0.21169616492E+02 -0.60735535582E+01  0.18578371248E+02  0.28813132309E+02  0.00000000000E+00 0.  1.
</event>
<event>
 7    1  0.3162486E-013  0.7246155E+02  0.7816164E-02  0.1226708E+00
        -11   -1    0    0    0    0  0.00000000000E+00  0.00000000000E+00  0.45593999997E+02  0.45594000000E+02  0.51100000000E-03 0. -1.
         11   -1    0    0    0    0 -0.00000000000E+00 -0.00000000000E+00 -0.45593999997E+02  0.45594000000E+02  0.51100000000E-03 0.  1.
    9900012    2    1    2    0    0  0.86692878477E+00 -0.18106964882E+02 -0.46974673071E+01  0.72461549673E+02  0.69999973137E+02 0.  0.
         12    1    1    2    0    0 -0.86692878477E+00  0.18106964882E+02  0.46974673071E+01  0.18726450327E+02  0.00000000000E+00 0. -1.
         11    1    3    3    0    0 -0.15638427118E+02 -0.13594715760E+02 -0.11453961101E+02  0.23676357923E+02  0.51100000000E-03 0. -1.
        -11    1    3    3    0    0 -0.91377819559E+01 -0.48943016921E+01 -0.12845141644E+02  0.16506087127E+02  0.51100000000E-03 0.  1.
         12    1    3    3    0    0  0.25643137859E+02  0.38205257037E+00  0.19601635438E+02  0.32279104623E+02  0.00000000000E+00 0. -1.
</event>
<event>
 7    1  0.3396984E-013  0.7246153E+02  0.7816164E-02  0.1226708E+00
        -11   -1    0    0    0    0  0.00000000000E+00  0.00000000000E+00  0.45593999997E+02  0.45594000000E+02  0.51100000000E-03 0. -1.
         11   -1    0    0    0    0 -0.00000000000E+00 -0.00000000000E+00 -0.45593999997E+02  0.45594000000E+02  0.51100000000E-03 0.  1.
    9900012    2    1    2    0    0  0.17395481211E+01  0.28916458732E+01 -0.18419904241E+02  0.72461534350E+02  0.69999953175E+02 0.  0.
         12    1    1    2    0    0 -0.17395481211E+01 -0.28916458732E+01  0.18419904241E+02  0.18726465650E+02  0.00000000000E+00 0. -1.
         11    1    3    3    0    0 -0.28147351759E+01 -0.14948604876E+02  0.18215688056E+02  0.23731725885E+02  0.51100000000E-03 0. -1.
        -11    1    3    3    0    0 -0.82109304638E+01  0.15368316226E+01 -0.21545658330E+02  0.23108366962E+02  0.51100000000E-03 0.  1.
        -12    1    3    3    0    0  0.12765213761E+02  0.16303419127E+02 -0.15089933966E+02  0.25621441503E+02  0.00000000000E+00 0.  1.
</event>
<event>
 7    1  0.3162486E-013  0.7246157E+02  0.7816164E-02  0.1226708E+00
        -11   -1    0    0    0    0  0.00000000000E+00  0.00000000000E+00  0.45593999997E+02  0.45594000000E+02  0.51100000000E-03 0.  1.
         11   -1    0    0    0    0 -0.00000000000E+00 -0.00000000000E+00 -0.45593999997E+02  0.45594000000E+02  0.51100000000E-03 0. -1.
    9900012    2    1    2    0    0 -0.13612746355E+02 -0.10078924034E+02  0.79867258132E+01  0.72461565149E+02  0.69999993297E+02 0.  0.
         12    1    1    2    0    0  0.13612746355E+02  0.10078924034E+02 -0.79867258132E+01  0.18726434851E+02  0.00000000000E+00 0. -1.
         11    1    3    3    0    0 -0.28798068495E+02  0.33109433084E+01  0.11694266802E+02  0.31257750574E+02  0.51100000000E-03 0. -1.
        -11    1    3    3    0    0 -0.93554757217E+01 -0.75481619733E+01  0.68745385311E+01  0.13847705782E+02  0.51100000000E-03 0.  1.
        -12    1    3    3    0    0  0.24540797861E+02 -0.58417053693E+01 -0.10582079520E+02  0.27356108793E+02  0.00000000000E+00 0.  1.
</event>
<event>
 7    1  0.3162486E-013  0.7246161E+02  0.7816164E-02  0.1226708E+00
        -11   -1    0    0    0    0  0.00000000000E+00  0.00000000000E+00  0.45593999997E+02  0.45594000000E+02  0.51100000000E-03 0. -1.
         11   -1    0    0    0    0 -0.00000000000E+00 -0.00000000000E+00 -0.45593999997E+02  0.45594000000E+02  0.51100000000E-03 0.  1.
    9900012    2    1    2    0    0  0.10188395206E+02 -0.14876831482E+02 -0.50550956584E+01  0.72461614766E+02  0.70000057933E+02 0.  0.
         12    1    1    2    0    0 -0.10188395206E+02  0.14876831482E+02  0.50550956584E+01  0.18726385234E+02  0.00000000000E+00 0. -1.
         11    1    3    3    0    0 -0.37298052693E+01 -0.56124964986E+01 -0.34492262034E+02  0.35144383687E+02  0.51100000000E-03 0. -1.
        -11    1    3    3    0    0  0.62674704804E+01 -0.68450495594E+01  0.31002342763E+01  0.97850571037E+01  0.51100000000E-03 0.  1.
        -12    1    3    3    0    0  0.76507299944E+01 -0.24192854237E+01  0.26336932099E+02  0.27532173975E+02  0.00000000000E+00 0.  1.
</event>
<event>
 7    1  0.3162486E-013  0.7246156E+02  0.7816164E-02  0.1226708E+00
        -11   -1    0    0    0    0  0.00000000000E+00  0.00000000000E+00  0.45593999997E+02  0.45594000000E+02  0.51100000000E-03 0. -1.
         11   -1    0    0    0    0 -0.00000000000E+00 -0.00000000000E+00 -0.45593999997E+02  0.45594000000E+02  0.51100000000E-03 0.  1.
    9900012    2    1    2    0    0 -0.17309369609E+01  0.14294879763E+02 -0.11972462978E+02  0.72461558801E+02  0.69999985028E+02 0.  0.
         12    1    1    2    0    0  0.17309369609E+01 -0.14294879763E+02  0.11972462978E+02  0.18726441199E+02  0.00000000000E+00 0. -1.
         11    1    3    3    0    0 -0.69787236251E+01  0.56772176375E+01  0.14827281430E+01  0.91176678238E+01  0.51100000000E-03 0. -1.
        -11    1    3    3    0    0 -0.26259144522E+02  0.13743185878E+02 -0.31722686397E+01  0.29807400385E+02  0.51100000000E-03 0.  1.
         12    1    3    3    0    0  0.31506931187E+02 -0.51255237519E+01 -0.10282922481E+02  0.33536490593E+02  0.00000000000E+00 0. -1.
</event>
<event>
 7    1  0.3162486E-013  0.7246157E+02  0.7816164E-02  0.1226708E+00
        -11   -1    0    0    0    0  0.00000000000E+00  0.00000000000E+00  0.45593999997E+02  0.45594000000E+02  0.51100000000E-03 0.  1.
         11   -1    0    0    0    0 -0.00000000000E+00 -0.00000000000E+00 -0.45593999997E+02  0.45594000000E+02  0.51100000000E-03 0. -1.
    9900012    2    1    2    0    0  0.12760625825E+02 -0.13540461371E+02 -0.21216745532E+01  0.72461570322E+02  0.70000000036E+02 0.  0.
         12    1    1    2    0    0 -0.12760625825E+02  0.13540461371E+02  0.21216745532E+01  0.18726429678E+02  0.00000000000E+00 0. -1.
         11    1    3    3    0    0 -0.11378639634E+02 -0.15260604950E+02  0.11433172599E+02  0.22205335830E+02  0.51100000000E-03 0. -1.
        -11    1    3    3    0    0  0.15250497503E+02  0.10026309576E+02  0.12076103202E+02  0.21884625348E+02  0.51100000000E-03 0.  1.
        -12    1    3    3    0    0  0.88887679558E+01 -0.83061659960E+01 -0.25630950355E+02  0.28371609144E+02  0.00000000000E+00 0.  1.
</event>
<event>
 7    1  0.3162486E-013  0.7246157E+02  0.7816164E-02  0.1226708E+00
        -11   -1    0    0    0    0  0.00000000000E+00  0.00000000000E+00  0.45593999997E+02  0.45594000000E+02  0.51100000000E-03 0. -1.
         11   -1    0    0    0    0 -0.00000000000E+00 -0.00000000000E+00 -0.45593999997E+02  0.45594000000E+02  0.51100000000E-03 0.  1.
    9900012    2    1    2    0    0 -0.17419082189E+02 -0.24562705642E+01  0.64204071662E+01  0.72461566341E+02  0.69999994851E+02 0.  0.
         12    1    1    2    0    0  0.17419082189E+02  0.24562705642E+01 -0.64204071662E+01  0.18726433659E+02  0.00000000000E+00 0. -1.
         11    1    3    3    0    0 -0.77439116872E+01  0.89148933810E+01  0.30337901177E+02  0.32555057062E+02  0.51100000000E-03 0. -1.
        -11    1    3    3    0    0  0.56065442534E+01  0.18536952986E+01 -0.17856590338E+02  0.18807640561E+02  0.51100000000E-03 0.  1.
        -12    1    3    3    0    0 -0.15281714755E+02 -0.13224859244E+02 -0.60609036732E+01  0.21098868719E+02  0.00000000000E+00 0.  1.
</event>
<event>
 7    1  0.3162486E-013  0.7246157E+02  0.7816164E-02  0.1226708E+00
        -11   -1    0    0    0    0  0.00000000000E+00  0.00000000000E+00  0.45593999997E+02  0.45594000000E+02  0.51100000000E-03 0.  1.
         11   -1    0    0    0    0 -0.00000000000E+00 -0.00000000000E+00 -0.45593999997E+02  0.45594000000E+02  0.51100000000E-03 0. -1.
    9900012    2    1    2    0    0  0.16310668965E+01 -0.18358511455E+02 -0.33141722950E+01  0.72461573216E+02  0.70000003807E+02 0.  0.
         12    1    1    2    0    0 -0.16310668965E+01  0.18358511455E+02  0.33141722950E+01  0.18726426784E+02  0.00000000000E+00 0. -1.
         11    1    3    3    0    0 -0.40221745538E+01 -0.13554668911E+02  0.42232653190E+01  0.14756114246E+02  0.51100000000E-03 0. -1.
        -11    1    3    3    0    0  0.97757510967E+01  0.46122519452E+01  0.23038375851E+02  0.25448083221E+02  0.51100000000E-03 0.  1.
         12    1    3    3    0    0 -0.41225096463E+01 -0.94160944893E+01 -0.30575813465E+02  0.32257375749E+02  0.00000000000E+00 0. -1.
</event>
<event>
 7    1  0.3162486E-013  0.7246177E+02  0.7816164E-02  0.1226707E+00
        -11   -1    0    0    0    0  0.00000000000E+00  0.00000000000E+00  0.45593999997E+02  0.45594000000E+02  0.51100000000E-03 0.  1.
         11   -1    0    0    0    0 -0.00000000000E+00 -0.00000000000E+00 -0.45593999997E+02  0.45594000000E+02  0.51100000000E-03 0. -1.
    9900012    2    1    2    0    0 -0.35185656245E-01 -0.47315458970E+01  0.18118580040E+02  0.72461769539E+02  0.70000259553E+02 0.  0.
         12    1    1    2    0    0  0.35185656245E-01  0.47315458970E+01 -0.18118580040E+02  0.18726230461E+02  0.00000000000E+00 0. -1.
         11    1    3    3    0    0 -0.36483674086E+01  0.19185140284E+02  0.23623388037E+02  0.30650361418E+02  0.51100000000E-03 0. -1.
        -11    1    3    3    0    0  0.11387790214E+02  0.34013206723E+01  0.28178344054E+01  0.12214374289E+02  0.51100000000E-03 0.  1.
        -12    1    3    3    0    0 -0.77746084614E+01 -0.27318006853E+02 -0.83226424020E+01  0.29597033833E+02  0.00000000000E+00 0.  1.
</event>
<event>
 7    1  0.3162486E-013  0.7246152E+02  0.7816164E-02  0.1226708E+00
        -11   -1    0    0    0    0  0.00000000000E+00  0.00000000000E+00  0.45593999997E+02  0.45594000000E+02  0.51100000000E-03 0. -1.
         11   -1    0    0    0    0 -0.00000000000E+00 -0.00000000000E+00 -0.45593999997E+02  0.45594000000E+02  0.51100000000E-03 0.  1.
    9900012    2    1    2    0    0  0.54845812286E+01 -0.17880928056E+02 -0.93417955674E+00  0.72461523801E+02  0.69999939433E+02 0.  0.
         12    1    1    2    0    0 -0.54845812286E+01  0.17880928056E+02  0.93417955674E+00  0.18726476199E+02  0.00000000000E+00 0. -1.
         11    1    3    3    0    0 -0.58228387487E+01  0.14431879559E+01 -0.24287751355E+01  0.64720314809E+01  0.51100000000E-03 0. -1.
        -11    1    3    3    0    0 -0.17170123287E+02 -0.18387919274E+02 -0.18459824045E+02  0.31204067250E+02  0.51100000000E-03 0.  1.
         12    1    3    3    0    0  0.28477543265E+02 -0.93619673831E+00  0.19954419624E+02  0.34785425069E+02  0.00000000000E+00 0. -1.
</event>
<event>
 7    1  0.3162486E-013  0.7246157E+02  0.7816164E-02  0.1226708E+00
        -11   -1    0    0    0    0  0.00000000000E+00  0.00000000000E+00  0.45593999997E+02  0.45594000000E+02  0.51100000000E-03 0. -1.
         11   -1    0    0    0    0 -0.00000000000E+00 -0.00000000000E+00 -0.45593999997E+02  0.45594000000E+02  0.51100000000E-03 0.  1.
    9900012    2    1    2    0    0  0.97549666722E+01  0.43741272264E+01 -0.15374873350E+02  0.72461572303E+02  0.70000002617E+02 0.  0.
         12    1    1    2    0    0 -0.97549666722E+01 -0.43741272264E+01  0.15374873350E+02  0.18726427697E+02  0.00000000000E+00 0. -1.
         11    1    3    3    0    0  0.25210157122E+02  0.31328493595E+00 -0.20667896861E+02  0.32600799538E+02  0.51100000000E-03 0. -1.
        -11    1    3    3    0    0 -0.17060446600E+02 -0.43626950257E+00 -0.12682061504E+02  0.21262263602E+02  0.51100000000E-03 0.  1.
         12    1    3    3    0    0  0.16052561496E+01  0.44971117930E+01  0.17975085015E+02  0.18598509163E+02  0.00000000000E+00 0. -1.
</event>
<event>
 7    1  0.3162486E-013  0.7246159E+02  0.7816164E-02  0.1226708E+00
        -11   -1    0    0    0    0  0.00000000000E+00  0.00000000000E+00  0.45593999997E+02  0.45594000000E+02  0.51100000000E-03 0.  1.
         11   -1    0    0    0    0 -0.00000000000E+00 -0.00000000000E+00 -0.45593999997E+02  0.45594000000E+02  0.51100000000E-03 0. -1.
    9900012    2    1    2    0    0 -0.19027838860E+01  0.17927642666E+02  0.50653070702E+01  0.72461593677E+02  0.70000030460E+02 0.  0.
         12    1    1    2    0    0  0.19027838860E+01 -0.17927642666E+02 -0.50653070702E+01  0.18726406323E+02  0.00000000000E+00 0. -1.
         11    1    3    3    0    0 -0.31367941596E+01  0.23264381868E+02 -0.24271812825E+02  0.33766726808E+02  0.51100000000E-03 0. -1.
        -11    1    3    3    0    0  0.91360997704E+00 -0.31597232770E+01 -0.40601064417E+01  0.52252271679E+01  0.51100000000E-03 0.  1.
        -12    1    3    3    0    0  0.32040029656E+00 -0.21770159252E+01  0.33397226337E+02  0.33469639700E+02  0.00000000000E+00 0.  1.
</event>
<event>
 7    1  0.3162486E-013  0.7246193E+02  0.7816164E-02  0.1226707E+00
        -11   -1    0    0    0    0  0.00000000000E+00  0.00000000000E+00  0.45593999997E+02  0.45594000000E+02  0.51100000000E-03 0.  1.
         11   -1    0    0    0    0 -0.00000000000E+00 -0.00000000000E+00 -0.45593999997E+02  0.45594000000E+02  0.51100000000E-03 0. -1.
    9900012    2    1    2    0    0  0.55710472936E+01 -0.64760119114E+01  0.16664049423E+02  0.72461926161E+02  0.70000463581E+02 0.  0.
         12    1    1    2    0    0 -0.55710472936E+01  0.64760119114E+01 -0.16664049423E+02  0.18726073839E+02  0.00000000000E+00 0. -1.
         11    1    3    3    0    0 -0.15175119070E+02  0.53120920469E+01 -0.11435242294E+02  0.19729858775E+02  0.51100000000E-03 0. -1.
        -11    1    3    3    0    0 -0.25881825715E+01 -0.16959363065E+02  0.22304510003E+02  0.28139116037E+02  0.51100000000E-03 0.  1.
         12    1    3    3    0    0  0.23334348935E+02  0.51712591069E+01  0.57947817144E+01  0.24592951349E+02  0.00000000000E+00 0. -1.
</event>
<event>
 7    1  0.3162486E-013  0.7246156E+02  0.7816164E-02  0.1226708E+00
        -11   -1    0    0    0    0  0.00000000000E+00  0.00000000000E+00  0.45593999997E+02  0.45594000000E+02  0.51100000000E-03 0. -1.
         11   -1    0    0    0    0 -0.00000000000E+00 -0.00000000000E+00 -0.45593999997E+02  0.45594000000E+02  0.51100000000E-03 0.  1.
    9900012    2    1    2    0    0 -0.14208828254E+02 -0.12126341505E+02  0.13192756902E+01  0.72461562885E+02  0.69999990349E+02 0.  0.
         12    1    1    2    0    0  0.14208828254E+02  0.12126341505E+02 -0.13192756902E+01  0.18726437115E+02  0.00000000000E+00 0. -1.
         11    1    3    3    0    0  0.54976163313E+01 -0.36421862335E+01  0.18242569187E+02  0.19397954446E+02  0.51100000000E-03 0. -1.
        -11    1    3    3    0    0 -0.33909937656E+02 -0.10756054722E+02 -0.14770311174E+02  0.38519328622E+02  0.51100000000E-03 0.  1.
         12    1    3    3    0    0  0.14203493071E+02  0.22718994500E+01 -0.21529823231E+01  0.14544279817E+02  0.00000000000E+00 0. -1.
</event>
<event>
 7    1  0.3162486E-013  0.7246159E+02  0.7816164E-02  0.1226708E+00
        -11   -1    0    0    0    0  0.00000000000E+00  0.00000000000E+00  0.45593999997E+02  0.45594000000E+02  0.51100000000E-03 0.  1.
         11   -1    0    0    0    0 -0.00000000000E+00 -0.00000000000E+00 -0.45593999997E+02  0.45594000000E+02  0.51100000000E-03 0. -1.
    9900012    2    1    2    0    0  0.28979082342E+01 -0.16882458578E+02  0.75672465922E+01  0.72461588151E+02  0.70000023261E+02 0.  0.
         12    1    1    2    0    0 -0.28979082342E+01  0.16882458578E+02 -0.75672465922E+01  0.18726411849E+02  0.00000000000E+00 0. -1.
         11    1    3    3    0    0  0.18505100388E+02  0.16592122676E+02 -0.33115973170E+01  0.25073969616E+02  0.51100000000E-03 0. -1.
        -11    1    3    3    0    0 -0.10750354396E+01 -0.11667647333E+02 -0.87685697372E+01  0.14634804781E+02  0.51100000000E-03 0.  1.
        -12    1    3    3    0    0 -0.14532156714E+02 -0.21806933920E+02  0.19647413646E+02  0.32752813753E+02  0.00000000000E+00 0.  1.
</event>
<event>
 7    1  0.3162486E-013  0.7246186E+02  0.7816164E-02  0.1226707E+00
        -11   -1    0    0    0    0  0.00000000000E+00  0.00000000000E+00  0.45593999997E+02  0.45594000000E+02  0.51100000000E-03 0. -1.
         11   -1    0    0    0    0 -0.00000000000E+00 -0.00000000000E+00 -0.45593999997E+02  0.45594000000E+02  0.51100000000E-03 0.  1.
    9900012    2    1    2    0    0  0.15562998454E+01  0.50069186199E+01 -0.17977127580E+02  0.72461857330E+02  0.70000373916E+02 0.  0.
         12    1    1    2    0    0 -0.15562998454E+01 -0.50069186199E+01  0.17977127580E+02  0.18726142670E+02  0.00000000000E+00 0. -1.
         11    1    3    3    0    0 -0.28655127919E+00  0.64897332247E+01 -0.10182257399E+02  0.12077959884E+02  0.51100000000E-03 0. -1.
        -11    1    3    3    0    0 -0.88045844490E+01  0.17645091964E+02 -0.25495277727E+02  0.32231648490E+02  0.51100000000E-03 0.  1.
         12    1    3    3    0    0  0.10647435574E+02 -0.19127906568E+02  0.17700407546E+02  0.28152248956E+02  0.00000000000E+00 0. -1.
</event>
<event>
 7    1  0.3162486E-013  0.7246153E+02  0.7816164E-02  0.1226708E+00
        -11   -1    0    0    0    0  0.00000000000E+00  0.00000000000E+00  0.45593999997E+02  0.45594000000E+02  0.51100000000E-03 0.  1.
         11   -1    0    0    0    0 -0.00000000000E+00 -0.00000000000E+00 -0.45593999997E+02  0.45594000000E+02  0.51100000000E-03 0. -1.
    9900012    2    1    2    0    0 -0.34023603796E+01  0.15550930053E+02  0.98627101767E+01  0.72461533871E+02  0.69999952552E+02 0.  0.
         12    1    1    2    0    0  0.34023603796E+01 -0.15550930053E+02 -0.98627101767E+01  0.18726466129E+02  0.00000000000E+00 0. -1.
         11    1    3    3    0    0  0.81974897993E+01 -0.67859521225E+00 -0.15939542791E+02  0.17936787759E+02  0.51100000000E-03 0. -1.
        -11    1    3    3    0    0 -0.12200689045E+02 -0.12649567565E+02  0.16688340284E+02  0.24235698349E+02  0.51100000000E-03 0.  1.
        -12    1    3    3    0    0  0.60083886620E+00  0.28879092830E+02  0.91139126831E+01  0.30289047763E+02  0.00000000000E+00 0.  1.
</event>
<event>
 7    1  0.3162486E-013  0.7246160E+02  0.7816164E-02  0.1226708E+00
        -11   -1    0    0    0    0  0.00000000000E+00  0.00000000000E+00  0.45593999997E+02  0.45594000000E+02  0.51100000000E-03 0. -1.
         11   -1    0    0    0    0 -0.00000000000E+00 -0.00000000000E+00 -0.45593999997E+02  0.45594000000E+02  0.51100000000E-03 0.  1.
    9900012    2    1    2    0    0  0.47463739736E+01 -0.15153211374E+02 -0.99262336689E+01  0.72461601636E+02  0.70000040828E+02 0.  0.
         12    1    1    2    0    0 -0.47463739736E+01  0.15153211374E+02  0.99262336689E+01  0.18726398364E+02  0.00000000000E+00 0. -1.
         11    1    3    3    0    0  0.19486242428E+01  0.15269936414E+00 -0.58568565997E+01  0.61744006208E+01  0.51100000000E-03 0. -1.
        -11    1    3    3    0    0  0.16140658109E+02 -0.21411701973E+02 -0.27648437642E+02  0.38515164934E+02  0.51100000000E-03 0.  1.
         12    1    3    3    0    0 -0.13342908379E+02  0.61057912345E+01  0.23579060573E+02  0.27772036081E+02  0.00000000000E+00 0. -1.
</event>
<event>
 7    1  0.3785571E-013  0.7246157E+02  0.7816164E-02  0.1226708E+00
        -11   -1    0    0    0    0  0.00000000000E+00  0.00000000000E+00  0.45593999997E+02  0.45594000000E+02  0.51100000000E-03 0. -1.
         11   -1    0    0    0    0 -0.00000000000E+00 -0.00000000000E+00 -0.45593999997E+02  0.45594000000E+02  0.51100000000E-03 0.  1.
    9900012    2    1    2    0    0  0.96778621339E+01  0.11017376105E+02 -0.11646275779E+02  0.72461565977E+02  0.69999994375E+02 0.  0.
         12    1    1    2    0    0 -0.96778621339E+01 -0.11017376105E+02  0.11646275779E+02  0.18726434023E+02  0.00000000000E+00 0. -1.
         11    1    3    3    0    0  0.92698588858E+01 -0.55101667202E+01  0.15113089223E+02  0.18566035850E+02  0.51100000000E-03 0. -1.
        -11    1    3    3    0    0  0.70046766320E+01  0.16340081300E+02  0.72883453466E+01  0.19214154412E+02  0.51100000000E-03 0.  1.
        -12    1    3    3    0    0 -0.65966733840E+01  0.18746152518E+00 -0.34047710348E+02  0.34681375715E+02  0.00000000000E+00 0.  1.
</event>
<event>
 7    1  0.3162486E-013  0.7246136E+02  0.7816164E-02  0.1226709E+00
        -11   -1    0    0    0    0  0.00000000000E+00  0.00000000000E+00  0.45593999997E+02  0.45594000000E+02  0.51100000000E-03 0.  1.
         11   -1    0    0    0    0 -0.00000000000E+00 -0.00000000000E+00 -0.45593999997E+02  0.45594000000E+02  0.51100000000E-03 0. -1.
    9900012    2    1    2    0    0 -0.12330982250E+02 -0.82275756006E+01  0.11442938483E+02  0.72461362164E+02  0.69999728871E+02 0.  0.
         12    1    1    2    0    0  0.12330982250E+02  0.82275756006E+01 -0.11442938483E+02  0.18726637836E+02  0.00000000000E+00 0. -1.
         11    1    3    3    0    0  0.16755908202E+02 -0.12325158874E+02 -0.72506444888E+01  0.22028205708E+02  0.51100000000E-03 0. -1.
        -11    1    3    3    0    0  0.35652723815E+01  0.67100430300E+01  0.15820841525E+02  0.17550922239E+02  0.51100000000E-03 0.  1.
        -12    1    3    3    0    0 -0.32652162834E+02 -0.26124597567E+01  0.28727414472E+01  0.32882234217E+02  0.00000000000E+00 0.  1.
</event>
<event>
 7    1  0.3162486E-013  0.7246161E+02  0.7816164E-02  0.1226708E+00
        -11   -1    0    0    0    0  0.00000000000E+00  0.00000000000E+00  0.45593999997E+02  0.45594000000E+02  0.51100000000E-03 0. -1.
         11   -1    0    0    0    0 -0.00000000000E+00 -0.00000000000E+00 -0.45593999997E+02  0.45594000000E+02  0.51100000000E-03 0.  1.
    9900012    2    1    2    0    0 -0.17169988828E+02  0.74599133336E+01  0.46770617369E+00  0.72461612939E+02  0.70000055552E+02 0.  0.
         12    1    1    2    0    0  0.17169988828E+02 -0.74599133336E+01 -0.46770617369E+00  0.18726387061E+02  0.00000000000E+00 0. -1.
         11    1    3    3    0    0 -0.35294608596E+01  0.13491134216E+02 -0.15938337720E+02  0.21177780949E+02  0.51100000000E-03 0. -1.
        -11    1    3    3    0    0  0.15293799589E+01 -0.82300487617E+01 -0.14524129834E+02  0.16763742224E+02  0.51100000000E-03 0.  1.
        -12    1    3    3    0    0 -0.15169907928E+02  0.21988278790E+01  0.30930173727E+02  0.34520089765E+02  0.00000000000E+00 0.  1.
</event>
<event>
 7    1  0.3162486E-013  0.7246156E+02  0.7816164E-02  0.1226708E+00
        -11   -1    0    0    0    0  0.00000000000E+00  0.00000000000E+00  0.45593999997E+02  0.45594000000E+02  0.51100000000E-03 0. -1.
         11   -1    0    0    0    0 -0.00000000000E+00 -0.00000000000E+00 -0.45593999997E+02  0.45594000000E+02  0.51100000000E-03 0.  1.
    9900012    2    1    2    0    0 -0.21144850019E+01  0.25715140339E+01 -0.18428125424E+02  0.72461560459E+02  0.69999987187E+02 0.  0.
         12    1    1    2    0    0  0.21144850019E+01 -0.25715140339E+01  0.18428125424E+02  0.18726439541E+02  0.00000000000E+00 0. -1.
         11    1    3    3    0    0 -0.23836995280E+02  0.40754485667E+00  0.65893887582E+01  0.24734358315E+02  0.51100000000E-03 0. -1.
        -11    1    3    3    0    0 -0.54346752092E+01 -0.92366422855E+01 -0.10037789831E+02  0.14683612645E+02  0.51100000000E-03 0.  1.
         12    1    3    3    0    0  0.27157185488E+02  0.11400611463E+02 -0.14979724351E+02  0.33043589499E+02  0.00000000000E+00 0. -1.
</event>
<event>
 7    1  0.3162486E-013  0.7246155E+02  0.7816164E-02  0.1226708E+00
        -11   -1    0    0    0    0  0.00000000000E+00  0.00000000000E+00  0.45593999997E+02  0.45594000000E+02  0.51100000000E-03 0.  1.
         11   -1    0    0    0    0 -0.00000000000E+00 -0.00000000000E+00 -0.45593999997E+02  0.45594000000E+02  0.51100000000E-03 0. -1.
    9900012    2    1    2    0    0 -0.10131931166E+02  0.15443520041E+02  0.30857266992E+01  0.72461546794E+02  0.69999969387E+02 0.  0.
         12    1    1    2    0    0  0.10131931166E+02 -0.15443520041E+02 -0.30857266992E+01  0.18726453206E+02  0.00000000000E+00 0. -1.
         11    1    3    3    0    0 -0.31251829534E+02  0.13701256791E+02  0.13631910370E+01  0.34150542850E+02  0.51100000000E-03 0. -1.
        -11    1    3    3    0    0  0.83103048162E+00 -0.12767895882E+02 -0.24314289511E+01  0.13023886667E+02  0.51100000000E-03 0.  1.
        -12    1    3    3    0    0  0.20288867887E+02  0.14510159132E+02  0.41539646134E+01  0.25287117277E+02  0.00000000000E+00 0.  1.
</event>
<event>
 7    1  0.3162486E-013  0.7246163E+02  0.7816164E-02  0.1226708E+00
        -11   -1    0    0    0    0  0.00000000000E+00  0.00000000000E+00  0.45593999997E+02  0.45594000000E+02  0.51100000000E-03 0.  1.
         11   -1    0    0    0    0 -0.00000000000E+00 -0.00000000000E+00 -0.45593999997E+02  0.45594000000E+02  0.51100000000E-03 0. -1.
    9900012    2    1    2    0    0  0.10719402175E+02 -0.25297110225E+01  0.15145027797E+02  0.72461631216E+02  0.70000079362E+02 0.  0.
         12    1    1    2    0    0 -0.10719402175E+02  0.25297110225E+01 -0.15145027797E+02  0.18726368784E+02  0.00000000000E+00 0. -1.
         11    1    3    3    0    0 -0.26097742518E+02 -0.64147564915E+01  0.88052590469E+01  0.28280273205E+02  0.51100000000E-03 0. -1.
        -11    1    3    3    0    0  0.68073876688E+01  0.10917957409E+02  0.26745156296E+01  0.13141360469E+02  0.51100000000E-03 0.  1.
        -12    1    3    3    0    0  0.30009757025E+02 -0.70329119397E+01  0.36652531206E+01  0.31039997543E+02  0.00000000000E+00 0.  1.
</event>
<event>
 7    1  0.3162486E-013  0.7246160E+02  0.7816164E-02  0.1226708E+00
        -11   -1    0    0    0    0  0.00000000000E+00  0.00000000000E+00  0.45593999997E+02  0.45594000000E+02  0.51100000000E-03 0. -1.
         11   -1    0    0    0    0 -0.00000000000E+00 -0.00000000000E+00 -0.45593999997E+02  0.45594000000E+02  0.51100000000E-03 0.  1.
    9900012    2    1    2    0    0 -0.24083681695E+01  0.18531703668E+02  0.12057589776E+01  0.72461597975E+02  0.70000036060E+02 0.  0.
         12    1    1    2    0    0  0.24083681695E+01 -0.18531703668E+02 -0.12057589776E+01  0.18726402025E+02  0.00000000000E+00 0. -1.
         11    1    3    3    0    0  0.14539778686E+01  0.21084092040E+02  0.19539569840E+01  0.21224300623E+02  0.51100000000E-03 0. -1.
        -11    1    3    3    0    0 -0.17863389444E+02  0.10703706834E+02 -0.16316625761E+02  0.26455666669E+02  0.51100000000E-03 0.  1.
        -12    1    3    3    0    0  0.14001043406E+02 -0.13256095206E+02  0.15568427755E+02  0.24781630683E+02  0.00000000000E+00 0.  1.
</event>
<event>
 7    1  0.3162486E-013  0.7246142E+02  0.7816164E-02  0.1226708E+00
        -11   -1    0    0    0    0  0.00000000000E+00  0.00000000000E+00  0.45593999997E+02  0.45594000000E+02  0.51100000000E-03 0. -1.
         11   -1    0    0    0    0 -0.00000000000E+00 -0.00000000000E+00 -0.45593999997E+02  0.45594000000E+02  0.51100000000E-03 0.  1.
    9900012    2    1    2    0    0 -0.11671694815E+02  0.65112902903E+01 -0.13117149422E+02  0.72461415419E+02  0.69999798246E+02 0.  0.
         12    1    1    2    0    0  0.11671694815E+02 -0.65112902903E+01  0.13117149422E+02  0.18726584581E+02  0.00000000000E+00 0. -1.
         11    1    3    3    0    0  0.77918852056E+01  0.27529305461E+01 -0.62480426323E+01  0.10360025996E+02  0.51100000000E-03 0. -1.
        -11    1    3    3    0    0 -0.20587290575E+01 -0.22266731900E+02 -0.18172568964E+02  0.28814718077E+02  0.51100000000E-03 0.  1.
         12    1    3    3    0    0 -0.17404850963E+02  0.26025091644E+02  0.11303462175E+02  0.33286671346E+02  0.00000000000E+00 0. -1.
</event>
<event>
 7    1  0.3162486E-013  0.7246161E+02  0.7816164E-02  0.1226708E+00
        -11   -1    0    0    0    0  0.00000000000E+00  0.00000000000E+00  0.45593999997E+02  0.45594000000E+02  0.51100000000E-03 0.  1.
         11   -1    0    0    0    0 -0.00000000000E+00 -0.00000000000E+00 -0.45593999997E+02  0.45594000000E+02  0.51100000000E-03 0. -1.
    9900012    2    1    2    0    0  0.94583049783E+01 -0.16152449032E+02  0.56266954866E+00  0.72461608468E+02  0.70000049728E+02 0.  0.
         12    1    1    2    0    0 -0.94583049783E+01  0.16152449032E+02 -0.56266954866E+00  0.18726391532E+02  0.00000000000E+00 0. -1.
         11    1    3    3    0    0 -0.16808095940E+02  0.18946161161E+01 -0.12619389857E+02  0.21103332912E+02  0.51100000000E-03 0. -1.
        -11    1    3    3    0    0 -0.96179936595E+01 -0.18889714462E+01 -0.16189631332E+00  0.98030722652E+01  0.51100000000E-03 0.  1.
        -12    1    3    3    0    0  0.35884394578E+02 -0.16158093702E+02  0.13343955719E+02  0.41555203291E+02  0.00000000000E+00 0.  1.
</event>
<event>
 7    1  0.3162486E-013  0.7246161E+02  0.7816164E-02  0.1226708E+00
        -11   -1    0    0    0    0  0.00000000000E+00  0.00000000000E+00  0.45593999997E+02  0.45594000000E+02  0.51100000000E-03 0. -1.
         11   -1    0    0    0    0 -0.00000000000E+00 -0.00000000000E+00 -0.45593999997E+02  0.45594000000E+02  0.51100000000E-03 0.  1.
    9900012    2    1    2    0    0 -0.62393905239E+01  0.14350449221E+02 -0.10286518922E+02  0.72461605299E+02  0.70000045600E+02 0.  0.
         12    1    1    2    0    0  0.62393905239E+01 -0.14350449221E+02  0.10286518922E+02  0.18726394701E+02  0.00000000000E+00 0. -1.
         11    1    3    3    0    0  0.13332465037E+02  0.93975498323E+00 -0.26327294627E+02  0.29525653355E+02  0.51100000000E-03 0. -1.
        -11    1    3    3    0    0  0.26348721996E+01  0.23830073864E+01 -0.77802360286E+01  0.85529730874E+01  0.51100000000E-03 0.  1.
        -12    1    3    3    0    0 -0.22206727760E+02  0.11027686851E+02  0.23821011733E+02  0.34382978857E+02  0.00000000000E+00 0.  1.
</event>
<event>
 7    1  0.3162486E-013  0.7246104E+02  0.7816164E-02  0.1226709E+00
        -11   -1    0    0    0    0  0.00000000000E+00  0.00000000000E+00  0.45593999997E+02  0.45594000000E+02  0.51100000000E-03 0.  1.
         11   -1    0    0    0    0 -0.00000000000E+00 -0.00000000000E+00 -0.45593999997E+02  0.45594000000E+02  0.51100000000E-03 0. -1.
    9900012    2    1    2    0    0 -0.34212891344E+01 -0.14058233584E+02  0.11889491414E+02  0.72461036634E+02  0.69999304805E+02 0.  0.
         12    1    1    2    0    0  0.34212891344E+01  0.14058233584E+02 -0.11889491414E+02  0.18726963366E+02  0.00000000000E+00 0. -1.
         11    1    3    3    0    0  0.15130060205E+01 -0.97181670406E+01 -0.13196503272E+02  0.16458422060E+02  0.51100000000E-03 0. -1.
        -11    1    3    3    0    0  0.16916735076E+02  0.11757165210E+01 -0.56639770237E+01  0.17878447106E+02  0.51100000000E-03 0.  1.
        -12    1    3    3    0    0 -0.21851030230E+02 -0.55157830641E+01  0.30749971709E+02  0.38124167467E+02  0.00000000000E+00 0.  1.
</event>
<event>
 7    1  0.3162486E-013  0.7246156E+02  0.7816164E-02  0.1226708E+00
        -11   -1    0    0    0    0  0.00000000000E+00  0.00000000000E+00  0.45593999997E+02  0.45594000000E+02  0.51100000000E-03 0. -1.
         11   -1    0    0    0    0 -0.00000000000E+00 -0.00000000000E+00 -0.45593999997E+02  0.45594000000E+02  0.51100000000E-03 0.  1.
    9900012    2    1    2    0    0  0.14336711426E+02 -0.43681444268E+01 -0.11227528152E+02  0.72461564978E+02  0.69999993074E+02 0.  0.
         12    1    1    2    0    0 -0.14336711426E+02  0.43681444268E+01  0.11227528152E+02  0.18726435022E+02  0.00000000000E+00 0. -1.
         11    1    3    3    0    0 -0.27065351917E+01 -0.29911266750E+01 -0.12505194567E+02  0.13139713199E+02  0.51100000000E-03 0. -1.
        -11    1    3    3    0    0 -0.57643235455E+01 -0.81726589504E+01 -0.23150026147E+02  0.25217920040E+02  0.51100000000E-03 0.  1.
         12    1    3    3    0    0  0.22807570163E+02  0.67956411986E+01  0.24427692563E+02  0.34103931738E+02  0.00000000000E+00 0. -1.
</event>
<event>
 7    1  0.3162486E-013  0.7246157E+02  0.7816164E-02  0.1226708E+00
        -11   -1    0    0    0    0  0.00000000000E+00  0.00000000000E+00  0.45593999997E+02  0.45594000000E+02  0.51100000000E-03 0.  1.
         11   -1    0    0    0    0 -0.00000000000E+00 -0.00000000000E+00 -0.45593999997E+02  0.45594000000E+02  0.51100000000E-03 0. -1.
    9900012    2    1    2    0    0 -0.14839562815E+02  0.10454329766E+02  0.46014708294E+01  0.72461570303E+02  0.70000000011E+02 0.  0.
         12    1    1    2    0    0  0.14839562815E+02 -0.10454329766E+02 -0.46014708294E+01  0.18726429697E+02  0.00000000000E+00 0. -1.
         11    1    3    3    0    0 -0.90711483642E+01  0.17959120801E+02 -0.22800000929E+02  0.30408153433E+02  0.51100000000E-03 0. -1.
        -11    1    3    3    0    0 -0.11610423770E+02 -0.27152745253E+00 -0.14843507534E+01  0.11708072629E+02  0.51100000000E-03 0.  1.
        -12    1    3    3    0    0  0.58420093190E+01 -0.72332635817E+01  0.28885822512E+02  0.30345344241E+02  0.00000000000E+00 0.  1.
</event>
<event>
 7    1  0.3162486E-013  0.7246185E+02  0.7816164E-02  0.1226707E+00
        -11   -1    0    0    0    0  0.00000000000E+00  0.00000000000E+00  0.45593999997E+02  0.45594000000E+02  0.51100000000E-03 0.  1.
         11   -1    0    0    0    0 -0.00000000000E+00 -0.00000000000E+00 -0.45593999997E+02  0.45594000000E+02  0.51100000000E-03 0. -1.
    9900012    2    1    2    0    0 -0.62301533447E+01 -0.62730453867E+01  0.16507658238E+02  0.72461850112E+02  0.70000364513E+02 0.  0.
         12    1    1    2    0    0  0.62301533447E+01  0.62730453867E+01 -0.16507658238E+02  0.18726149888E+02  0.00000000000E+00 0. -1.
         11    1    3    3    0    0 -0.16923175409E+02 -0.20456602668E+02 -0.12959432407E+02  0.29543414616E+02  0.51100000000E-03 0. -1.
        -11    1    3    3    0    0 -0.59280899902E+01  0.13039961491E+02  0.11105793118E+02  0.18125161728E+02  0.51100000000E-03 0.  1.
        -12    1    3    3    0    0  0.16621112054E+02  0.11435957901E+01  0.18361297527E+02  0.24793273768E+02  0.00000000000E+00 0.  1.
</event>
<event>
 7    1  0.3162486E-013  0.7246189E+02  0.7816164E-02  0.1226707E+00
        -11   -1    0    0    0    0  0.00000000000E+00  0.00000000000E+00  0.45593999997E+02  0.45594000000E+02  0.51100000000E-03 0.  1.
         11   -1    0    0    0    0 -0.00000000000E+00 -0.00000000000E+00 -0.45593999997E+02  0.45594000000E+02  0.51100000000E-03 0. -1.
    9900012    2    1    2    0    0  0.11624074501E+02 -0.29529615500E+01 -0.14381517167E+02  0.72461891863E+02  0.70000418902E+02 0.  0.
         12    1    1    2    0    0 -0.11624074501E+02  0.29529615500E+01  0.14381517167E+02  0.18726108137E+02  0.00000000000E+00 0. -1.
         11    1    3    3    0    0 -0.22131935248E+02 -0.20657261242E+02 -0.72981040230E+01  0.31141729599E+02  0.51100000000E-03 0. -1.
        -11    1    3    3    0    0  0.41329095078E+01  0.64507845404E+01  0.27517081307E+01  0.81403599481E+01  0.51100000000E-03 0.  1.
        -12    1    3    3    0    0  0.29623100242E+02  0.11253515151E+02 -0.98351212749E+01  0.33179802315E+02  0.00000000000E+00 0.  1.
</event>
<event>
 7    1  0.3162486E-013  0.7246155E+02  0.7816164E-02  0.1226708E+00
        -11   -1    0    0    0    0  0.00000000000E+00  0.00000000000E+00  0.45593999997E+02  0.45594000000E+02  0.51100000000E-03 0.  1.
         11   -1    0    0    0    0 -0.00000000000E+00 -0.00000000000E+00 -0.45593999997E+02  0.45594000000E+02  0.51100000000E-03 0. -1.
    9900012    2    1    2    0    0 -0.10641353781E+01 -0.18563723201E+02  0.22216588324E+01  0.72461548890E+02  0.69999972117E+02 0.  0.
         12    1    1    2    0    0  0.10641353781E+01  0.18563723201E+02 -0.22216588324E+01  0.18726451110E+02  0.00000000000E+00 0. -1.
         11    1    3    3    0    0 -0.50643519617E+00  0.21125535693E+02 -0.74238258941E+01  0.22397721448E+02  0.51100000000E-03 0. -1.
        -11    1    3    3    0    0 -0.35840251588E+01 -0.44287939981E+01 -0.85467745968E+01  0.10271650738E+02  0.51100000000E-03 0.  1.
        -12    1    3    3    0    0  0.30263249769E+01 -0.35260464896E+02  0.18192259323E+02  0.39792176704E+02  0.00000000000E+00 0.  1.
</event>
<event>
 7    1  0.3162486E-013  0.7246158E+02  0.7816164E-02  0.1226708E+00
        -11   -1    0    0    0    0  0.00000000000E+00  0.00000000000E+00  0.45593999997E+02  0.45594000000E+02  0.51100000000E-03 0.  1.
         11   -1    0    0    0    0 -0.00000000000E+00 -0.00000000000E+00 -0.45593999997E+02  0.45594000000E+02  0.51100000000E-03 0. -1.
    9900012    2    1    2    0    0  0.29987758485E+00  0.17512942958E+02  0.66246155238E+01  0.72461584741E+02  0.70000018820E+02 0.  0.
         12    1    1    2    0    0 -0.29987758485E+00 -0.17512942958E+02 -0.66246155238E+01  0.18726415259E+02  0.00000000000E+00 0. -1.
         11    1    3    3    0    0 -0.10786829857E+00  0.75106358561E+01  0.73522409842E+01  0.10510791325E+02  0.51100000000E-03 0. -1.
        -11    1    3    3    0    0 -0.14760065188E+02  0.30837133007E+02  0.73001060080E+01  0.34958258601E+02  0.51100000000E-03 0.  1.
         12    1    3    3    0    0  0.15167811071E+02 -0.20834825905E+02 -0.80277314685E+01  0.26992534815E+02  0.00000000000E+00 0. -1.
</event>
<event>
 7    1  0.3162486E-013  0.7246157E+02  0.7816164E-02  0.1226708E+00
        -11   -1    0    0    0    0  0.00000000000E+00  0.00000000000E+00  0.45593999997E+02  0.45594000000E+02  0.51100000000E-03 0.  1.
         11   -1    0    0    0    0 -0.00000000000E+00 -0.00000000000E+00 -0.45593999997E+02  0.45594000000E+02  0.51100000000E-03 0. -1.
    9900012    2    1    2    0    0 -0.99705846705E+01  0.15384788230E+02  0.38177216410E+01  0.72461567717E+02  0.69999996642E+02 0.  0.
         12    1    1    2    0    0  0.99705846705E+01 -0.15384788230E+02 -0.38177216410E+01  0.18726432283E+02  0.00000000000E+00 0. -1.
         11    1    3    3    0    0 -0.91522608790E+01  0.39142578205E+01  0.79969860541E+00  0.99862311011E+01  0.51100000000E-03 0. -1.
        -11    1    3    3    0    0 -0.27457077198E+02  0.10624036948E+02  0.15243378402E+02  0.33153006420E+02  0.51100000000E-03 0.  1.
         12    1    3    3    0    0  0.26638753407E+02  0.84649346098E+00 -0.12225355366E+02  0.29322330195E+02  0.00000000000E+00 0. -1.
</event>
<event>
 7    1  0.3162486E-013  0.7246155E+02  0.7816164E-02  0.1226708E+00
        -11   -1    0    0    0    0  0.00000000000E+00  0.00000000000E+00  0.45593999997E+02  0.45594000000E+02  0.51100000000E-03 0. -1.
         11   -1    0    0    0    0 -0.00000000000E+00 -0.00000000000E+00 -0.45593999997E+02  0.45594000000E+02  0.51100000000E-03 0.  1.
    9900012    2    1    2    0    0  0.91883602571E+00 -0.11948645981E+02 -0.14389775684E+02  0.72461546928E+02  0.69999969561E+02 0.  0.
         12    1    1    2    0    0 -0.91883602571E+00  0.11948645981E+02  0.14389775684E+02  0.18726453072E+02  0.00000000000E+00 0. -1.
         11    1    3    3    0    0 -0.90459320298E+01  0.15589325023E+02  0.13597457242E+01  0.18074978552E+02  0.51100000000E-03 0. -1.
        -11    1    3    3    0    0  0.43810529653E+01  0.11603780654E+02 -0.53203349939E+01  0.13496196326E+02  0.51100000000E-03 0.  1.
        -12    1    3    3    0    0  0.55837150902E+01 -0.39141751659E+02 -0.10429186414E+02  0.40890372050E+02  0.00000000000E+00 0.  1.
</event>
<event>
 7    1  0.3162486E-013  0.7246155E+02  0.7816164E-02  0.1226708E+00
        -11   -1    0    0    0    0  0.00000000000E+00  0.00000000000E+00  0.45593999997E+02  0.45594000000E+02  0.51100000000E-03 0.  1.
         11   -1    0    0    0    0 -0.00000000000E+00 -0.00000000000E+00 -0.45593999997E+02  0.45594000000E+02  0.51100000000E-03 0. -1.
    9900012    2    1    2    0    0 -0.38365705553E+01  0.28158722815E+01  0.18111643537E+02  0.72461547000E+02  0.69999969655E+02 0.  0.
         12    1    1    2    0    0  0.38365705553E+01 -0.28158722815E+01 -0.18111643537E+02  0.18726453000E+02  0.00000000000E+00 0. -1.
         11    1    3    3    0    0 -0.10432573562E+02 -0.46047526512E+01  0.13150199569E+02  0.17406035938E+02  0.51100000000E-03 0.  1.
        -11    1    3    3    0    0 -0.80551690001E+01  0.20313461780E+00 -0.22057843850E+02  0.23483515215E+02  0.51100000000E-03 0. -1.
        -12    1    3    3    0    0  0.14651172007E+02  0.72174903148E+01  0.27019287818E+02  0.31571995848E+02  0.00000000000E+00 0.  1.
</event>
<event>
 7    1  0.3162486E-013  0.7246164E+02  0.7816164E-02  0.1226708E+00
        -11   -1    0    0    0    0  0.00000000000E+00  0.00000000000E+00  0.45593999997E+02  0.45594000000E+02  0.51100000000E-03 0.  1.
         11   -1    0    0    0    0 -0.00000000000E+00 -0.00000000000E+00 -0.45593999997E+02  0.45594000000E+02  0.51100000000E-03 0. -1.
    9900012    2    1    2    0    0  0.99921383863E+00 -0.14177374433E+02  0.12193448240E+02  0.72461640127E+02  0.70000090970E+02 0.  0.
         12    1    1    2    0    0 -0.99921383863E+00  0.14177374433E+02 -0.12193448240E+02  0.18726359873E+02  0.00000000000E+00 0. -1.
         11    1    3    3    0    0  0.15806380986E+02  0.74191394479E+01 -0.15906082742E+02  0.23619669314E+02  0.51100000000E-03 0. -1.
        -11    1    3    3    0    0  0.50332739452E+01 -0.15920643829E+02  0.41060781602E+01  0.17194784810E+02  0.51100000000E-03 0.  1.
        -12    1    3    3    0    0 -0.19840441093E+02 -0.56758700517E+01  0.23993452823E+02  0.31647186004E+02  0.00000000000E+00 0.  1.
</event>
<event>
 7    1  0.3162486E-013  0.7246158E+02  0.7816164E-02  0.1226708E+00
        -11   -1    0    0    0    0  0.00000000000E+00  0.00000000000E+00  0.45593999997E+02  0.45594000000E+02  0.51100000000E-03 0.  1.
         11   -1    0    0    0    0 -0.00000000000E+00 -0.00000000000E+00 -0.45593999997E+02  0.45594000000E+02  0.51100000000E-03 0. -1.
    9900012    2    1    2    0    0  0.22520580559E+01  0.14567523511E+02  0.11549651500E+02  0.72461575981E+02  0.70000007408E+02 0.  0.
         12    1    1    2    0    0 -0.22520580559E+01 -0.14567523511E+02 -0.11549651500E+02  0.18726424019E+02  0.00000000000E+00 0. -1.
         11    1    3    3    0    0 -0.23623035774E+01  0.17443506624E+02  0.28884296772E+01  0.17838145302E+02  0.51100000000E-03 0. -1.
        -11    1    3    3    0    0  0.42243870625E+01  0.69013080711E+01  0.30040558774E+02  0.31111230623E+02  0.51100000000E-03 0.  1.
         12    1    3    3    0    0  0.38997457080E+00 -0.97772911837E+01 -0.21379336951E+02  0.23512200057E+02  0.00000000000E+00 0. -1.
</event>
<event>
 7    1  0.3162486E-013  0.7246133E+02  0.7816164E-02  0.1226709E+00
        -11   -1    0    0    0    0  0.00000000000E+00  0.00000000000E+00  0.45593999997E+02  0.45594000000E+02  0.51100000000E-03 0. -1.
         11   -1    0    0    0    0 -0.00000000000E+00 -0.00000000000E+00 -0.45593999997E+02  0.45594000000E+02  0.51100000000E-03 0.  1.
    9900012    2    1    2    0    0 -0.14384378168E+02 -0.72033793659E+01  0.95858793253E+01  0.72461332063E+02  0.69999689659E+02 0.  0.
         12    1    1    2    0    0  0.14384378168E+02  0.72033793659E+01 -0.95858793253E+01  0.18726667937E+02  0.00000000000E+00 0. -1.
         11    1    3    3    0    0  0.13353259938E+02 -0.25011585526E+01  0.79465679104E+01  0.15738909965E+02  0.51100000000E-03 0. -1.
        -11    1    3    3    0    0  0.12477033234E+02 -0.10013915413E+02  0.22359847282E+01  0.16154085805E+02  0.51100000000E-03 0.  1.
         12    1    3    3    0    0 -0.40214671340E+02  0.53116946001E+01 -0.59667331326E+00  0.40568336293E+02  0.00000000000E+00 0. -1.
</event>
<event>
 7    1  0.3162486E-013  0.7246160E+02  0.7816164E-02  0.1226708E+00
        -11   -1    0    0    0    0  0.00000000000E+00  0.00000000000E+00  0.45593999997E+02  0.45594000000E+02  0.51100000000E-03 0. -1.
         11   -1    0    0    0    0 -0.00000000000E+00 -0.00000000000E+00 -0.45593999997E+02  0.45594000000E+02  0.51100000000E-03 0.  1.
    9900012    2    1    2    0    0 -0.10615323447E+01  0.18204010469E+02 -0.42620664528E+01  0.72461599958E+02  0.70000038643E+02 0.  0.
         12    1    1    2    0    0  0.10615323447E+01 -0.18204010469E+02  0.42620664528E+01  0.18726400042E+02  0.00000000000E+00 0. -1.
         11    1    3    3    0    0  0.12078112424E+02 -0.10055549450E+02  0.11294177179E+01  0.15756600493E+02  0.51100000000E-03 0. -1.
        -11    1    3    3    0    0  0.15846209759E+01  0.24967096664E+02  0.16608410567E+02  0.30028423890E+02  0.51100000000E-03 0.  1.
        -12    1    3    3    0    0 -0.14724265744E+02  0.32924632542E+01 -0.21999894738E+02  0.26676575576E+02  0.00000000000E+00 0.  1.
</event>
<event>
 7    1  0.3162486E-013  0.7246154E+02  0.7816164E-02  0.1226708E+00
        -11   -1    0    0    0    0  0.00000000000E+00  0.00000000000E+00  0.45593999997E+02  0.45594000000E+02  0.51100000000E-03 0. -1.
         11   -1    0    0    0    0 -0.00000000000E+00 -0.00000000000E+00 -0.45593999997E+02  0.45594000000E+02  0.51100000000E-03 0.  1.
    9900012    2    1    2    0    0 -0.89519145560E+01  0.14557800400E+02 -0.76559675358E+01  0.72461543699E+02  0.69999965354E+02 0.  0.
         12    1    1    2    0    0  0.89519145560E+01 -0.14557800400E+02  0.76559675358E+01  0.18726456301E+02  0.00000000000E+00 0. -1.
         11    1    3    3    0    0 -0.19288148302E+02 -0.10378186050E+02  0.18255878399E+02  0.28513444320E+02  0.51100000000E-03 0. -1.
        -11    1    3    3    0    0 -0.28563932517E+01 -0.32528440651E+01 -0.39095256468E+01  0.58330410563E+01  0.51100000000E-03 0.  1.
        -12    1    3    3    0    0  0.13192626998E+02  0.28188830515E+02 -0.22002320288E+02  0.38115058323E+02  0.00000000000E+00 0.  1.
</event>
<event>
 7    1  0.3162486E-013  0.7246156E+02  0.7816164E-02  0.1226708E+00
        -11   -1    0    0    0    0  0.00000000000E+00  0.00000000000E+00  0.45593999997E+02  0.45594000000E+02  0.51100000000E-03 0. -1.
         11   -1    0    0    0    0 -0.00000000000E+00 -0.00000000000E+00 -0.45593999997E+02  0.45594000000E+02  0.51100000000E-03 0.  1.
    9900012    2    1    2    0    0  0.23978055361E+01  0.11733819852E+02 -0.14396093685E+02  0.72461561121E+02  0.69999988051E+02 0.  0.
         12    1    1    2    0    0 -0.23978055361E+01 -0.11733819852E+02  0.14396093685E+02  0.18726438879E+02  0.00000000000E+00 0. -1.
         11    1    3    3    0    0  0.11020943800E+02  0.73370326188E+01  0.13071357172E+02  0.18605204339E+02  0.51100000000E-03 0. -1.
        -11    1    3    3    0    0 -0.73293937254E+01 -0.12507576287E+02  0.65042688742E+01  0.15889146950E+02  0.51100000000E-03 0.  1.
        -12    1    3    3    0    0 -0.12937445390E+01  0.16904363520E+02 -0.33971719731E+02  0.37967209832E+02  0.00000000000E+00 0.  1.
</event>
<event>
 7    1  0.3162486E-013  0.7246159E+02  0.7816164E-02  0.1226708E+00
        -11   -1    0    0    0    0  0.00000000000E+00  0.00000000000E+00  0.45593999997E+02  0.45594000000E+02  0.51100000000E-03 0. -1.
         11   -1    0    0    0    0 -0.00000000000E+00 -0.00000000000E+00 -0.45593999997E+02  0.45594000000E+02  0.51100000000E-03 0.  1.
    9900012    2    1    2    0    0  0.49350352400E+01 -0.13623961563E+02 -0.11862195947E+02  0.72461585656E+02  0.70000020011E+02 0.  0.
         12    1    1    2    0    0 -0.49350352400E+01  0.13623961563E+02  0.11862195947E+02  0.18726414344E+02  0.00000000000E+00 0. -1.
         11    1    3    3    0    0  0.27421290061E+02  0.11695759590E+02 -0.20337228353E+02  0.36087682086E+02  0.51100000000E-03 0. -1.
        -11    1    3    3    0    0  0.30595274293E+00  0.50914190784E+00  0.94030892276E+00  0.11122111735E+01  0.51100000000E-03 0.  1.
        -12    1    3    3    0    0 -0.22792207564E+02 -0.25828863061E+02  0.75347234833E+01  0.35261692396E+02  0.00000000000E+00 0.  1.
</event>
<event>
 7    1  0.3162486E-013  0.7246130E+02  0.7816164E-02  0.1226709E+00
        -11   -1    0    0    0    0  0.00000000000E+00  0.00000000000E+00  0.45593999997E+02  0.45594000000E+02  0.51100000000E-03 0. -1.
         11   -1    0    0    0    0 -0.00000000000E+00 -0.00000000000E+00 -0.45593999997E+02  0.45594000000E+02  0.51100000000E-03 0.  1.
    9900012    2    1    2    0    0 -0.65787544527E-01 -0.13041159707E+02 -0.13439242287E+02  0.72461296933E+02  0.69999643895E+02 0.  0.
         12    1    1    2    0    0  0.65787544527E-01  0.13041159707E+02  0.13439242287E+02  0.18726703067E+02  0.00000000000E+00 0. -1.
         11    1    3    3    0    0  0.20557094374E+02  0.15048208399E+02 -0.68968793687E+01  0.26393363757E+02  0.51100000000E-03 0. -1.
        -11    1    3    3    0    0  0.70756320176E+01 -0.10710923874E+02 -0.29560608913E+01  0.13172955437E+02  0.51100000000E-03 0.  1.
        -12    1    3    3    0    0 -0.27698513937E+02 -0.17378444232E+02 -0.35863020270E+01  0.32894977739E+02  0.00000000000E+00 0.  1.
</event>
<event>
 7    1  0.3162486E-013  0.7246169E+02  0.7816164E-02  0.1226708E+00
        -11   -1    0    0    0    0  0.00000000000E+00  0.00000000000E+00  0.45593999997E+02  0.45594000000E+02  0.51100000000E-03 0.  1.
         11   -1    0    0    0    0 -0.00000000000E+00 -0.00000000000E+00 -0.45593999997E+02  0.45594000000E+02  0.51100000000E-03 0. -1.
    9900012    2    1    2    0    0  0.11301877003E+02 -0.12258295388E+02  0.85250461326E+01  0.72461691203E+02  0.70000157506E+02 0.  0.
         12    1    1    2    0    0 -0.11301877003E+02  0.12258295388E+02 -0.85250461326E+01  0.18726308797E+02  0.00000000000E+00 0. -1.
         11    1    3    3    0    0  0.18868179251E+01 -0.13765891379E+02  0.99945404936E+01  0.17115802268E+02  0.51100000000E-03 0. -1.
        -11    1    3    3    0    0  0.21343906827E+02  0.10181278009E+01  0.20963107481E+02  0.29934107944E+02  0.51100000000E-03 0.  1.
         12    1    3    3    0    0 -0.11928847749E+02  0.48946819038E+00 -0.22432601842E+02  0.25411780991E+02  0.00000000000E+00 0. -1.
</event>
<event>
 7    1  0.3162486E-013  0.7246159E+02  0.7816164E-02  0.1226708E+00
        -11   -1    0    0    0    0  0.00000000000E+00  0.00000000000E+00  0.45593999997E+02  0.45594000000E+02  0.51100000000E-03 0.  1.
         11   -1    0    0    0    0 -0.00000000000E+00 -0.00000000000E+00 -0.45593999997E+02  0.45594000000E+02  0.51100000000E-03 0. -1.
    9900012    2    1    2    0    0  0.16565531462E+02 -0.62842062669E+01  0.60638544966E+01  0.72461590511E+02  0.70000026335E+02 0.  0.
         12    1    1    2    0    0 -0.16565531462E+02  0.62842062669E+01 -0.60638544966E+01  0.18726409489E+02  0.00000000000E+00 0. -1.
         11    1    3    3    0    0  0.17223928574E+02 -0.25402957985E+02 -0.12781354884E+02  0.33246609193E+02  0.51100000000E-03 0. -1.
        -11    1    3    3    0    0 -0.55539878232E+01  0.14728031249E+01 -0.60279301732E+01  0.83277771475E+01  0.51100000000E-03 0.  1.
        -12    1    3    3    0    0  0.48955907110E+01  0.17645948593E+02  0.24873139554E+02  0.30887204170E+02  0.00000000000E+00 0.  1.
</event>
<event>
 7    1  0.3162486E-013  0.7246160E+02  0.7816164E-02  0.1226708E+00
        -11   -1    0    0    0    0  0.00000000000E+00  0.00000000000E+00  0.45593999997E+02  0.45594000000E+02  0.51100000000E-03 0. -1.
         11   -1    0    0    0    0 -0.00000000000E+00 -0.00000000000E+00 -0.45593999997E+02  0.45594000000E+02  0.51100000000E-03 0.  1.
    9900012    2    1    2    0    0 -0.71659283257E+01  0.14726882964E+01 -0.17238294848E+02  0.72461597546E+02  0.70000035501E+02 0.  0.
         12    1    1    2    0    0  0.71659283257E+01 -0.14726882964E+01  0.17238294848E+02  0.18726402454E+02  0.00000000000E+00 0. -1.
         11    1    3    3    0    0  0.10347859204E+02 -0.15006233908E+02 -0.17525930467E+02  0.25286824340E+02  0.51100000000E-03 0. -1.
        -11    1    3    3    0    0  0.89102384372E+01 -0.73741413079E+01  0.49393572939E+00  0.11576453766E+02  0.51100000000E-03 0.  1.
        -12    1    3    3    0    0 -0.26424025967E+02  0.23853063512E+02 -0.20630011108E+00  0.35598319440E+02  0.00000000000E+00 0.  1.
</event>
<event>
 7    1  0.3162486E-013  0.7246157E+02  0.7816164E-02  0.1226708E+00
        -11   -1    0    0    0    0  0.00000000000E+00  0.00000000000E+00  0.45593999997E+02  0.45594000000E+02  0.51100000000E-03 0. -1.
         11   -1    0    0    0    0 -0.00000000000E+00 -0.00000000000E+00 -0.45593999997E+02  0.45594000000E+02  0.51100000000E-03 0.  1.
    9900012    2    1    2    0    0  0.95873052912E+01  0.32490085611E+01 -0.15754572866E+02  0.72461573604E+02  0.70000004312E+02 0.  0.
         12    1    1    2    0    0 -0.95873052912E+01 -0.32490085611E+01  0.15754572866E+02  0.18726426396E+02  0.00000000000E+00 0. -1.
         11    1    3    3    0    0  0.16772012331E+01 -0.13205194993E+02 -0.32064608745E+01  0.13692025795E+02  0.51100000000E-03 0. -1.
        -11    1    3    3    0    0  0.45983545462E+01 -0.20127863074E+02 -0.35157252554E+01  0.20943640104E+02  0.51100000000E-03 0.  1.
         12    1    3    3    0    0  0.33117495119E+01  0.36582066628E+02 -0.90323867357E+01  0.37825907706E+02  0.00000000000E+00 0. -1.
</event>
<event>
 7    1  0.3162486E-013  0.7246157E+02  0.7816164E-02  0.1226708E+00
        -11   -1    0    0    0    0  0.00000000000E+00  0.00000000000E+00  0.45593999997E+02  0.45594000000E+02  0.51100000000E-03 0.  1.
         11   -1    0    0    0    0 -0.00000000000E+00 -0.00000000000E+00 -0.45593999997E+02  0.45594000000E+02  0.51100000000E-03 0. -1.
    9900012    2    1    2    0    0  0.16355490619E+02 -0.68830696713E+01  0.59833550310E+01  0.72461567907E+02  0.69999996890E+02 0.  0.
         12    1    1    2    0    0 -0.16355490619E+02  0.68830696713E+01 -0.59833550310E+01  0.18726432093E+02  0.00000000000E+00 0. -1.
         11    1    3    3    0    0  0.25628810729E+02 -0.89873420022E+01 -0.23872749741E+02  0.36159596736E+02  0.51100000000E-03 0. -1.
        -11    1    3    3    0    0  0.54211892655E+01 -0.22933414289E+00  0.52680851780E+01  0.75627117428E+01  0.51100000000E-03 0.  1.
        -12    1    3    3    0    0 -0.14694509375E+02  0.23336064738E+01  0.24588019594E+02  0.28739259429E+02  0.00000000000E+00 0.  1.
</event>
<event>
 7    1  0.3162486E-013  0.7246160E+02  0.7816164E-02  0.1226708E+00
        -11   -1    0    0    0    0  0.00000000000E+00  0.00000000000E+00  0.45593999997E+02  0.45594000000E+02  0.51100000000E-03 0.  1.
         11   -1    0    0    0    0 -0.00000000000E+00 -0.00000000000E+00 -0.45593999997E+02  0.45594000000E+02  0.51100000000E-03 0. -1.
    9900012    2    1    2    0    0  0.10448918882E+02  0.15296480142E+02 -0.27414822214E+01  0.72461603248E+02  0.70000042928E+02 0.  0.
         12    1    1    2    0    0 -0.10448918882E+02 -0.15296480142E+02  0.27414822214E+01  0.18726396752E+02  0.00000000000E+00 0. -1.
         11    1    3    3    0    0  0.23150222649E+02 -0.12620153925E+00 -0.51157642051E+01  0.23709065338E+02  0.51100000000E-03 0. -1.
        -11    1    3    3    0    0 -0.98256832652E+01  0.49848927690E+01  0.22974910285E+02  0.25480182699E+02  0.51100000000E-03 0.  1.
         12    1    3    3    0    0 -0.28756205017E+01  0.10437788913E+02 -0.20600628301E+02  0.23272355211E+02  0.00000000000E+00 0. -1.
</event>
<event>
 7    1  0.3162486E-013  0.7246157E+02  0.7816164E-02  0.1226708E+00
        -11   -1    0    0    0    0  0.00000000000E+00  0.00000000000E+00  0.45593999997E+02  0.45594000000E+02  0.51100000000E-03 0.  1.
         11   -1    0    0    0    0 -0.00000000000E+00 -0.00000000000E+00 -0.45593999997E+02  0.45594000000E+02  0.51100000000E-03 0. -1.
    9900012    2    1    2    0    0  0.75404314619E+01  0.12145289476E+02  0.12095990004E+02  0.72461571155E+02  0.70000001121E+02 0.  0.
         12    1    1    2    0    0 -0.75404314619E+01 -0.12145289476E+02 -0.12095990004E+02  0.18726428845E+02  0.00000000000E+00 0. -1.
         11    1    3    3    0    0  0.28024299910E+01 -0.16722052375E+02  0.70635612321E+01  0.18367758356E+02  0.51100000000E-03 0. -1.
        -11    1    3    3    0    0  0.22239869511E+02  0.28752054107E+02  0.38161173178E+01  0.36549352427E+02  0.51100000000E-03 0.  1.
         12    1    3    3    0    0 -0.17501868040E+02  0.11528774512E+00  0.12163114546E+01  0.17544460371E+02  0.00000000000E+00 0. -1.
</event>
<event>
 7    1  0.3162486E-013  0.7246163E+02  0.7816164E-02  0.1226708E+00
        -11   -1    0    0    0    0  0.00000000000E+00  0.00000000000E+00  0.45593999997E+02  0.45594000000E+02  0.51100000000E-03 0.  1.
         11   -1    0    0    0    0 -0.00000000000E+00 -0.00000000000E+00 -0.45593999997E+02  0.45594000000E+02  0.51100000000E-03 0. -1.
    9900012    2    1    2    0    0  0.34630287739E+00 -0.12335820108E+02  0.14084899540E+02  0.72461634136E+02  0.70000083166E+02 0.  0.
         12    1    1    2    0    0 -0.34630287739E+00  0.12335820108E+02 -0.14084899540E+02  0.18726365864E+02  0.00000000000E+00 0. -1.
         11    1    3    3    0    0  0.10853682235E+02 -0.19750559036E+02  0.15747094766E+02  0.27492871697E+02  0.51100000000E-03 0. -1.
        -11    1    3    3    0    0 -0.81795706032E+01 -0.10212505918E+02  0.15481201823E+02  0.20269885607E+02  0.51100000000E-03 0.  1.
         12    1    3    3    0    0 -0.23278087546E+01  0.17627244845E+02 -0.17143397049E+02  0.24698876833E+02  0.00000000000E+00 0. -1.
</event>
<event>
 7    1  0.3162486E-013  0.7246155E+02  0.7816164E-02  0.1226708E+00
        -11   -1    0    0    0    0  0.00000000000E+00  0.00000000000E+00  0.45593999997E+02  0.45594000000E+02  0.51100000000E-03 0. -1.
         11   -1    0    0    0    0 -0.00000000000E+00 -0.00000000000E+00 -0.45593999997E+02  0.45594000000E+02  0.51100000000E-03 0.  1.
    9900012    2    1    2    0    0 -0.52500688320E+01  0.15024858353E+02  0.98676409521E+01  0.72461550010E+02  0.69999973576E+02 0.  0.
         12    1    1    2    0    0  0.52500688320E+01 -0.15024858353E+02 -0.98676409521E+01  0.18726449990E+02  0.00000000000E+00 0. -1.
         11    1    3    3    0    0  0.34021826207E+01 -0.46252024961E+01  0.97022546801E+01  0.11273911959E+02  0.51100000000E-03 0. -1.
        -11    1    3    3    0    0  0.18152888253E+02  0.13560085747E+02  0.17552782236E+02  0.28661881338E+02  0.51100000000E-03 0.  1.
        -12    1    3    3    0    0 -0.26805139705E+02  0.60899751021E+01 -0.17387395964E+02  0.32525756713E+02  0.00000000000E+00 0.  1.
</event>
<event>
 7    1  0.3162486E-013  0.7246164E+02  0.7816164E-02  0.1226708E+00
        -11   -1    0    0    0    0  0.00000000000E+00  0.00000000000E+00  0.45593999997E+02  0.45594000000E+02  0.51100000000E-03 0.  1.
         11   -1    0    0    0    0 -0.00000000000E+00 -0.00000000000E+00 -0.45593999997E+02  0.45594000000E+02  0.51100000000E-03 0. -1.
    9900012    2    1    2    0    0 -0.36354504862E+01  0.11108058880E+02 -0.14631164027E+02  0.72461643357E+02  0.70000095178E+02 0.  0.
         12    1    1    2    0    0  0.36354504862E+01 -0.11108058880E+02  0.14631164027E+02  0.18726356643E+02  0.00000000000E+00 0. -1.
         11    1    3    3    0    0  0.13575406733E+02 -0.14279500204E+02  0.57631610338E+01  0.20528268787E+02  0.51100000000E-03 0. -1.
        -11    1    3    3    0    0 -0.11575686591E+01 -0.11707885752E+00  0.94493130298E+01  0.95206717019E+01  0.51100000000E-03 0.  1.
        -12    1    3    3    0    0 -0.16053288560E+02  0.25504637941E+02 -0.29843638091E+02  0.42412702868E+02  0.00000000000E+00 0.  1.
</event>
<event>
 7    1  0.3162486E-013  0.7246176E+02  0.7816164E-02  0.1226708E+00
        -11   -1    0    0    0    0  0.00000000000E+00  0.00000000000E+00  0.45593999997E+02  0.45594000000E+02  0.51100000000E-03 0. -1.
         11   -1    0    0    0    0 -0.00000000000E+00 -0.00000000000E+00 -0.45593999997E+02  0.45594000000E+02  0.51100000000E-03 0.  1.
    9900012    2    1    2    0    0 -0.26584088495E+01  0.15348284810E+02 -0.10393995678E+02  0.72461758242E+02  0.70000244836E+02 0.  0.
         12    1    1    2    0    0  0.26584088495E+01 -0.15348284810E+02  0.10393995678E+02  0.18726241758E+02  0.00000000000E+00 0. -1.
         11    1    3    3    0    0 -0.12308761645E+02  0.28393860526E+02 -0.11656216413E+01  0.30968945782E+02  0.51100000000E-03 0. -1.
        -11    1    3    3    0    0  0.12957936593E+02  0.10234646032E+02 -0.86213866973E+00  0.16534793119E+02  0.51100000000E-03 0.  1.
        -12    1    3    3    0    0 -0.33075837975E+01 -0.23280221747E+02 -0.83662353672E+01  0.24958019340E+02  0.00000000000E+00 0.  1.
</event>
<event>
 7    1  0.3162486E-013  0.7246174E+02  0.7816164E-02  0.1226708E+00
        -11   -1    0    0    0    0  0.00000000000E+00  0.00000000000E+00  0.45593999997E+02  0.45594000000E+02  0.51100000000E-03 0.  1.
         11   -1    0    0    0    0 -0.00000000000E+00 -0.00000000000E+00 -0.45593999997E+02  0.45594000000E+02  0.51100000000E-03 0. -1.
    9900012    2    1    2    0    0  0.31243719957E+01  0.16310671703E+02  0.86529160468E+01  0.72461743890E+02  0.70000226140E+02 0.  0.
         12    1    1    2    0    0 -0.31243719957E+01 -0.16310671703E+02 -0.86529160468E+01  0.18726256110E+02  0.00000000000E+00 0. -1.
         11    1    3    3    0    0  0.36050260183E+01  0.19701336958E+02 -0.66357329131E+01  0.21099095764E+02  0.51100000000E-03 0. -1.
        -11    1    3    3    0    0 -0.11499274557E+01  0.17421015508E+02 -0.87755558076E+01  0.19540329948E+02  0.51100000000E-03 0.  1.
        -12    1    3    3    0    0  0.66927343314E+00 -0.20811680763E+02  0.24064204768E+02  0.31822318178E+02  0.00000000000E+00 0.  1.
</event>
<event>
 7    1  0.3162486E-013  0.7246158E+02  0.7816164E-02  0.1226708E+00
        -11   -1    0    0    0    0  0.00000000000E+00  0.00000000000E+00  0.45593999997E+02  0.45594000000E+02  0.51100000000E-03 0.  1.
         11   -1    0    0    0    0 -0.00000000000E+00 -0.00000000000E+00 -0.45593999997E+02  0.45594000000E+02  0.51100000000E-03 0. -1.
    9900012    2    1    2    0    0 -0.59592124400E+01 -0.14858052603E+02  0.97162095211E+01  0.72461583698E+02  0.70000017461E+02 0.  0.
         12    1    1    2    0    0  0.59592124400E+01  0.14858052603E+02 -0.97162095211E+01  0.18726416302E+02  0.00000000000E+00 0. -1.
         11    1    3    3    0    0 -0.14779421274E+02 -0.14413804514E+02 -0.88299353555E+00  0.20663221715E+02  0.51100000000E-03 0. -1.
        -11    1    3    3    0    0 -0.14893299072E+02  0.70530991214E+01  0.19365699915E+02  0.25428073028E+02  0.51100000000E-03 0.  1.
         12    1    3    3    0    0  0.23713507906E+02 -0.74973472101E+01 -0.87664968583E+01  0.26370288955E+02  0.00000000000E+00 0. -1.
</event>
<event>
 7    1  0.3162486E-013  0.7246162E+02  0.7816164E-02  0.1226708E+00
        -11   -1    0    0    0    0  0.00000000000E+00  0.00000000000E+00  0.45593999997E+02  0.45594000000E+02  0.51100000000E-03 0.  1.
         11   -1    0    0    0    0 -0.00000000000E+00 -0.00000000000E+00 -0.45593999997E+02  0.45594000000E+02  0.51100000000E-03 0. -1.
    9900012    2    1    2    0    0 -0.80177123769E+01  0.32631335614E+01  0.16605583980E+02  0.72461623636E+02  0.70000069488E+02 0.  0.
         12    1    1    2    0    0  0.80177123769E+01 -0.32631335614E+01 -0.16605583980E+02  0.18726376364E+02  0.00000000000E+00 0. -1.
         11    1    3    3    0    0 -0.12422639051E+02 -0.17467029179E+01 -0.21682787511E+02  0.25050273583E+02  0.51100000000E-03 0. -1.
        -11    1    3    3    0    0 -0.82859360373E+01  0.77417783255E+01  0.64911132980E+01  0.13066232042E+02  0.51100000000E-03 0.  1.
        -12    1    3    3    0    0  0.12690862712E+02 -0.27319418462E+01  0.31797258193E+02  0.34345118011E+02  0.00000000000E+00 0.  1.
</event>
<event>
 7    1  0.3162486E-013  0.7246159E+02  0.7816164E-02  0.1226708E+00
        -11   -1    0    0    0    0  0.00000000000E+00  0.00000000000E+00  0.45593999997E+02  0.45594000000E+02  0.51100000000E-03 0. -1.
         11   -1    0    0    0    0 -0.00000000000E+00 -0.00000000000E+00 -0.45593999997E+02  0.45594000000E+02  0.51100000000E-03 0.  1.
    9900012    2    1    2    0    0  0.17960461169E+02 -0.25209156896E+01  0.46631990207E+01  0.72461585329E+02  0.70000019585E+02 0.  0.
         12    1    1    2    0    0 -0.17960461169E+02  0.25209156896E+01 -0.46631990207E+01  0.18726414671E+02  0.00000000000E+00 0. -1.
         11    1    3    3    0    0 -0.16998460122E+02  0.42747458496E+01  0.16567026497E+02  0.24118197814E+02  0.51100000000E-03 0. -1.
        -11    1    3    3    0    0 -0.10609352530E+01  0.72808864286E+01 -0.54020510138E+01  0.91279267205E+01  0.51100000000E-03 0.  1.
        -12    1    3    3    0    0  0.36019856544E+02 -0.14076547968E+02 -0.65017764621E+01  0.39215460794E+02  0.00000000000E+00 0.  1.
</event>
<event>
 7    1  0.3162486E-013  0.7246168E+02  0.7816164E-02  0.1226708E+00
        -11   -1    0    0    0    0  0.00000000000E+00  0.00000000000E+00  0.45593999997E+02  0.45594000000E+02  0.51100000000E-03 0.  1.
         11   -1    0    0    0    0 -0.00000000000E+00 -0.00000000000E+00 -0.45593999997E+02  0.45594000000E+02  0.51100000000E-03 0. -1.
    9900012    2    1    2    0    0 -0.27908797361E+01  0.16299856512E+02  0.87864019901E+01  0.72461676497E+02  0.70000138348E+02 0.  0.
         12    1    1    2    0    0  0.27908797361E+01 -0.16299856512E+02 -0.87864019901E+01  0.18726323503E+02  0.00000000000E+00 0. -1.
         11    1    3    3    0    0  0.47936446695E+01 -0.11288132698E+02 -0.50040108317E+01  0.13245417838E+02  0.51100000000E-03 0. -1.
        -11    1    3    3    0    0  0.18082013596E+02  0.91337349917E+01  0.18280667213E+02  0.27286757312E+02  0.51100000000E-03 0.  1.
         12    1    3    3    0    0 -0.25666538001E+02  0.18454254219E+02 -0.44902543914E+01  0.31929501347E+02  0.00000000000E+00 0. -1.
</event>
<event>
 7    1  0.3162486E-013  0.7246144E+02  0.7816164E-02  0.1226708E+00
        -11   -1    0    0    0    0  0.00000000000E+00  0.00000000000E+00  0.45593999997E+02  0.45594000000E+02  0.51100000000E-03 0.  1.
         11   -1    0    0    0    0 -0.00000000000E+00 -0.00000000000E+00 -0.45593999997E+02  0.45594000000E+02  0.51100000000E-03 0. -1.
    9900012    2    1    2    0    0  0.15246626523E+02  0.38510253865E+01 -0.10168286029E+02  0.72461439781E+02  0.69999829983E+02 0.  0.
         12    1    1    2    0    0 -0.15246626523E+02 -0.38510253865E+01  0.10168286029E+02  0.18726560219E+02  0.00000000000E+00 0. -1.
         11    1    3    3    0    0 -0.22564435482E+02  0.13631074810E+02 -0.18009059500E+02  0.31926261501E+02  0.51100000000E-03 0. -1.
        -11    1    3    3    0    0  0.57666220454E+00 -0.11456965791E+00  0.14169134454E+01  0.15340500244E+01  0.51100000000E-03 0.  1.
        -12    1    3    3    0    0  0.37234399801E+02 -0.96654797655E+01  0.64238600256E+01  0.39001128256E+02  0.00000000000E+00 0.  1.
</event>
<event>
 7    1  0.3162486E-013  0.7246157E+02  0.7816164E-02  0.1226708E+00
        -11   -1    0    0    0    0  0.00000000000E+00  0.00000000000E+00  0.45593999997E+02  0.45594000000E+02  0.51100000000E-03 0. -1.
         11   -1    0    0    0    0 -0.00000000000E+00 -0.00000000000E+00 -0.45593999997E+02  0.45594000000E+02  0.51100000000E-03 0.  1.
    9900012    2    1    2    0    0  0.62631672235E+00 -0.10208406950E+02 -0.15686783658E+02  0.72461574110E+02  0.70000004970E+02 0.  0.
         12    1    1    2    0    0 -0.62631672235E+00  0.10208406950E+02  0.15686783658E+02  0.18726425890E+02  0.00000000000E+00 0. -1.
         11    1    3    3    0    0  0.24089584898E+02 -0.40332811975E+01  0.15174111255E+02  0.28754636329E+02  0.51100000000E-03 0. -1.
        -11    1    3    3    0    0  0.29158908525E+01  0.15744250515E+01 -0.47370406765E+01  0.57810715562E+01  0.51100000000E-03 0.  1.
        -12    1    3    3    0    0 -0.26379159028E+02 -0.77495508040E+01 -0.26123854236E+02  0.37925866224E+02  0.00000000000E+00 0.  1.
</event>
<event>
 7    1  0.3162486E-013  0.7246171E+02  0.7816164E-02  0.1226708E+00
        -11   -1    0    0    0    0  0.00000000000E+00  0.00000000000E+00  0.45593999997E+02  0.45594000000E+02  0.51100000000E-03 0. -1.
         11   -1    0    0    0    0 -0.00000000000E+00 -0.00000000000E+00 -0.45593999997E+02  0.45594000000E+02  0.51100000000E-03 0.  1.
    9900012    2    1    2    0    0  0.15119679502E+02 -0.27397451179E+01  0.10703416623E+02  0.72461707282E+02  0.70000178452E+02 0.  0.
         12    1    1    2    0    0 -0.15119679502E+02  0.27397451179E+01 -0.10703416623E+02  0.18726292718E+02  0.00000000000E+00 0. -1.
         11    1    3    3    0    0 -0.11939298819E+02 -0.17679138491E+02  0.19294989195E+02  0.28764481611E+02  0.51100000000E-03 0. -1.
        -11    1    3    3    0    0  0.83108328066E+00  0.16439427885E+02 -0.48591135692E+01  0.17162647626E+02  0.51100000000E-03 0.  1.
        -12    1    3    3    0    0  0.26227895040E+02 -0.15000345121E+01 -0.37324590032E+01  0.26534578044E+02  0.00000000000E+00 0.  1.
</event>
<event>
 7    1  0.3162486E-013  0.7246150E+02  0.7816164E-02  0.1226708E+00
        -11   -1    0    0    0    0  0.00000000000E+00  0.00000000000E+00  0.45593999997E+02  0.45594000000E+02  0.51100000000E-03 0.  1.
         11   -1    0    0    0    0 -0.00000000000E+00 -0.00000000000E+00 -0.45593999997E+02  0.45594000000E+02  0.51100000000E-03 0. -1.
    9900012    2    1    2    0    0 -0.40259910854E+01  0.17806731087E+02  0.41705636341E+01  0.72461497997E+02  0.69999905820E+02 0.  0.
         12    1    1    2    0    0  0.40259910854E+01 -0.17806731087E+02 -0.41705636341E+01  0.18726502003E+02  0.00000000000E+00 0. -1.
         11    1    3    3    0    0 -0.86094287751E+01  0.31784089038E+01 -0.28669424456E+02  0.30102498998E+02  0.51100000000E-03 0. -1.
        -11    1    3    3    0    0 -0.43042594173E+01 -0.31843981345E+01  0.13842672042E+02  0.14842055455E+02  0.51100000000E-03 0.  1.
        -12    1    3    3    0    0  0.88876971070E+01  0.17812720318E+02  0.18997316049E+02  0.27516943545E+02  0.00000000000E+00 0.  1.
</event>
<event>
 7    1  0.3162486E-013  0.7246156E+02  0.7816164E-02  0.1226708E+00
        -11   -1    0    0    0    0  0.00000000000E+00  0.00000000000E+00  0.45593999997E+02  0.45594000000E+02  0.51100000000E-03 0. -1.
         11   -1    0    0    0    0 -0.00000000000E+00 -0.00000000000E+00 -0.45593999997E+02  0.45594000000E+02  0.51100000000E-03 0.  1.
    9900012    2    1    2    0    0  0.15849472318E+02  0.87082471490E+01  0.48621273499E+01  0.72461558172E+02  0.69999984208E+02 0.  0.
         12    1    1    2    0    0 -0.15849472318E+02 -0.87082471490E+01 -0.48621273499E+01  0.18726441828E+02  0.00000000000E+00 0. -1.
         11    1    3    3    0    0  0.22665699432E+02  0.20857180661E+02 -0.11996909722E+01  0.30825236002E+02  0.51100000000E-03 0. -1.
        -11    1    3    3    0    0  0.10845913932E+02  0.32994687501E+01  0.12921066947E+02  0.17189366317E+02  0.51100000000E-03 0.  1.
        -12    1    3    3    0    0 -0.17662141046E+02 -0.15448402262E+02 -0.68592486251E+01  0.24446955853E+02  0.00000000000E+00 0.  1.
</event>
<event>
 7    1  0.3162486E-013  0.7246098E+02  0.7816164E-02  0.1226710E+00
        -11   -1    0    0    0    0  0.00000000000E+00  0.00000000000E+00  0.45593999997E+02  0.45594000000E+02  0.51100000000E-03 0. -1.
         11   -1    0    0    0    0 -0.00000000000E+00 -0.00000000000E+00 -0.45593999997E+02  0.45594000000E+02  0.51100000000E-03 0.  1.
    9900012    2    1    2    0    0  0.14371829989E+02  0.80596759190E+01 -0.88990774313E+01  0.72460975349E+02  0.69999224969E+02 0.  0.
         12    1    1    2    0    0 -0.14371829989E+02 -0.80596759190E+01  0.88990774313E+01  0.18727024651E+02  0.00000000000E+00 0. -1.
         11    1    3    3    0    0 -0.50024604475E+01 -0.26938029244E+02 -0.89933539400E+01  0.28836824468E+02  0.51100000000E-03 0. -1.
        -11    1    3    3    0    0 -0.10201718710E+01 -0.11858136629E+01 -0.13463558891E+01  0.20638747856E+01  0.51100000000E-03 0.  1.
        -12    1    3    3    0    0  0.20394462307E+02  0.36183518826E+02  0.14406323977E+01  0.41560276095E+02  0.00000000000E+00 0.  1.
</event>
<event>
 7    1  0.3162486E-013  0.7246158E+02  0.7816164E-02  0.1226708E+00
        -11   -1    0    0    0    0  0.00000000000E+00  0.00000000000E+00  0.45593999997E+02  0.45594000000E+02  0.51100000000E-03 0.  1.
         11   -1    0    0    0    0 -0.00000000000E+00 -0.00000000000E+00 -0.45593999997E+02  0.45594000000E+02  0.51100000000E-03 0. -1.
    9900012    2    1    2    0    0 -0.31828600425E+01 -0.13709253579E+02  0.12353326526E+02  0.72461577277E+02  0.70000009097E+02 0.  0.
         12    1    1    2    0    0  0.31828600425E+01  0.13709253579E+02 -0.12353326526E+02  0.18726422723E+02  0.00000000000E+00 0. -1.
         11    1    3    3    0    0  0.15985224465E+02 -0.11113333019E+02  0.33263346867E+01  0.19750900605E+02  0.51100000000E-03 0. -1.
        -11    1    3    3    0    0  0.82494357544E+01  0.11844862886E+02  0.15364430045E+02  0.21081263670E+02  0.51100000000E-03 0.  1.
         12    1    3    3    0    0 -0.27417520262E+02 -0.14440783445E+02 -0.63374382064E+01  0.31629413002E+02  0.00000000000E+00 0. -1.
</event>
<event>
 7    1  0.3162486E-013  0.7246158E+02  0.7816164E-02  0.1226708E+00
        -11   -1    0    0    0    0  0.00000000000E+00  0.00000000000E+00  0.45593999997E+02  0.45594000000E+02  0.51100000000E-03 0.  1.
         11   -1    0    0    0    0 -0.00000000000E+00 -0.00000000000E+00 -0.45593999997E+02  0.45594000000E+02  0.51100000000E-03 0. -1.
    9900012    2    1    2    0    0 -0.62257941439E+01  0.96893967194E+01  0.14765976262E+02  0.72461575449E+02  0.70000006714E+02 0.  0.
         12    1    1    2    0    0  0.62257941439E+01 -0.96893967194E+01 -0.14765976262E+02  0.18726424551E+02  0.00000000000E+00 0. -1.
         11    1    3    3    0    0 -0.66135328449E+01 -0.66020021246E+01  0.29850785501E+02  0.31279300568E+02  0.51100000000E-03 0. -1.
        -11    1    3    3    0    0  0.39960077753E+01  0.16925235366E+02  0.70361246629E+01  0.18760029874E+02  0.51100000000E-03 0.  1.
         12    1    3    3    0    0 -0.36082690743E+01 -0.63383652240E+00 -0.22120933902E+02  0.22422245006E+02  0.00000000000E+00 0. -1.
</event>
<event>
 7    1  0.3162486E-013  0.7246193E+02  0.7816164E-02  0.1226707E+00
        -11   -1    0    0    0    0  0.00000000000E+00  0.00000000000E+00  0.45593999997E+02  0.45594000000E+02  0.51100000000E-03 0. -1.
         11   -1    0    0    0    0 -0.00000000000E+00 -0.00000000000E+00 -0.45593999997E+02  0.45594000000E+02  0.51100000000E-03 0.  1.
    9900012    2    1    2    0    0  0.71901411244E+01 -0.10733780707E+02 -0.13555572784E+02  0.72461929105E+02  0.70000467416E+02 0.  0.
         12    1    1    2    0    0 -0.71901411244E+01  0.10733780707E+02  0.13555572784E+02  0.18726070895E+02  0.00000000000E+00 0. -1.
         11    1    3    3    0    0 -0.11173244885E+02 -0.54101908808E+00 -0.61113982556E+01  0.12746893418E+02  0.51100000000E-03 0. -1.
        -11    1    3    3    0    0  0.91058328540E+01  0.21487761252E+02 -0.12257154128E+02  0.26360536853E+02  0.51100000000E-03 0.  1.
         12    1    3    3    0    0  0.92575531552E+01 -0.31680522872E+02  0.48129796001E+01  0.33354498834E+02  0.00000000000E+00 0. -1.
</event>
<event>
 7    1  0.3162486E-013  0.7246162E+02  0.7816164E-02  0.1226708E+00
        -11   -1    0    0    0    0  0.00000000000E+00  0.00000000000E+00  0.45593999997E+02  0.45594000000E+02  0.51100000000E-03 0.  1.
         11   -1    0    0    0    0 -0.00000000000E+00 -0.00000000000E+00 -0.45593999997E+02  0.45594000000E+02  0.51100000000E-03 0. -1.
    9900012    2    1    2    0    0  0.15175975715E+02 -0.92942571193E+01  0.58295602653E+01  0.72461622155E+02  0.70000067558E+02 0.  0.
         12    1    1    2    0    0 -0.15175975715E+02  0.92942571193E+01 -0.58295602653E+01  0.18726377845E+02  0.00000000000E+00 0. -1.
         11    1    3    3    0    0 -0.20427699945E+02  0.28441601913E+01 -0.13936814636E+02  0.24892066501E+02  0.51100000000E-03 0. -1.
        -11    1    3    3    0    0 -0.15573265847E+01  0.92636934373E+00 -0.18898847568E+01  0.26182228529E+01  0.51100000000E-03 0.  1.
        -12    1    3    3    0    0  0.37161002245E+02 -0.13064786654E+02  0.21656259658E+02  0.44951332801E+02  0.00000000000E+00 0.  1.
</event>
<event>
 7    1  0.3162486E-013  0.7246167E+02  0.7816164E-02  0.1226708E+00
        -11   -1    0    0    0    0  0.00000000000E+00  0.00000000000E+00  0.45593999997E+02  0.45594000000E+02  0.51100000000E-03 0.  1.
         11   -1    0    0    0    0 -0.00000000000E+00 -0.00000000000E+00 -0.45593999997E+02  0.45594000000E+02  0.51100000000E-03 0. -1.
    9900012    2    1    2    0    0  0.62108546408E+01 -0.92773544010E+01  0.15034339331E+02  0.72461671498E+02  0.70000131836E+02 0.  0.
         12    1    1    2    0    0 -0.62108546408E+01  0.92773544010E+01 -0.15034339331E+02  0.18726328502E+02  0.00000000000E+00 0. -1.
         11    1    3    3    0    0 -0.79262230773E+01  0.18112537287E+02 -0.39008950830E+00  0.19774761423E+02  0.51100000000E-03 0. -1.
        -11    1    3    3    0    0 -0.42570611553E+01  0.87604040884E+01  0.41577088732E+01  0.10590268779E+02  0.51100000000E-03 0.  1.
        -12    1    3    3    0    0  0.18394138873E+02 -0.36150295777E+02  0.11266719966E+02  0.42096641296E+02  0.00000000000E+00 0.  1.
</event>
<event>
 7    1  0.3162486E-013  0.7246152E+02  0.7816164E-02  0.1226708E+00
        -11   -1    0    0    0    0  0.00000000000E+00  0.00000000000E+00  0.45593999997E+02  0.45594000000E+02  0.51100000000E-03 0. -1.
         11   -1    0    0    0    0 -0.00000000000E+00 -0.00000000000E+00 -0.45593999997E+02  0.45594000000E+02  0.51100000000E-03 0.  1.
    9900012    2    1    2    0    0  0.12316775590E+02 -0.13355089229E+02 -0.45408968687E+01  0.72461518386E+02  0.69999932380E+02 0.  0.
         12    1    1    2    0    0 -0.12316775590E+02  0.13355089229E+02  0.45408968687E+01  0.18726481614E+02  0.00000000000E+00 0. -1.
         11    1    3    3    0    0  0.29563178077E+02 -0.25755635291E+01  0.64041651102E+01  0.30358332572E+02  0.51100000000E-03 0. -1.
        -11    1    3    3    0    0 -0.10876483736E+02  0.94743315861E+01  0.53022824170E+01  0.15367988045E+02  0.51100000000E-03 0.  1.
        -12    1    3    3    0    0 -0.63699187511E+01 -0.20253857286E+02 -0.16247344396E+02  0.26735197770E+02  0.00000000000E+00 0.  1.
</event>
<event>
 7    1  0.3162486E-013  0.7246156E+02  0.7816164E-02  0.1226708E+00
        -11   -1    0    0    0    0  0.00000000000E+00  0.00000000000E+00  0.45593999997E+02  0.45594000000E+02  0.51100000000E-03 0.  1.
         11   -1    0    0    0    0 -0.00000000000E+00 -0.00000000000E+00 -0.45593999997E+02  0.45594000000E+02  0.51100000000E-03 0. -1.
    9900012    2    1    2    0    0  0.87280577191E+01  0.13093759734E+02  0.10151545631E+02  0.72461563761E+02  0.69999991489E+02 0.  0.
         12    1    1    2    0    0 -0.87280577191E+01 -0.13093759734E+02 -0.10151545631E+02  0.18726436239E+02  0.00000000000E+00 0. -1.
         11    1    3    3    0    0  0.41749274549E+01  0.17238275214E+02 -0.16900875291E+02  0.24499545658E+02  0.51100000000E-03 0. -1.
        -11    1    3    3    0    0  0.90959939184E+00  0.14190296351E+02  0.25509771124E+02  0.29205141751E+02  0.51100000000E-03 0.  1.
         12    1    3    3    0    0  0.36435308724E+01 -0.18334811831E+02  0.15426497976E+01  0.18756876352E+02  0.00000000000E+00 0. -1.
</event>
<event>
 7    1  0.3162486E-013  0.7246154E+02  0.7816164E-02  0.1226708E+00
        -11   -1    0    0    0    0  0.00000000000E+00  0.00000000000E+00  0.45593999997E+02  0.45594000000E+02  0.51100000000E-03 0. -1.
         11   -1    0    0    0    0 -0.00000000000E+00 -0.00000000000E+00 -0.45593999997E+02  0.45594000000E+02  0.51100000000E-03 0.  1.
    9900012    2    1    2    0    0  0.94097150114E+01 -0.79865820718E+01 -0.14083751517E+02  0.72461540468E+02  0.69999961146E+02 0.  0.
         12    1    1    2    0    0 -0.94097150114E+01  0.79865820718E+01  0.14083751517E+02  0.18726459532E+02  0.00000000000E+00 0. -1.
         11    1    3    3    0    0  0.52920037952E+01 -0.24926071110E+01 -0.14462429906E+02  0.15600649776E+02  0.51100000000E-03 0. -1.
        -11    1    3    3    0    0 -0.40588348637E+01  0.24155691289E+02  0.68434953376E+01  0.25432361094E+02  0.51100000000E-03 0.  1.
         12    1    3    3    0    0  0.81765460799E+01 -0.29649666250E+02 -0.64648169484E+01  0.31428529598E+02  0.00000000000E+00 0. -1.
</event>
<event>
 7    1  0.3162486E-013  0.7246173E+02  0.7816164E-02  0.1226708E+00
        -11   -1    0    0    0    0  0.00000000000E+00  0.00000000000E+00  0.45593999997E+02  0.45594000000E+02  0.51100000000E-03 0.  1.
         11   -1    0    0    0    0 -0.00000000000E+00 -0.00000000000E+00 -0.45593999997E+02  0.45594000000E+02  0.51100000000E-03 0. -1.
    9900012    2    1    2    0    0  0.17524262410E+02 -0.21307039644E-01  0.66009809389E+01  0.72461730314E+02  0.70000208455E+02 0.  0.
         12    1    1    2    0    0 -0.17524262410E+02  0.21307039644E-01 -0.66009809389E+01  0.18726269686E+02  0.00000000000E+00 0. -1.
         11    1    3    3    0    0  0.65459814373E+00  0.85021246805E+00 -0.10025524320E+02  0.10082782261E+02  0.51100000000E-03 0. -1.
        -11    1    3    3    0    0 -0.11218344149E+02 -0.12448422033E+01 -0.15838044170E+02  0.19448509479E+02  0.51100000000E-03 0.  1.
        -12    1    3    3    0    0  0.28088008415E+02  0.37332269557E+00  0.32464549429E+02  0.42930438574E+02  0.00000000000E+00 0.  1.
</event>
<event>
 7    1  0.3162486E-013  0.7246152E+02  0.7816164E-02  0.1226708E+00
        -11   -1    0    0    0    0  0.00000000000E+00  0.00000000000E+00  0.45593999997E+02  0.45594000000E+02  0.51100000000E-03 0.  1.
         11   -1    0    0    0    0 -0.00000000000E+00 -0.00000000000E+00 -0.45593999997E+02  0.45594000000E+02  0.51100000000E-03 0. -1.
    9900012    2    1    2    0    0 -0.17937572954E+02  0.59382947028E+00  0.53452611992E+01  0.72461522109E+02  0.69999937229E+02 0.  0.
         12    1    1    2    0    0  0.17937572954E+02 -0.59382947028E+00 -0.53452611992E+01  0.18726477891E+02  0.00000000000E+00 0. -1.
         11    1    3    3    0    0 -0.27224753806E+02 -0.14829020653E+02  0.17347904070E+01  0.31049904530E+02  0.51100000000E-03 0. -1.
        -11    1    3    3    0    0 -0.10076371143E+02 -0.64374405948E+01  0.23192215346E+01  0.12180011725E+02  0.51100000000E-03 0.  1.
         12    1    3    3    0    0  0.19363551995E+02  0.21860290718E+02  0.12912492575E+01  0.29231605854E+02  0.00000000000E+00 0. -1.
</event>
<event>
 7    1  0.3162486E-013  0.7246149E+02  0.7816164E-02  0.1226708E+00
        -11   -1    0    0    0    0  0.00000000000E+00  0.00000000000E+00  0.45593999997E+02  0.45594000000E+02  0.51100000000E-03 0.  1.
         11   -1    0    0    0    0 -0.00000000000E+00 -0.00000000000E+00 -0.45593999997E+02  0.45594000000E+02  0.51100000000E-03 0. -1.
    9900012    2    1    2    0    0 -0.10467973866E+02  0.10796709582E+01  0.15489931503E+02  0.72461490870E+02  0.69999896535E+02 0.  0.
         12    1    1    2    0    0  0.10467973866E+02 -0.10796709582E+01 -0.15489931503E+02  0.18726509130E+02  0.00000000000E+00 0. -1.
         11    1    3    3    0    0  0.19497370022E+01  0.88665601512E+01 -0.12122899248E+02  0.15145363968E+02  0.51100000000E-03 0. -1.
        -11    1    3    3    0    0 -0.23175382143E+01  0.39396540173E+01 -0.13039514303E+02  0.13817408971E+02  0.51100000000E-03 0.  1.
        -12    1    3    3    0    0 -0.10100172654E+02 -0.11726543210E+02  0.40652345053E+02  0.43498717931E+02  0.00000000000E+00 0.  1.
</event>
<event>
 7    1  0.3162486E-013  0.7246159E+02  0.7816164E-02  0.1226708E+00
        -11   -1    0    0    0    0  0.00000000000E+00  0.00000000000E+00  0.45593999997E+02  0.45594000000E+02  0.51100000000E-03 0. -1.
         11   -1    0    0    0    0 -0.00000000000E+00 -0.00000000000E+00 -0.45593999997E+02  0.45594000000E+02  0.51100000000E-03 0.  1.
    9900012    2    1    2    0    0 -0.12258360990E+02  0.10344739945E+02 -0.96642392598E+01  0.72461586057E+02  0.70000020534E+02 0.  0.
         12    1    1    2    0    0  0.12258360990E+02 -0.10344739945E+02  0.96642392598E+01  0.18726413943E+02  0.00000000000E+00 0. -1.
         11    1    3    3    0    0 -0.24351741806E+01  0.64177168461E+01 -0.24035546015E+02  0.24996492460E+02  0.51100000000E-03 0.  1.
        -11    1    3    3    0    0 -0.12401607790E+02 -0.85990076169E+01  0.26076427804E+02  0.30128439970E+02  0.51100000000E-03 0. -1.
         12    1    3    3    0    0  0.25784209806E+01  0.12526030715E+02 -0.11705121048E+02  0.17336653627E+02  0.00000000000E+00 0. -1.
</event>
<event>
 7    1  0.3162486E-013  0.7246159E+02  0.7816164E-02  0.1226708E+00
        -11   -1    0    0    0    0  0.00000000000E+00  0.00000000000E+00  0.45593999997E+02  0.45594000000E+02  0.51100000000E-03 0. -1.
         11   -1    0    0    0    0 -0.00000000000E+00 -0.00000000000E+00 -0.45593999997E+02  0.45594000000E+02  0.51100000000E-03 0.  1.
    9900012    2    1    2    0    0 -0.22086071494E+01  0.16630663241E+02 -0.83199561543E+01  0.72461586148E+02  0.70000020652E+02 0.  0.
         12    1    1    2    0    0  0.22086071494E+01 -0.16630663241E+02  0.83199561543E+01  0.18726413852E+02  0.00000000000E+00 0. -1.
         11    1    3    3    0    0 -0.18276901260E+02  0.24436126400E+02  0.37053398042E+01  0.30739208455E+02  0.51100000000E-03 0. -1.
        -11    1    3    3    0    0 -0.10771686256E+02 -0.74664951894E+01 -0.36934162041E+01  0.13616868169E+02  0.51100000000E-03 0.  1.
        -12    1    3    3    0    0  0.26839980366E+02 -0.33896797040E+00 -0.83318797544E+01  0.28105509524E+02  0.00000000000E+00 0.  1.
</event>
<event>
 7    1  0.3162486E-013  0.7246156E+02  0.7816164E-02  0.1226708E+00
        -11   -1    0    0    0    0  0.00000000000E+00  0.00000000000E+00  0.45593999997E+02  0.45594000000E+02  0.51100000000E-03 0.  1.
         11   -1    0    0    0    0 -0.00000000000E+00 -0.00000000000E+00 -0.45593999997E+02  0.45594000000E+02  0.51100000000E-03 0. -1.
    9900012    2    1    2    0    0 -0.17823268561E+02 -0.57371252789E+01 -0.31001477703E+00  0.72461558324E+02  0.69999984407E+02 0.  0.
         12    1    1    2    0    0  0.17823268561E+02  0.57371252789E+01  0.31001477703E+00  0.18726441676E+02  0.00000000000E+00 0. -1.
         11    1    3    3    0    0 -0.12316186199E+02 -0.21536634922E+02 -0.62608889856E+01  0.25587376134E+02  0.51100000000E-03 0. -1.
        -11    1    3    3    0    0 -0.50185074484E+01 -0.14574180566E+02 -0.18125452596E+01  0.15520227987E+02  0.51100000000E-03 0.  1.
        -12    1    3    3    0    0 -0.48857491382E+00  0.30373690209E+02  0.77634194682E+01  0.31353954204E+02  0.00000000000E+00 0.  1.
</event>
<event>
 7    1  0.3162486E-013  0.7246158E+02  0.7816164E-02  0.1226708E+00
        -11   -1    0    0    0    0  0.00000000000E+00  0.00000000000E+00  0.45593999997E+02  0.45594000000E+02  0.51100000000E-03 0. -1.
         11   -1    0    0    0    0 -0.00000000000E+00 -0.00000000000E+00 -0.45593999997E+02  0.45594000000E+02  0.51100000000E-03 0.  1.
    9900012    2    1    2    0    0 -0.56036398687E+01  0.46495308809E+01 -0.17252828007E+02  0.72461575049E+02  0.70000006194E+02 0.  0.
         12    1    1    2    0    0  0.56036398687E+01 -0.46495308809E+01  0.17252828007E+02  0.18726424951E+02  0.00000000000E+00 0. -1.
         11    1    3    3    0    0  0.42435637039E+01  0.80134608637E+01  0.14393664240E+02  0.17011788808E+02  0.51100000000E-03 0. -1.
        -11    1    3    3    0    0 -0.41357834842E+01 -0.18010060480E+02  0.17267930117E+01  0.18559331827E+02  0.51100000000E-03 0.  1.
         12    1    3    3    0    0 -0.57114200884E+01  0.14646130497E+02 -0.33373285259E+02  0.36890454414E+02  0.00000000000E+00 0. -1.
</event>
<event>
 7    1  0.3162486E-013  0.7246159E+02  0.7816164E-02  0.1226708E+00
        -11   -1    0    0    0    0  0.00000000000E+00  0.00000000000E+00  0.45593999997E+02  0.45594000000E+02  0.51100000000E-03 0.  1.
         11   -1    0    0    0    0 -0.00000000000E+00 -0.00000000000E+00 -0.45593999997E+02  0.45594000000E+02  0.51100000000E-03 0. -1.
    9900012    2    1    2    0    0 -0.89048288986E+01  0.11756217106E+02 -0.11540091225E+02  0.72461592874E+02  0.70000029415E+02 0.  0.
         12    1    1    2    0    0  0.89048288986E+01 -0.11756217106E+02  0.11540091225E+02  0.18726407126E+02  0.00000000000E+00 0. -1.
         11    1    3    3    0    0 -0.50815938986E+01  0.25301366313E+02 -0.23596163215E+02  0.34967994689E+02  0.51100000000E-03 0. -1.
        -11    1    3    3    0    0  0.10663213086E+02  0.27675771763E+01  0.11125865118E+02  0.15657217876E+02  0.51100000000E-03 0.  1.
        -12    1    3    3    0    0 -0.14486448086E+02 -0.16312726383E+02  0.93020687216E+00  0.21836380309E+02  0.00000000000E+00 0.  1.
</event>
<event>
 7    1  0.3162486E-013  0.7246157E+02  0.7816164E-02  0.1226708E+00
        -11   -1    0    0    0    0  0.00000000000E+00  0.00000000000E+00  0.45593999997E+02  0.45594000000E+02  0.51100000000E-03 0. -1.
         11   -1    0    0    0    0 -0.00000000000E+00 -0.00000000000E+00 -0.45593999997E+02  0.45594000000E+02  0.51100000000E-03 0.  1.
    9900012    2    1    2    0    0  0.93585868831E+01 -0.19802909914E+01 -0.16098898773E+02  0.72461568344E+02  0.69999997459E+02 0.  0.
         12    1    1    2    0    0 -0.93585868831E+01  0.19802909914E+01  0.16098898773E+02  0.18726431656E+02  0.00000000000E+00 0. -1.
         11    1    3    3    0    0  0.14275176541E+02 -0.12144353454E+02 -0.27422755910E+02  0.33215561535E+02  0.51100000000E-03 0.  1.
        -11    1    3    3    0    0  0.10336721191E+02  0.25393965029E+01  0.18017349449E+02  0.20926567349E+02  0.51100000000E-03 0. -1.
        -12    1    3    3    0    0 -0.15253310848E+02  0.76246659600E+01 -0.66934923121E+01  0.18319439461E+02  0.00000000000E+00 0.  1.
</event>
<event>
 7    1  0.3162486E-013  0.7246158E+02  0.7816164E-02  0.1226708E+00
        -11   -1    0    0    0    0  0.00000000000E+00  0.00000000000E+00  0.45593999997E+02  0.45594000000E+02  0.51100000000E-03 0.  1.
         11   -1    0    0    0    0 -0.00000000000E+00 -0.00000000000E+00 -0.45593999997E+02  0.45594000000E+02  0.51100000000E-03 0. -1.
    9900012    2    1    2    0    0 -0.17557123026E+02  0.60150672754E+01  0.24990073074E+01  0.72461584411E+02  0.70000018389E+02 0.  0.
         12    1    1    2    0    0  0.17557123026E+02 -0.60150672754E+01 -0.24990073074E+01  0.18726415589E+02  0.00000000000E+00 0. -1.
         11    1    3    3    0    0  0.11134813073E+02  0.71182080420E+01 -0.68221241559E+01  0.14872603207E+02  0.51100000000E-03 0. -1.
        -11    1    3    3    0    0 -0.16472382459E+02 -0.46163652812E+01 -0.19588499787E+02  0.26006913243E+02  0.51100000000E-03 0.  1.
         12    1    3    3    0    0 -0.12219553641E+02  0.35132245146E+01  0.28909631250E+02  0.31582067961E+02  0.00000000000E+00 0. -1.
</event>
<event>
 7    1  0.3162486E-013  0.7246158E+02  0.7816164E-02  0.1226708E+00
        -11   -1    0    0    0    0  0.00000000000E+00  0.00000000000E+00  0.45593999997E+02  0.45594000000E+02  0.51100000000E-03 0. -1.
         11   -1    0    0    0    0 -0.00000000000E+00 -0.00000000000E+00 -0.45593999997E+02  0.45594000000E+02  0.51100000000E-03 0.  1.
    9900012    2    1    2    0    0 -0.16566212041E+02  0.26437437821E+01 -0.83216553593E+01  0.72461582550E+02  0.70000015966E+02 0.  0.
         12    1    1    2    0    0  0.16566212041E+02 -0.26437437821E+01  0.83216553593E+01  0.18726417450E+02  0.00000000000E+00 0. -1.
         11    1    3    3    0    0 -0.16326017326E+02 -0.19875939570E+02  0.45900736178E+00  0.25725522415E+02  0.51100000000E-03 0. -1.
        -11    1    3    3    0    0 -0.88048113169E+00 -0.90774524392E+01 -0.11884322854E+02  0.14980404526E+02  0.51100000000E-03 0.  1.
        -12    1    3    3    0    0  0.64028641632E+00  0.31597135792E+02  0.31036601326E+01  0.31755655609E+02  0.00000000000E+00 0.  1.
</event>
<event>
 7    1  0.3162486E-013  0.7246169E+02  0.7816164E-02  0.1226708E+00
        -11   -1    0    0    0    0  0.00000000000E+00  0.00000000000E+00  0.45593999997E+02  0.45594000000E+02  0.51100000000E-03 0.  1.
         11   -1    0    0    0    0 -0.00000000000E+00 -0.00000000000E+00 -0.45593999997E+02  0.45594000000E+02  0.51100000000E-03 0. -1.
    9900012    2    1    2    0    0  0.47781741828E+01 -0.16065901506E+02  0.83504898199E+01  0.72461686429E+02  0.70000151287E+02 0.  0.
         12    1    1    2    0    0 -0.47781741828E+01  0.16065901506E+02 -0.83504898199E+01  0.18726313571E+02  0.00000000000E+00 0. -1.
         11    1    3    3    0    0 -0.52005000380E+01 -0.15525342979E+02 -0.11540787610E+02  0.20031756144E+02  0.51100000000E-03 0. -1.
        -11    1    3    3    0    0  0.26794634034E+02 -0.96135339940E+01  0.16855136797E+02  0.33082746040E+02  0.51100000000E-03 0.  1.
         12    1    3    3    0    0 -0.16815959813E+02  0.90729754677E+01  0.30361406331E+01  0.19347184245E+02  0.00000000000E+00 0. -1.
</event>
<event>
 7    1  0.3162486E-013  0.7246157E+02  0.7816164E-02  0.1226708E+00
        -11   -1    0    0    0    0  0.00000000000E+00  0.00000000000E+00  0.45593999997E+02  0.45594000000E+02  0.51100000000E-03 0.  1.
         11   -1    0    0    0    0 -0.00000000000E+00 -0.00000000000E+00 -0.45593999997E+02  0.45594000000E+02  0.51100000000E-03 0. -1.
    9900012    2    1    2    0    0  0.99222102127E+01 -0.14476831253E+02  0.65307176773E+01  0.72461570228E+02  0.69999999914E+02 0.  0.
         12    1    1    2    0    0 -0.99222102127E+01  0.14476831253E+02 -0.65307176773E+01  0.18726429772E+02  0.00000000000E+00 0. -1.
         11    1    3    3    0    0  0.42531032798E+01 -0.83702158007E+00 -0.11461432440E+01  0.44836522201E+01  0.51100000000E-03 0. -1.
        -11    1    3    3    0    0  0.38898617615E+01 -0.39599249841E+02  0.12089857387E+02  0.41586010441E+02  0.51100000000E-03 0.  1.
         12    1    3    3    0    0  0.17792451714E+01  0.25959440168E+02 -0.44129964660E+01  0.26391907567E+02  0.00000000000E+00 0. -1.
</event>
<event>
 7    1  0.3162486E-013  0.7246160E+02  0.7816164E-02  0.1226708E+00
        -11   -1    0    0    0    0  0.00000000000E+00  0.00000000000E+00  0.45593999997E+02  0.45594000000E+02  0.51100000000E-03 0.  1.
         11   -1    0    0    0    0 -0.00000000000E+00 -0.00000000000E+00 -0.45593999997E+02  0.45594000000E+02  0.51100000000E-03 0. -1.
    9900012    2    1    2    0    0 -0.14076491070E+02  0.21316301121E+00  0.12348477469E+02  0.72461603253E+02  0.70000042935E+02 0.  0.
         12    1    1    2    0    0  0.14076491070E+02 -0.21316301121E+00 -0.12348477469E+02  0.18726396747E+02  0.00000000000E+00 0. -1.
         11    1    3    3    0    0  0.78946149502E+01  0.45424554462E+01  0.80536898608E+01  0.12158156412E+02  0.51100000000E-03 0. -1.
        -11    1    3    3    0    0  0.12152942533E+02  0.15027052206E+02  0.79591938562E+01  0.20901078377E+02  0.51100000000E-03 0.  1.
        -12    1    3    3    0    0 -0.34124048553E+02 -0.19356344641E+02 -0.36644062477E+01  0.39402368465E+02  0.00000000000E+00 0.  1.
</event>
<event>
 7    1  0.3162486E-013  0.7246157E+02  0.7816164E-02  0.1226708E+00
        -11   -1    0    0    0    0  0.00000000000E+00  0.00000000000E+00  0.45593999997E+02  0.45594000000E+02  0.51100000000E-03 0. -1.
         11   -1    0    0    0    0 -0.00000000000E+00 -0.00000000000E+00 -0.45593999997E+02  0.45594000000E+02  0.51100000000E-03 0.  1.
    9900012    2    1    2    0    0 -0.17091924574E+02  0.96480761864E+00 -0.75904086456E+01  0.72461573678E+02  0.70000004407E+02 0.  0.
         12    1    1    2    0    0  0.17091924574E+02 -0.96480761864E+00  0.75904086456E+01  0.18726426322E+02  0.00000000000E+00 0. -1.
         11    1    3    3    0    0  0.40845188400E+01 -0.84653955864E+00  0.22112966429E+02  0.22502959982E+02  0.51100000000E-03 0. -1.
        -11    1    3    3    0    0  0.26571663439E+00 -0.12281125900E+02 -0.24476268502E+01  0.12525475486E+02  0.51100000000E-03 0.  1.
        -12    1    3    3    0    0 -0.21442160049E+02  0.14092473077E+02 -0.27255748224E+02  0.37433138210E+02  0.00000000000E+00 0.  1.
</event>
<event>
 7    1  0.3162486E-013  0.7246144E+02  0.7816164E-02  0.1226708E+00
        -11   -1    0    0    0    0  0.00000000000E+00  0.00000000000E+00  0.45593999997E+02  0.45594000000E+02  0.51100000000E-03 0. -1.
         11   -1    0    0    0    0 -0.00000000000E+00 -0.00000000000E+00 -0.45593999997E+02  0.45594000000E+02  0.51100000000E-03 0.  1.
    9900012    2    1    2    0    0 -0.75804664455E+01  0.15580914615E+02 -0.71032233901E+01  0.72461437200E+02  0.69999826620E+02 0.  0.
         12    1    1    2    0    0  0.75804664455E+01 -0.15580914615E+02  0.71032233901E+01  0.18726562800E+02  0.00000000000E+00 0. -1.
         11    1    3    3    0    0 -0.29363447241E+01  0.14316914615E+02 -0.55298532294E+01  0.15626114086E+02  0.51100000000E-03 0. -1.
        -11    1    3    3    0    0 -0.30605790996E+02  0.27907006812E+01  0.59543581598E+00  0.30738526263E+02  0.51100000000E-03 0.  1.
         12    1    3    3    0    0  0.25961669274E+02 -0.15267006810E+01 -0.21688059767E+01  0.26096796850E+02  0.00000000000E+00 0. -1.
</event>
<event>
 7    1  0.3162486E-013  0.7246190E+02  0.7816164E-02  0.1226707E+00
        -11   -1    0    0    0    0  0.00000000000E+00  0.00000000000E+00  0.45593999997E+02  0.45594000000E+02  0.51100000000E-03 0.  1.
         11   -1    0    0    0    0 -0.00000000000E+00 -0.00000000000E+00 -0.45593999997E+02  0.45594000000E+02  0.51100000000E-03 0. -1.
    9900012    2    1    2    0    0 -0.75718321701E+01 -0.92696042027E+01  0.14401689026E+02  0.72461899197E+02  0.70000428455E+02 0.  0.
         12    1    1    2    0    0  0.75718321701E+01  0.92696042027E+01 -0.14401689026E+02  0.18726100803E+02  0.00000000000E+00 0. -1.
         11    1    3    3    0    0  0.23513380309E+02 -0.21935629988E+02  0.54453314368E+01  0.32614453104E+02  0.51100000000E-03 0. -1.
        -11    1    3    3    0    0  0.16994221464E+01  0.57984469514E+00 -0.24979904326E+01  0.30763959376E+01  0.51100000000E-03 0.  1.
        -12    1    3    3    0    0 -0.32784634626E+02  0.12086181090E+02  0.11454348022E+02  0.36771050155E+02  0.00000000000E+00 0.  1.
</event>
<event>
 7    1  0.3162486E-013  0.7246163E+02  0.7816164E-02  0.1226708E+00
        -11   -1    0    0    0    0  0.00000000000E+00  0.00000000000E+00  0.45593999997E+02  0.45594000000E+02  0.51100000000E-03 0. -1.
         11   -1    0    0    0    0 -0.00000000000E+00 -0.00000000000E+00 -0.45593999997E+02  0.45594000000E+02  0.51100000000E-03 0.  1.
    9900012    2    1    2    0    0  0.17928642698E+02  0.57533087554E-01 -0.54071630203E+01  0.72461629530E+02  0.70000077165E+02 0.  0.
         12    1    1    2    0    0 -0.17928642698E+02 -0.57533087554E-01  0.54071630203E+01  0.18726370470E+02  0.00000000000E+00 0. -1.
         11    1    3    3    0    0 -0.15861547764E+02 -0.10285298198E+02 -0.46510138539E+01  0.19468127455E+02  0.51100000000E-03 0. -1.
        -11    1    3    3    0    0 -0.65878619520E+01  0.88157114892E+01 -0.55105454319E+01  0.12307835121E+02  0.51100000000E-03 0.  1.
        -12    1    3    3    0    0  0.40378052414E+02  0.15271197960E+01  0.47543962655E+01  0.40685666953E+02  0.00000000000E+00 0.  1.
</event>
<event>
 7    1  0.3162486E-013  0.7246158E+02  0.7816164E-02  0.1226708E+00
        -11   -1    0    0    0    0  0.00000000000E+00  0.00000000000E+00  0.45593999997E+02  0.45594000000E+02  0.51100000000E-03 0.  1.
         11   -1    0    0    0    0 -0.00000000000E+00 -0.00000000000E+00 -0.45593999997E+02  0.45594000000E+02  0.51100000000E-03 0. -1.
    9900012    2    1    2    0    0 -0.58209700068E+01 -0.17776025472E+02  0.89883852349E+00  0.72461583256E+02  0.70000016884E+02 0.  0.
         12    1    1    2    0    0  0.58209700068E+01  0.17776025472E+02 -0.89883852349E+00  0.18726416744E+02  0.00000000000E+00 0. -1.
         11    1    3    3    0    0 -0.17148701873E+02 -0.71885019805E+01  0.16227599564E+02  0.24679698631E+02  0.51100000000E-03 0. -1.
        -11    1    3    3    0    0 -0.13882121066E+02  0.42116001660E+01 -0.11053597842E+02  0.18238225977E+02  0.51100000000E-03 0.  1.
         12    1    3    3    0    0  0.25209852933E+02 -0.14799123657E+02 -0.42751631988E+01  0.29543658648E+02  0.00000000000E+00 0. -1.
</event>
<event>
 7    1  0.3162486E-013  0.7246157E+02  0.7816164E-02  0.1226708E+00
        -11   -1    0    0    0    0  0.00000000000E+00  0.00000000000E+00  0.45593999997E+02  0.45594000000E+02  0.51100000000E-03 0.  1.
         11   -1    0    0    0    0 -0.00000000000E+00 -0.00000000000E+00 -0.45593999997E+02  0.45594000000E+02  0.51100000000E-03 0. -1.
    9900012    2    1    2    0    0 -0.10059658014E+02  0.95726793849E+01  0.12563689158E+02  0.72461569608E+02  0.69999999106E+02 0.  0.
         12    1    1    2    0    0  0.10059658014E+02 -0.95726793849E+01 -0.12563689158E+02  0.18726430392E+02  0.00000000000E+00 0. -1.
         11    1    3    3    0    0  0.13482464114E+02  0.18602127331E+01 -0.16782294235E+02  0.21607466997E+02  0.51100000000E-03 0. -1.
        -11    1    3    3    0    0  0.35350702151E+01  0.78774651889E+01 -0.25609756840E+01  0.90060965986E+01  0.51100000000E-03 0.  1.
        -12    1    3    3    0    0 -0.27077192343E+02 -0.16499853718E+00  0.31906959077E+02  0.41848006012E+02  0.00000000000E+00 0.  1.
</event>
<event>
 7    1  0.3162486E-013  0.7246153E+02  0.7816164E-02  0.1226708E+00
        -11   -1    0    0    0    0  0.00000000000E+00  0.00000000000E+00  0.45593999997E+02  0.45594000000E+02  0.51100000000E-03 0.  1.
         11   -1    0    0    0    0 -0.00000000000E+00 -0.00000000000E+00 -0.45593999997E+02  0.45594000000E+02  0.51100000000E-03 0. -1.
    9900012    2    1    2    0    0 -0.14267284604E+02  0.24254100884E+01  0.11884552188E+02  0.72461531973E+02  0.69999950079E+02 0.  0.
         12    1    1    2    0    0  0.14267284604E+02 -0.24254100884E+01 -0.11884552188E+02  0.18726468027E+02  0.00000000000E+00 0. -1.
         11    1    3    3    0    0  0.36669119730E+00 -0.29022164385E+02  0.57913675643E+01  0.29596628634E+02  0.51100000000E-03 0. -1.
        -11    1    3    3    0    0  0.61297452646E+01  0.40659445360E+01 -0.18713918137E+01  0.75899795494E+01  0.51100000000E-03 0.  1.
        -12    1    3    3    0    0 -0.20763721065E+02  0.27381629937E+02  0.79645764377E+01  0.35274923789E+02  0.00000000000E+00 0.  1.
</event>
<event>
 7    1  0.3162486E-013  0.7246143E+02  0.7816164E-02  0.1226708E+00
        -11   -1    0    0    0    0  0.00000000000E+00  0.00000000000E+00  0.45593999997E+02  0.45594000000E+02  0.51100000000E-03 0. -1.
         11   -1    0    0    0    0 -0.00000000000E+00 -0.00000000000E+00 -0.45593999997E+02  0.45594000000E+02  0.51100000000E-03 0.  1.
    9900012    2    1    2    0    0  0.17307420785E+02 -0.31029544047E+01  0.64427623291E+01  0.72461432597E+02  0.69999820623E+02 0.  0.
         12    1    1    2    0    0 -0.17307420785E+02  0.31029544047E+01 -0.64427623291E+01  0.18726567403E+02  0.00000000000E+00 0. -1.
         11    1    3    3    0    0 -0.58131928097E+01  0.49805166049E+01 -0.17600320362E+02  0.19192968332E+02  0.51100000000E-03 0. -1.
        -11    1    3    3    0    0  0.23885776647E+01  0.65620365270E+01 -0.91323066251E+01  0.11496288584E+02  0.51100000000E-03 0.  1.
         12    1    3    3    0    0  0.20732035930E+02 -0.14645507537E+02  0.33175389316E+02  0.41772175681E+02  0.00000000000E+00 0. -1.
</event>
<event>
 7    1  0.3162486E-013  0.7246142E+02  0.7816164E-02  0.1226708E+00
        -11   -1    0    0    0    0  0.00000000000E+00  0.00000000000E+00  0.45593999997E+02  0.45594000000E+02  0.51100000000E-03 0.  1.
         11   -1    0    0    0    0 -0.00000000000E+00 -0.00000000000E+00 -0.45593999997E+02  0.45594000000E+02  0.51100000000E-03 0. -1.
    9900012    2    1    2    0    0 -0.95958102391E+01 -0.13563131159E+02  0.86398264006E+01  0.72461422597E+02  0.69999807597E+02 0.  0.
         12    1    1    2    0    0  0.95958102391E+01  0.13563131159E+02 -0.86398264006E+01  0.18726577403E+02  0.00000000000E+00 0. -1.
         11    1    3    3    0    0 -0.37636147193E+01  0.10275988126E+02  0.11833517589E+02  0.16118091280E+02  0.51100000000E-03 0. -1.
        -11    1    3    3    0    0  0.15393978094E+02 -0.13681622245E+02  0.15917146312E+02  0.26029154727E+02  0.51100000000E-03 0.  1.
         12    1    3    3    0    0 -0.21226173614E+02 -0.10157497040E+02 -0.19110837500E+02  0.30314176591E+02  0.00000000000E+00 0. -1.
</event>
<event>
 7    1  0.3162486E-013  0.7246161E+02  0.7816164E-02  0.1226708E+00
        -11   -1    0    0    0    0  0.00000000000E+00  0.00000000000E+00  0.45593999997E+02  0.45594000000E+02  0.51100000000E-03 0. -1.
         11   -1    0    0    0    0 -0.00000000000E+00 -0.00000000000E+00 -0.45593999997E+02  0.45594000000E+02  0.51100000000E-03 0.  1.
    9900012    2    1    2    0    0  0.69694129102E+01 -0.17320208600E+02 -0.14544042863E+01  0.72461611291E+02  0.70000053406E+02 0.  0.
         12    1    1    2    0    0 -0.69694129102E+01  0.17320208600E+02  0.14544042863E+01  0.18726388709E+02  0.00000000000E+00 0. -1.
         11    1    3    3    0    0 -0.43461575519E+01  0.18447209243E+02  0.12885173114E+02  0.22917598058E+02  0.51100000000E-03 0. -1.
        -11    1    3    3    0    0  0.43681959796E+01  0.46147323923E+01 -0.30100453691E+01  0.70311638122E+01  0.51100000000E-03 0.  1.
        -12    1    3    3    0    0  0.69473744825E+01 -0.40382150235E+02 -0.11329532031E+02  0.42512849421E+02  0.00000000000E+00 0.  1.
</event>
<event>
 7    1  0.3162486E-013  0.7246158E+02  0.7816164E-02  0.1226708E+00
        -11   -1    0    0    0    0  0.00000000000E+00  0.00000000000E+00  0.45593999997E+02  0.45594000000E+02  0.51100000000E-03 0. -1.
         11   -1    0    0    0    0 -0.00000000000E+00 -0.00000000000E+00 -0.45593999997E+02  0.45594000000E+02  0.51100000000E-03 0.  1.
    9900012    2    1    2    0    0 -0.18000174161E+02  0.37731937112E+01  0.35264227002E+01  0.72461577018E+02  0.70000008759E+02 0.  0.
         12    1    1    2    0    0  0.18000174161E+02 -0.37731937112E+01 -0.35264227002E+01  0.18726422982E+02  0.00000000000E+00 0. -1.
         11    1    3    3    0    0  0.20339283044E+00 -0.62759833649E+01 -0.35859392255E+01  0.72310646678E+01  0.51100000000E-03 0. -1.
        -11    1    3    3    0    0 -0.18088510322E+02 -0.22567418578E+02 -0.68960046571E+01  0.29732767571E+02  0.51100000000E-03 0.  1.
         12    1    3    3    0    0 -0.11505667035E+00  0.32616595654E+02  0.14008366583E+02  0.35497744780E+02  0.00000000000E+00 0. -1.
</event>
<event>
 7    1  0.3162486E-013  0.7246160E+02  0.7816164E-02  0.1226708E+00
        -11   -1    0    0    0    0  0.00000000000E+00  0.00000000000E+00  0.45593999997E+02  0.45594000000E+02  0.51100000000E-03 0. -1.
         11   -1    0    0    0    0 -0.00000000000E+00 -0.00000000000E+00 -0.45593999997E+02  0.45594000000E+02  0.51100000000E-03 0.  1.
    9900012    2    1    2    0    0  0.14268873547E+02 -0.11864455595E+02  0.25123610155E+01  0.72461601074E+02  0.70000040096E+02 0.  0.
         12    1    1    2    0    0 -0.14268873547E+02  0.11864455595E+02 -0.25123610155E+01  0.18726398926E+02  0.00000000000E+00 0. -1.
         11    1    3    3    0    0  0.52317171048E+01  0.17495826705E+02  0.29329990580E+01  0.18495331835E+02  0.51100000000E-03 0.  1.
        -11    1    3    3    0    0  0.18068079826E+02 -0.61438237452E+01  0.15342673546E+02  0.24486725192E+02  0.51100000000E-03 0. -1.
         12    1    3    3    0    0 -0.90309233838E+01 -0.23216458554E+02 -0.15763311589E+02  0.29479544047E+02  0.00000000000E+00 0. -1.
</event>
<event>
 7    1  0.3162486E-013  0.7246157E+02  0.7816164E-02  0.1226708E+00
        -11   -1    0    0    0    0  0.00000000000E+00  0.00000000000E+00  0.45593999997E+02  0.45594000000E+02  0.51100000000E-03 0.  1.
         11   -1    0    0    0    0 -0.00000000000E+00 -0.00000000000E+00 -0.45593999997E+02  0.45594000000E+02  0.51100000000E-03 0. -1.
    9900012    2    1    2    0    0 -0.31996627984E+00 -0.14091036929E+02  0.12329617373E+02  0.72461570423E+02  0.70000000167E+02 0.  0.
         12    1    1    2    0    0  0.31996627984E+00  0.14091036929E+02 -0.12329617373E+02  0.18726429577E+02  0.00000000000E+00 0. -1.
         11    1    3    3    0    0 -0.37299769983E+01 -0.17876664306E+02 -0.97065947170E+01  0.20681050176E+02  0.51100000000E-03 0. -1.
        -11    1    3    3    0    0 -0.21493354514E+02  0.44230981581E+01  0.10066874841E+02  0.24142701897E+02  0.51100000000E-03 0.  1.
         12    1    3    3    0    0  0.24903365233E+02 -0.63747078112E+00  0.11969337250E+02  0.27637818349E+02  0.00000000000E+00 0. -1.
</event>
<event>
 7    1  0.3162486E-013  0.7246099E+02  0.7816164E-02  0.1226710E+00
        -11   -1    0    0    0    0  0.00000000000E+00  0.00000000000E+00  0.45593999997E+02  0.45594000000E+02  0.51100000000E-03 0.  1.
         11   -1    0    0    0    0 -0.00000000000E+00 -0.00000000000E+00 -0.45593999997E+02  0.45594000000E+02  0.51100000000E-03 0. -1.
    9900012    2    1    2    0    0 -0.11793131507E+02  0.63383945442E+01  0.13093800762E+02  0.72460992377E+02  0.69999247151E+02 0.  0.
         12    1    1    2    0    0  0.11793131507E+02 -0.63383945442E+01 -0.13093800762E+02  0.18727007623E+02  0.00000000000E+00 0. -1.
         11    1    3    3    0    0  0.40888470114E+01  0.14258013826E+02 -0.88814689291E+01  0.17288438875E+02  0.51100000000E-03 0. -1.
        -11    1    3    3    0    0 -0.23085015653E+02  0.10463989024E+02 -0.37698208340E+00  0.25348671164E+02  0.51100000000E-03 0.  1.
         12    1    3    3    0    0  0.72030371351E+01 -0.18383608306E+02  0.22352251774E+02  0.29823882338E+02  0.00000000000E+00 0. -1.
</event>
<event>
 7    1  0.3162486E-013  0.7246156E+02  0.7816164E-02  0.1226708E+00
        -11   -1    0    0    0    0  0.00000000000E+00  0.00000000000E+00  0.45593999997E+02  0.45594000000E+02  0.51100000000E-03 0.  1.
         11   -1    0    0    0    0 -0.00000000000E+00 -0.00000000000E+00 -0.45593999997E+02  0.45594000000E+02  0.51100000000E-03 0. -1.
    9900012    2    1    2    0    0 -0.10750255299E+02 -0.22515320672E+01  0.15167146087E+02  0.72461555968E+02  0.69999981337E+02 0.  0.
         12    1    1    2    0    0  0.10750255299E+02  0.22515320672E+01 -0.15167146087E+02  0.18726444032E+02  0.00000000000E+00 0. -1.
         11    1    3    3    0    0 -0.36929565425E+01  0.51500592014E+01 -0.16267626486E+02  0.17458428038E+02  0.51100000000E-03 0. -1.
        -11    1    3    3    0    0 -0.21411236629E+02  0.88296694967E+01  0.13031989955E+02  0.26575117683E+02  0.51100000000E-03 0.  1.
        -12    1    3    3    0    0  0.14353937872E+02 -0.16231260765E+02  0.18402782619E+02  0.28428010247E+02  0.00000000000E+00 0.  1.
</event>
<event>
 7    1  0.3162486E-013  0.7246154E+02  0.7816164E-02  0.1226708E+00
        -11   -1    0    0    0    0  0.00000000000E+00  0.00000000000E+00  0.45593999997E+02  0.45594000000E+02  0.51100000000E-03 0. -1.
         11   -1    0    0    0    0 -0.00000000000E+00 -0.00000000000E+00 -0.45593999997E+02  0.45594000000E+02  0.51100000000E-03 0.  1.
    9900012    2    1    2    0    0  0.55396080374E+01 -0.15266215794E+02 -0.93239304668E+01  0.72461540612E+02  0.69999961333E+02 0.  0.
         12    1    1    2    0    0 -0.55396080374E+01  0.15266215794E+02  0.93239304668E+01  0.18726459388E+02  0.00000000000E+00 0. -1.
         11    1    3    3    0    0 -0.23960157810E+01 -0.16442437751E+02  0.51057704029E+00  0.16623938763E+02  0.51100000000E-03 0. -1.
        -11    1    3    3    0    0 -0.22807754586E+02  0.16509567168E+01 -0.10316362858E+02  0.25086782780E+02  0.51100000000E-03 0.  1.
         12    1    3    3    0    0  0.30743378405E+02 -0.47473475939E+00  0.48185535120E+00  0.30750819069E+02  0.00000000000E+00 0. -1.
</event>
<event>
 7    1  0.3162486E-013  0.7246157E+02  0.7816164E-02  0.1226708E+00
        -11   -1    0    0    0    0  0.00000000000E+00  0.00000000000E+00  0.45593999997E+02  0.45594000000E+02  0.51100000000E-03 0.  1.
         11   -1    0    0    0    0 -0.00000000000E+00 -0.00000000000E+00 -0.45593999997E+02  0.45594000000E+02  0.51100000000E-03 0. -1.
    9900012    2    1    2    0    0 -0.10954900541E+00 -0.18587759533E+02  0.22720471626E+01  0.72461574721E+02  0.70000005766E+02 0.  0.
         12    1    1    2    0    0  0.10954900541E+00  0.18587759533E+02 -0.22720471626E+01  0.18726425279E+02  0.00000000000E+00 0. -1.
         11    1    3    3    0    0 -0.44427093849E+01 -0.57984973481E+01  0.43080049182E+01  0.84805155982E+01  0.51100000000E-03 0.  1.
        -11    1    3    3    0    0 -0.16049920886E+02 -0.86392269663E+01 -0.26314097119E+02  0.32010434400E+02  0.51100000000E-03 0. -1.
         12    1    3    3    0    0  0.20383081265E+02 -0.41500352184E+01  0.24278139364E+02  0.31970624722E+02  0.00000000000E+00 0. -1.
</event>
<event>
 7    1  0.3162486E-013  0.7246171E+02  0.7816164E-02  0.1226708E+00
        -11   -1    0    0    0    0  0.00000000000E+00  0.00000000000E+00  0.45593999997E+02  0.45594000000E+02  0.51100000000E-03 0.  1.
         11   -1    0    0    0    0 -0.00000000000E+00 -0.00000000000E+00 -0.45593999997E+02  0.45594000000E+02  0.51100000000E-03 0. -1.
    9900012    2    1    2    0    0  0.12296507228E+02  0.11452037511E+02  0.82656329847E+01  0.72461709876E+02  0.70000181831E+02 0.  0.
         12    1    1    2    0    0 -0.12296507228E+02 -0.11452037511E+02 -0.82656329847E+01  0.18726290124E+02  0.00000000000E+00 0. -1.
         11    1    3    3    0    0  0.13262867785E+02 -0.80701878141E+01 -0.52944061600E+01  0.16403119523E+02  0.51100000000E-03 0. -1.
        -11    1    3    3    0    0  0.18055196279E+01  0.36749780170E+02  0.11132798981E+02  0.38441454930E+02  0.51100000000E-03 0.  1.
         12    1    3    3    0    0 -0.27718801852E+01 -0.17227554845E+02  0.24272401634E+01  0.17617135423E+02  0.00000000000E+00 0. -1.
</event>
<event>
 7    1  0.3162486E-013  0.7246146E+02  0.7816164E-02  0.1226708E+00
        -11   -1    0    0    0    0  0.00000000000E+00  0.00000000000E+00  0.45593999997E+02  0.45594000000E+02  0.51100000000E-03 0. -1.
         11   -1    0    0    0    0 -0.00000000000E+00 -0.00000000000E+00 -0.45593999997E+02  0.45594000000E+02  0.51100000000E-03 0.  1.
    9900012    2    1    2    0    0  0.71963434590E+01  0.17278776900E+02 -0.58296346650E+00  0.72461459029E+02  0.69999855056E+02 0.  0.
         12    1    1    2    0    0 -0.71963434590E+01 -0.17278776900E+02  0.58296346650E+00  0.18726540971E+02  0.00000000000E+00 0. -1.
         11    1    3    3    0    0 -0.84110874876E+01  0.25533000109E+02  0.12018048329E+02  0.29446799031E+02  0.51100000000E-03 0. -1.
        -11    1    3    3    0    0  0.80381213490E+01  0.14463608470E+02 -0.14818881691E+01  0.16613348777E+02  0.51100000000E-03 0.  1.
         12    1    3    3    0    0  0.75693095975E+01 -0.22717831679E+02 -0.11119123627E+02  0.26401311221E+02  0.00000000000E+00 0. -1.
</event>
<event>
 7    1  0.3162486E-013  0.7246155E+02  0.7816164E-02  0.1226708E+00
        -11   -1    0    0    0    0  0.00000000000E+00  0.00000000000E+00  0.45593999997E+02  0.45594000000E+02  0.51100000000E-03 0. -1.
         11   -1    0    0    0    0 -0.00000000000E+00 -0.00000000000E+00 -0.45593999997E+02  0.45594000000E+02  0.51100000000E-03 0.  1.
    9900012    2    1    2    0    0 -0.11044268954E+02 -0.40825740277E+01 -0.14561472747E+02  0.72461554101E+02  0.69999978906E+02 0.  0.
         12    1    1    2    0    0  0.11044268954E+02  0.40825740277E+01  0.14561472747E+02  0.18726445899E+02  0.00000000000E+00 0. -1.
         11    1    3    3    0    0  0.14799619921E+02  0.99815277233E+01 -0.98289164879E+01  0.20378107004E+02  0.51100000000E-03 0. -1.
        -11    1    3    3    0    0 -0.21648952733E+02 -0.70255579496E+01 -0.22817757525E+02  0.32228646849E+02  0.51100000000E-03 0.  1.
         12    1    3    3    0    0 -0.41949361418E+01 -0.70385438014E+01  0.18085201266E+02  0.19854800248E+02  0.00000000000E+00 0. -1.
</event>
<event>
 7    1  0.3162486E-013  0.7246161E+02  0.7816164E-02  0.1226708E+00
        -11   -1    0    0    0    0  0.00000000000E+00  0.00000000000E+00  0.45593999997E+02  0.45594000000E+02  0.51100000000E-03 0.  1.
         11   -1    0    0    0    0 -0.00000000000E+00 -0.00000000000E+00 -0.45593999997E+02  0.45594000000E+02  0.51100000000E-03 0. -1.
    9900012    2    1    2    0    0 -0.84173023963E+01 -0.15842996918E+02  0.53689851608E+01  0.72461614000E+02  0.70000056934E+02 0.  0.
         12    1    1    2    0    0  0.84173023963E+01  0.15842996918E+02 -0.53689851608E+01  0.18726386000E+02  0.00000000000E+00 0. -1.
         11    1    3    3    0    0  0.53813681465E+01 -0.35468357757E+01 -0.16561201477E+01  0.66544647684E+01  0.51100000000E-03 0. -1.
        -11    1    3    3    0    0 -0.16194111150E+02  0.12750150034E+01  0.32787234401E+02  0.36590676942E+02  0.51100000000E-03 0.  1.
         12    1    3    3    0    0  0.23954406070E+01 -0.13571176146E+02 -0.25762129092E+02  0.29216472289E+02  0.00000000000E+00 0. -1.
</event>
<event>
 7    1  0.3162486E-013  0.7246159E+02  0.7816164E-02  0.1226708E+00
        -11   -1    0    0    0    0  0.00000000000E+00  0.00000000000E+00  0.45593999997E+02  0.45594000000E+02  0.51100000000E-03 0.  1.
         11   -1    0    0    0    0 -0.00000000000E+00 -0.00000000000E+00 -0.45593999997E+02  0.45594000000E+02  0.51100000000E-03 0. -1.
    9900012    2    1    2    0    0 -0.18312813482E+02  0.37254834802E+01  0.12000436521E+01  0.72461588984E+02  0.70000024347E+02 0.  0.
         12    1    1    2    0    0  0.18312813482E+02 -0.37254834802E+01 -0.12000436521E+01  0.18726411016E+02  0.00000000000E+00 0. -1.
         11    1    3    3    0    0  0.40836299256E+01  0.15963428268E+02  0.21837099345E+02  0.27356278685E+02  0.51100000000E-03 0.  1.
        -11    1    3    3    0    0 -0.19338805984E+01 -0.17304429022E+02 -0.31044499362E+01  0.17686739880E+02  0.51100000000E-03 0. -1.
        -12    1    3    3    0    0 -0.20462562809E+02  0.50664842341E+01 -0.17532605756E+02  0.27418570419E+02  0.00000000000E+00 0.  1.
</event>
<event>
 7    1  0.3162486E-013  0.7246206E+02  0.7816164E-02  0.1226707E+00
        -11   -1    0    0    0    0  0.00000000000E+00  0.00000000000E+00  0.45593999997E+02  0.45594000000E+02  0.51100000000E-03 0.  1.
         11   -1    0    0    0    0 -0.00000000000E+00 -0.00000000000E+00 -0.45593999997E+02  0.45594000000E+02  0.51100000000E-03 0. -1.
    9900012    2    1    2    0    0  0.45573733353E+00 -0.52183065896E+01  0.17978392385E+02  0.72462055086E+02  0.70000631528E+02 0.  0.
         12    1    1    2    0    0 -0.45573733353E+00  0.52183065896E+01 -0.17978392385E+02  0.18725944914E+02  0.00000000000E+00 0. -1.
         11    1    3    3    0    0 -0.16704237279E+02 -0.27208503927E+01  0.17570122771E+02  0.24395568950E+02  0.51100000000E-03 0. -1.
        -11    1    3    3    0    0 -0.13967508671E+02  0.15274755289E+01 -0.71750515470E+01  0.15776750139E+02  0.51100000000E-03 0.  1.
        -12    1    3    3    0    0  0.31127483283E+02 -0.40249317258E+01  0.75833211609E+01  0.32289735997E+02  0.00000000000E+00 0.  1.
</event>
<event>
 7    1  0.3162486E-013  0.7246160E+02  0.7816164E-02  0.1226708E+00
        -11   -1    0    0    0    0  0.00000000000E+00  0.00000000000E+00  0.45593999997E+02  0.45594000000E+02  0.51100000000E-03 0. -1.
         11   -1    0    0    0    0 -0.00000000000E+00 -0.00000000000E+00 -0.45593999997E+02  0.45594000000E+02  0.51100000000E-03 0.  1.
    9900012    2    1    2    0    0 -0.18570730842E+02  0.84452094812E+00 -0.22567268664E+01  0.72461599497E+02  0.70000038042E+02 0.  0.
         12    1    1    2    0    0  0.18570730842E+02 -0.84452094812E+00  0.22567268664E+01  0.18726400503E+02  0.00000000000E+00 0. -1.
         11    1    3    3    0    0 -0.28041630339E+02  0.10119379094E+02 -0.23719520407E+01  0.29905869358E+02  0.51100000000E-03 0. -1.
        -11    1    3    3    0    0 -0.11191150569E+02 -0.14847784367E+02 -0.72017660909E+01  0.19939006664E+02  0.51100000000E-03 0.  1.
         12    1    3    3    0    0  0.20662050065E+02  0.55729262213E+01  0.73169912652E+01  0.22616723475E+02  0.00000000000E+00 0. -1.
</event>
<event>
 7    1  0.3162486E-013  0.7246159E+02  0.7816164E-02  0.1226708E+00
        -11   -1    0    0    0    0  0.00000000000E+00  0.00000000000E+00  0.45593999997E+02  0.45594000000E+02  0.51100000000E-03 0.  1.
         11   -1    0    0    0    0 -0.00000000000E+00 -0.00000000000E+00 -0.45593999997E+02  0.45594000000E+02  0.51100000000E-03 0. -1.
    9900012    2    1    2    0    0  0.11716720337E+02 -0.93781414456E+01  0.11200333349E+02  0.72461587115E+02  0.70000021912E+02 0.  0.
         12    1    1    2    0    0 -0.11716720337E+02  0.93781414456E+01 -0.11200333349E+02  0.18726412885E+02  0.00000000000E+00 0. -1.
         11    1    3    3    0    0  0.17558337501E+02 -0.12074781913E+02 -0.83005316650E+01  0.22869070822E+02  0.51100000000E-03 0. -1.
        -11    1    3    3    0    0  0.87756849507E+01 -0.13762510094E+02  0.22048394690E+02  0.27432663726E+02  0.51100000000E-03 0.  1.
        -12    1    3    3    0    0 -0.14617302115E+02  0.16459150561E+02 -0.25475296762E+01  0.22159852567E+02  0.00000000000E+00 0.  1.
</event>
<event>
 7    1  0.3162486E-013  0.7246157E+02  0.7816164E-02  0.1226708E+00
        -11   -1    0    0    0    0  0.00000000000E+00  0.00000000000E+00  0.45593999997E+02  0.45594000000E+02  0.51100000000E-03 0. -1.
         11   -1    0    0    0    0 -0.00000000000E+00 -0.00000000000E+00 -0.45593999997E+02  0.45594000000E+02  0.51100000000E-03 0.  1.
    9900012    2    1    2    0    0  0.62440371944E+01 -0.11647060305E+02 -0.13267895769E+02  0.72461572888E+02  0.70000003379E+02 0.  0.
         12    1    1    2    0    0 -0.62440371944E+01  0.11647060305E+02  0.13267895769E+02  0.18726427112E+02  0.00000000000E+00 0. -1.
         11    1    3    3    0    0 -0.36407033621E+01  0.49853894838E+01  0.16591938641E+01  0.63923199088E+01  0.51100000000E-03 0. -1.
        -11    1    3    3    0    0 -0.15941881659E+02 -0.38742599760E+01 -0.29523962341E+02  0.33775994933E+02  0.51100000000E-03 0.  1.
         12    1    3    3    0    0  0.25826622215E+02 -0.12758189813E+02  0.14596872707E+02  0.32293258046E+02  0.00000000000E+00 0. -1.
</event>
<event>
 7    1  0.3162486E-013  0.7246155E+02  0.7816164E-02  0.1226708E+00
        -11   -1    0    0    0    0  0.00000000000E+00  0.00000000000E+00  0.45593999997E+02  0.45594000000E+02  0.51100000000E-03 0. -1.
         11   -1    0    0    0    0 -0.00000000000E+00 -0.00000000000E+00 -0.45593999997E+02  0.45594000000E+02  0.51100000000E-03 0.  1.
    9900012    2    1    2    0    0 -0.47643666985E+01  0.61640880634E+01 -0.17028944247E+02  0.72461545080E+02  0.69999967154E+02 0.  0.
         12    1    1    2    0    0  0.47643666985E+01 -0.61640880634E+01  0.17028944247E+02  0.18726454920E+02  0.00000000000E+00 0. -1.
         11    1    3    3    0    0 -0.22215879697E+02  0.72419256905E+01  0.14218152284E+02  0.27352269614E+02  0.51100000000E-03 0. -1.
        -11    1    3    3    0    0 -0.74067586330E+01 -0.21932726382E-01 -0.96338030237E+01  0.12151984013E+02  0.51100000000E-03 0.  1.
        -12    1    3    3    0    0  0.24858271632E+02 -0.10559049006E+01 -0.21613293507E+02  0.32957291453E+02  0.00000000000E+00 0.  1.
</event>
<event>
 7    1  0.3162486E-013  0.7246155E+02  0.7816164E-02  0.1226708E+00
        -11   -1    0    0    0    0  0.00000000000E+00  0.00000000000E+00  0.45593999997E+02  0.45594000000E+02  0.51100000000E-03 0.  1.
         11   -1    0    0    0    0 -0.00000000000E+00 -0.00000000000E+00 -0.45593999997E+02  0.45594000000E+02  0.51100000000E-03 0. -1.
    9900012    2    1    2    0    0  0.14696514171E+02  0.14603515100E+01  0.11513463398E+02  0.72461548261E+02  0.69999971298E+02 0.  0.
         12    1    1    2    0    0 -0.14696514171E+02 -0.14603515100E+01 -0.11513463398E+02  0.18726451739E+02  0.00000000000E+00 0. -1.
         11    1    3    3    0    0 -0.12268579334E+02 -0.27861513000E+01 -0.17803726497E+02  0.21800306313E+02  0.51100000000E-03 0. -1.
        -11    1    3    3    0    0  0.11962545771E+02 -0.13504170443E+02  0.13842783686E+02  0.22739564224E+02  0.51100000000E-03 0.  1.
        -12    1    3    3    0    0  0.15002547733E+02  0.17750673253E+02  0.15474406209E+02  0.27921677724E+02  0.00000000000E+00 0.  1.
</event>
<event>
 7    1  0.3162486E-013  0.7246161E+02  0.7816164E-02  0.1226708E+00
        -11   -1    0    0    0    0  0.00000000000E+00  0.00000000000E+00  0.45593999997E+02  0.45594000000E+02  0.51100000000E-03 0.  1.
         11   -1    0    0    0    0 -0.00000000000E+00 -0.00000000000E+00 -0.45593999997E+02  0.45594000000E+02  0.51100000000E-03 0. -1.
    9900012    2    1    2    0    0 -0.16229153673E+02  0.93312857433E+01  0.46826337732E+00  0.72461612384E+02  0.70000054829E+02 0.  0.
         12    1    1    2    0    0  0.16229153673E+02 -0.93312857433E+01 -0.46826337732E+00  0.18726387616E+02  0.00000000000E+00 0. -1.
         11    1    3    3    0    0 -0.57108224999E+01  0.28057339358E+00  0.50919550780E+01  0.76563843838E+01  0.51100000000E-03 0. -1.
        -11    1    3    3    0    0 -0.11243002206E+02 -0.97173248503E+01  0.25378371711E+02  0.29409067510E+02  0.51100000000E-03 0.  1.
         12    1    3    3    0    0  0.72467103229E+00  0.18768037200E+02 -0.30002063412E+02  0.35396160490E+02  0.00000000000E+00 0. -1.
</event>
<event>
 7    1  0.3162486E-013  0.7246157E+02  0.7816164E-02  0.1226708E+00
        -11   -1    0    0    0    0  0.00000000000E+00  0.00000000000E+00  0.45593999997E+02  0.45594000000E+02  0.51100000000E-03 0.  1.
         11   -1    0    0    0    0 -0.00000000000E+00 -0.00000000000E+00 -0.45593999997E+02  0.45594000000E+02  0.51100000000E-03 0. -1.
    9900012    2    1    2    0    0  0.96306997503E+01  0.10954669030E+02  0.11744104445E+02  0.72461571070E+02  0.70000001011E+02 0.  0.
         12    1    1    2    0    0 -0.96306997503E+01 -0.10954669030E+02 -0.11744104445E+02  0.18726428930E+02  0.00000000000E+00 0. -1.
         11    1    3    3    0    0  0.57772569802E+01 -0.20203792050E+01  0.18809325610E+01  0.64028538877E+01  0.51100000000E-03 0. -1.
        -11    1    3    3    0    0  0.16764643650E+02  0.25972643621E+02  0.26946607231E+02  0.41009159158E+02  0.51100000000E-03 0.  1.
         12    1    3    3    0    0 -0.12911200880E+02 -0.12997595386E+02 -0.17083435346E+02  0.25049558024E+02  0.00000000000E+00 0. -1.
</event>
<event>
 7    1  0.3162486E-013  0.7246157E+02  0.7816164E-02  0.1226708E+00
        -11   -1    0    0    0    0  0.00000000000E+00  0.00000000000E+00  0.45593999997E+02  0.45594000000E+02  0.51100000000E-03 0. -1.
         11   -1    0    0    0    0 -0.00000000000E+00 -0.00000000000E+00 -0.45593999997E+02  0.45594000000E+02  0.51100000000E-03 0.  1.
    9900012    2    1    2    0    0 -0.11114353889E+02  0.14917635568E+02  0.21481544436E+01  0.72461567323E+02  0.69999996129E+02 0.  0.
         12    1    1    2    0    0  0.11114353889E+02 -0.14917635568E+02 -0.21481544436E+01  0.18726432677E+02  0.00000000000E+00 0. -1.
         11    1    3    3    0    0  0.19026464434E+02 -0.73242294588E+01 -0.10900270445E+02  0.23118533303E+02  0.51100000000E-03 0.  1.
        -11    1    3    3    0    0 -0.44008367127E+01 -0.66400563152E+01  0.61076692918E+01  0.10037994624E+02  0.51100000000E-03 0. -1.
         12    1    3    3    0    0 -0.25739981610E+02  0.28881921342E+02  0.69407555969E+01  0.39305039396E+02  0.00000000000E+00 0. -1.
</event>
<event>
 7    1  0.3162486E-013  0.7246160E+02  0.7816164E-02  0.1226708E+00
        -11   -1    0    0    0    0  0.00000000000E+00  0.00000000000E+00  0.45593999997E+02  0.45594000000E+02  0.51100000000E-03 0. -1.
         11   -1    0    0    0    0 -0.00000000000E+00 -0.00000000000E+00 -0.45593999997E+02  0.45594000000E+02  0.51100000000E-03 0.  1.
    9900012    2    1    2    0    0  0.11438002976E+01 -0.17374225509E+02 -0.68924716174E+01  0.72461597351E+02  0.70000035246E+02 0.  0.
         12    1    1    2    0    0 -0.11438002976E+01  0.17374225509E+02  0.68924716174E+01  0.18726402649E+02  0.00000000000E+00 0. -1.
         11    1    3    3    0    0 -0.12506300198E+01  0.16183123153E+02 -0.13414035307E+02  0.21056920333E+02  0.51100000000E-03 0. -1.
        -11    1    3    3    0    0  0.88330336810E+01 -0.12222716237E+02 -0.14390170751E+02  0.20844526637E+02  0.51100000000E-03 0.  1.
         12    1    3    3    0    0 -0.64386033637E+01 -0.21334632426E+02  0.20911734440E+02  0.30560150381E+02  0.00000000000E+00 0. -1.
</event>
<event>
 7    1  0.3162486E-013  0.7246157E+02  0.7816164E-02  0.1226708E+00
        -11   -1    0    0    0    0  0.00000000000E+00  0.00000000000E+00  0.45593999997E+02  0.45594000000E+02  0.51100000000E-03 0. -1.
         11   -1    0    0    0    0 -0.00000000000E+00 -0.00000000000E+00 -0.45593999997E+02  0.45594000000E+02  0.51100000000E-03 0.  1.
    9900012    2    1    2    0    0  0.48811222005E+01  0.14710536947E+02 -0.10509709425E+02  0.72461568322E+02  0.69999997430E+02 0.  0.
         12    1    1    2    0    0 -0.48811222005E+01 -0.14710536947E+02  0.10509709425E+02  0.18726431678E+02  0.00000000000E+00 0. -1.
         11    1    3    3    0    0 -0.51332946539E+01 -0.74347250544E+01 -0.17643184161E+01  0.92053609583E+01  0.51100000000E-03 0. -1.
        -11    1    3    3    0    0 -0.15791122059E+02 -0.11845244025E+02 -0.53096671109E+01  0.20441670846E+02  0.51100000000E-03 0.  1.
         12    1    3    3    0    0  0.25805538913E+02  0.33990506026E+02 -0.34357238978E+01  0.42814536518E+02  0.00000000000E+00 0. -1.
</event>
<event>
 7    1  0.3162486E-013  0.7246156E+02  0.7816164E-02  0.1226708E+00
        -11   -1    0    0    0    0  0.00000000000E+00  0.00000000000E+00  0.45593999997E+02  0.45594000000E+02  0.51100000000E-03 0.  1.
         11   -1    0    0    0    0 -0.00000000000E+00 -0.00000000000E+00 -0.45593999997E+02  0.45594000000E+02  0.51100000000E-03 0. -1.
    9900012    2    1    2    0    0  0.17656984284E+02 -0.62361085732E+01  0.14601010453E+00  0.72461562456E+02  0.69999989789E+02 0.  0.
         12    1    1    2    0    0 -0.17656984284E+02  0.62361085732E+01 -0.14601010453E+00  0.18726437544E+02  0.00000000000E+00 0. -1.
         11    1    3    3    0    0  0.13589588688E+02  0.66983206537E+01  0.93780529860E+01  0.17818313567E+02  0.51100000000E-03 0. -1.
        -11    1    3    3    0    0  0.21819129892E+02  0.79347585831E+01  0.50296290033E+01  0.23755672822E+02  0.51100000000E-03 0.  1.
         12    1    3    3    0    0 -0.17751734297E+02 -0.20869187810E+02 -0.14261671885E+02  0.30887576068E+02  0.00000000000E+00 0. -1.
</event>
<event>
 7    1  0.3162486E-013  0.7246154E+02  0.7816164E-02  0.1226708E+00
        -11   -1    0    0    0    0  0.00000000000E+00  0.00000000000E+00  0.45593999997E+02  0.45594000000E+02  0.51100000000E-03 0.  1.
         11   -1    0    0    0    0 -0.00000000000E+00 -0.00000000000E+00 -0.45593999997E+02  0.45594000000E+02  0.51100000000E-03 0. -1.
    9900012    2    1    2    0    0 -0.47641534867E+01  0.16670005538E+02  0.70777152316E+01  0.72461540218E+02  0.69999960820E+02 0.  0.
         12    1    1    2    0    0  0.47641534867E+01 -0.16670005538E+02 -0.70777152316E+01  0.18726459782E+02  0.00000000000E+00 0. -1.
         11    1    3    3    0    0  0.26770686750E+00  0.25473696412E+01 -0.41642811527E+01  0.48889668475E+01  0.51100000000E-03 0. -1.
        -11    1    3    3    0    0 -0.23773810401E+02  0.59585963919E+01  0.30745077435E+02  0.39318681549E+02  0.51100000000E-03 0.  1.
         12    1    3    3    0    0  0.18741950047E+02  0.81640395048E+01 -0.19503081051E+02  0.28253891822E+02  0.00000000000E+00 0. -1.
</event>
<event>
 7    1  0.3162486E-013  0.7246158E+02  0.7816164E-02  0.1226708E+00
        -11   -1    0    0    0    0  0.00000000000E+00  0.00000000000E+00  0.45593999997E+02  0.45594000000E+02  0.51100000000E-03 0. -1.
         11   -1    0    0    0    0 -0.00000000000E+00 -0.00000000000E+00 -0.45593999997E+02  0.45594000000E+02  0.51100000000E-03 0.  1.
    9900012    2    1    2    0    0  0.13704847107E+01 -0.92640778138E+01 -0.16216578295E+02  0.72461580756E+02  0.70000013629E+02 0.  0.
         12    1    1    2    0    0 -0.13704847107E+01  0.92640778138E+01  0.16216578295E+02  0.18726419244E+02  0.00000000000E+00 0. -1.
         11    1    3    3    0    0  0.58290924484E+01  0.60892989625E+01  0.75466326959E+00  0.84632970843E+01  0.51100000000E-03 0. -1.
        -11    1    3    3    0    0  0.23793424655E+02 -0.39055515977E+01 -0.22544615272E+02  0.33009696577E+02  0.51100000000E-03 0.  1.
        -12    1    3    3    0    0 -0.28252032393E+02 -0.11447825179E+02  0.55733737070E+01  0.30988587095E+02  0.00000000000E+00 0.  1.
</event>
<event>
 7    1  0.3162486E-013  0.7246158E+02  0.7816164E-02  0.1226708E+00
        -11   -1    0    0    0    0  0.00000000000E+00  0.00000000000E+00  0.45593999997E+02  0.45594000000E+02  0.51100000000E-03 0. -1.
         11   -1    0    0    0    0 -0.00000000000E+00 -0.00000000000E+00 -0.45593999997E+02  0.45594000000E+02  0.51100000000E-03 0.  1.
    9900012    2    1    2    0    0 -0.13359919669E+02  0.68105019744E+01  0.11216440888E+02  0.72461576506E+02  0.70000008092E+02 0.  0.
         12    1    1    2    0    0  0.13359919669E+02 -0.68105019744E+01 -0.11216440888E+02  0.18726423494E+02  0.00000000000E+00 0. -1.
         11    1    3    3    0    0 -0.10744839466E+02 -0.36075038281E+01  0.35807216694E+02  0.37558253776E+02  0.51100000000E-03 0. -1.
        -11    1    3    3    0    0 -0.44086777289E+01 -0.73113073378E+00  0.28016796506E+01  0.52745047723E+01  0.51100000000E-03 0.  1.
        -12    1    3    3    0    0  0.17935975260E+01  0.11149136536E+02 -0.27392455457E+02  0.29628817958E+02  0.00000000000E+00 0.  1.
</event>
<event>
 7    1  0.3162486E-013  0.7246159E+02  0.7816164E-02  0.1226708E+00
        -11   -1    0    0    0    0  0.00000000000E+00  0.00000000000E+00  0.45593999997E+02  0.45594000000E+02  0.51100000000E-03 0.  1.
         11   -1    0    0    0    0 -0.00000000000E+00 -0.00000000000E+00 -0.45593999997E+02  0.45594000000E+02  0.51100000000E-03 0. -1.
    9900012    2    1    2    0    0 -0.10053919102E+02 -0.76009217414E+01  0.13850018608E+02  0.72461593081E+02  0.70000029684E+02 0.  0.
         12    1    1    2    0    0  0.10053919102E+02  0.76009217414E+01 -0.13850018608E+02  0.18726406919E+02  0.00000000000E+00 0. -1.
         11    1    3    3    0    0 -0.11005791729E+02  0.17212847520E+02  0.10050098372E+01  0.20455307780E+02  0.51100000000E-03 0. -1.
        -11    1    3    3    0    0 -0.13121937576E+02 -0.14455151665E+02  0.24255248037E+02  0.31136051661E+02  0.51100000000E-03 0.  1.
         12    1    3    3    0    0  0.14073810203E+02 -0.10358617596E+02 -0.11410239266E+02  0.20870233641E+02  0.00000000000E+00 0. -1.
</event>
<event>
 7    1  0.3162486E-013  0.7246156E+02  0.7816164E-02  0.1226708E+00
        -11   -1    0    0    0    0  0.00000000000E+00  0.00000000000E+00  0.45593999997E+02  0.45594000000E+02  0.51100000000E-03 0.  1.
         11   -1    0    0    0    0 -0.00000000000E+00 -0.00000000000E+00 -0.45593999997E+02  0.45594000000E+02  0.51100000000E-03 0. -1.
    9900012    2    1    2    0    0 -0.11821459499E+02  0.12652857263E+02  0.71300539015E+01  0.72461564935E+02  0.69999993018E+02 0.  0.
         12    1    1    2    0    0  0.11821459499E+02 -0.12652857263E+02 -0.71300539015E+01  0.18726435065E+02  0.00000000000E+00 0. -1.
         11    1    3    3    0    0 -0.87170878928E+01  0.21708839202E+02  0.95495684524E+01  0.25267678538E+02  0.51100000000E-03 0. -1.
        -11    1    3    3    0    0 -0.10109977442E+02  0.11932086008E+02  0.12907190203E+02  0.20277620165E+02  0.51100000000E-03 0.  1.
         12    1    3    3    0    0  0.70056058356E+01 -0.20988067946E+02 -0.15326704754E+02  0.26916266231E+02  0.00000000000E+00 0. -1.
</event>
<event>
 7    1  0.3162486E-013  0.7246162E+02  0.7816164E-02  0.1226708E+00
        -11   -1    0    0    0    0  0.00000000000E+00  0.00000000000E+00  0.45593999997E+02  0.45594000000E+02  0.51100000000E-03 0.  1.
         11   -1    0    0    0    0 -0.00000000000E+00 -0.00000000000E+00 -0.45593999997E+02  0.45594000000E+02  0.51100000000E-03 0. -1.
    9900012    2    1    2    0    0 -0.81488588059E+01 -0.15566545936E+02 -0.64773410910E+01  0.72461622885E+02  0.70000068510E+02 0.  0.
         12    1    1    2    0    0  0.81488588059E+01  0.15566545936E+02  0.64773410910E+01  0.18726377115E+02  0.00000000000E+00 0. -1.
         11    1    3    3    0    0  0.64409743762E+01 -0.17768442296E+02 -0.18871027140E+02  0.26708039204E+02  0.51100000000E-03 0. -1.
        -11    1    3    3    0    0  0.12008591167E+02  0.71311678170E+01  0.12438387428E+02  0.18702227095E+02  0.51100000000E-03 0.  1.
         12    1    3    3    0    0 -0.26598424349E+02 -0.49292714577E+01 -0.44701379149E-01  0.27051356587E+02  0.00000000000E+00 0. -1.
</event>
<event>
 7    1  0.3162486E-013  0.7246158E+02  0.7816164E-02  0.1226708E+00
        -11   -1    0    0    0    0  0.00000000000E+00  0.00000000000E+00  0.45593999997E+02  0.45594000000E+02  0.51100000000E-03 0.  1.
         11   -1    0    0    0    0 -0.00000000000E+00 -0.00000000000E+00 -0.45593999997E+02  0.45594000000E+02  0.51100000000E-03 0. -1.
    9900012    2    1    2    0    0 -0.83023544421E+01  0.16678153639E+02  0.18944522144E+01  0.72461578898E+02  0.70000011208E+02 0.  0.
         12    1    1    2    0    0  0.83023544421E+01 -0.16678153639E+02 -0.18944522144E+01  0.18726421102E+02  0.00000000000E+00 0. -1.
         11    1    3    3    0    0 -0.19338920226E+02  0.29579349474E+02 -0.15267762813E+02  0.38497224996E+02  0.51100000000E-03 0. -1.
        -11    1    3    3    0    0 -0.65306066698E+01 -0.14258685999E+01 -0.26256717226E+00  0.66896088466E+01  0.51100000000E-03 0.  1.
        -12    1    3    3    0    0  0.17567172453E+02 -0.11475327235E+02  0.17424782199E+02  0.27274745056E+02  0.00000000000E+00 0.  1.
</event>
<event>
 7    1  0.3162486E-013  0.7246168E+02  0.7816164E-02  0.1226708E+00
        -11   -1    0    0    0    0  0.00000000000E+00  0.00000000000E+00  0.45593999997E+02  0.45594000000E+02  0.51100000000E-03 0.  1.
         11   -1    0    0    0    0 -0.00000000000E+00 -0.00000000000E+00 -0.45593999997E+02  0.45594000000E+02  0.51100000000E-03 0. -1.
    9900012    2    1    2    0    0  0.75423228726E+01  0.19000988326E+01  0.17034608551E+02  0.72461684335E+02  0.70000148559E+02 0.  0.
         12    1    1    2    0    0 -0.75423228726E+01 -0.19000988326E+01 -0.17034608551E+02  0.18726315665E+02  0.00000000000E+00 0. -1.
         11    1    3    3    0    0 -0.94638420546E+01  0.75437303858E+01  0.24441177224E+02  0.27273491140E+02  0.51100000000E-03 0. -1.
        -11    1    3    3    0    0  0.19774442367E+02 -0.17855491399E+01  0.13330222343E+02  0.23914672999E+02  0.51100000000E-03 0.  1.
         12    1    3    3    0    0 -0.27682774396E+01 -0.38580824132E+01 -0.20736791017E+02  0.21273520197E+02  0.00000000000E+00 0. -1.
</event>
<event>
 7    1  0.3162486E-013  0.7246156E+02  0.7816164E-02  0.1226708E+00
        -11   -1    0    0    0    0  0.00000000000E+00  0.00000000000E+00  0.45593999997E+02  0.45594000000E+02  0.51100000000E-03 0.  1.
         11   -1    0    0    0    0 -0.00000000000E+00 -0.00000000000E+00 -0.45593999997E+02  0.45594000000E+02  0.51100000000E-03 0. -1.
    9900012    2    1    2    0    0  0.26321913787E+00 -0.17562219474E+02 -0.64945129961E+01  0.72461560503E+02  0.69999987246E+02 0.  0.
         12    1    1    2    0    0 -0.26321913787E+00  0.17562219474E+02  0.64945129961E+01  0.18726439497E+02  0.00000000000E+00 0. -1.
         11    1    3    3    0    0 -0.88575805407E+01  0.17281460624E+01 -0.62944357915E+01  0.11002869809E+02  0.51100000000E-03 0. -1.
        -11    1    3    3    0    0 -0.16950421369E+02 -0.21207950143E+02  0.15203317517E+02  0.31116471484E+02  0.51100000000E-03 0.  1.
         12    1    3    3    0    0  0.26071221047E+02  0.19175846069E+01 -0.15403394721E+02  0.30342219210E+02  0.00000000000E+00 0. -1.
</event>
<event>
 7    1  0.3162486E-013  0.7246159E+02  0.7816164E-02  0.1226708E+00
        -11   -1    0    0    0    0  0.00000000000E+00  0.00000000000E+00  0.45593999997E+02  0.45594000000E+02  0.51100000000E-03 0.  1.
         11   -1    0    0    0    0 -0.00000000000E+00 -0.00000000000E+00 -0.45593999997E+02  0.45594000000E+02  0.51100000000E-03 0. -1.
    9900012    2    1    2    0    0  0.93086080730E+01  0.62087738827E+01  0.15015976107E+02  0.72461585612E+02  0.70000019954E+02 0.  0.
         12    1    1    2    0    0 -0.93086080730E+01 -0.62087738827E+01 -0.15015976107E+02  0.18726414388E+02  0.00000000000E+00 0. -1.
         11    1    3    3    0    0  0.11522746151E+02  0.25259147094E+01  0.12222609764E+02  0.16986645156E+02  0.51100000000E-03 0. -1.
        -11    1    3    3    0    0  0.17468203229E+02  0.12749404206E+02  0.18702898246E+02  0.28591674220E+02  0.51100000000E-03 0.  1.
         12    1    3    3    0    0 -0.19682341306E+02 -0.90665450332E+01 -0.15909531902E+02  0.26883266235E+02  0.00000000000E+00 0. -1.
</event>
<event>
 7    1  0.3162486E-013  0.7246163E+02  0.7816164E-02  0.1226708E+00
        -11   -1    0    0    0    0  0.00000000000E+00  0.00000000000E+00  0.45593999997E+02  0.45594000000E+02  0.51100000000E-03 0. -1.
         11   -1    0    0    0    0 -0.00000000000E+00 -0.00000000000E+00 -0.45593999997E+02  0.45594000000E+02  0.51100000000E-03 0.  1.
    9900012    2    1    2    0    0 -0.17579694440E+02 -0.62744454517E+01  0.15042077937E+01  0.72461629198E+02  0.70000076733E+02 0.  0.
         12    1    1    2    0    0  0.17579694440E+02  0.62744454517E+01 -0.15042077937E+01  0.18726370802E+02  0.00000000000E+00 0. -1.
         11    1    3    3    0    0 -0.19139344037E+02  0.13207268058E+02  0.30723511983E+01  0.23456038921E+02  0.51100000000E-03 0. -1.
        -11    1    3    3    0    0 -0.62416037025E+01  0.13160298310E+02 -0.46838410039E+01  0.15299981542E+02  0.51100000000E-03 0.  1.
        -12    1    3    3    0    0  0.78012532995E+01 -0.32642011819E+02  0.31156975993E+01  0.33705608735E+02  0.00000000000E+00 0.  1.
</event>
<event>
 7    1  0.3162486E-013  0.7246159E+02  0.7816164E-02  0.1226708E+00
        -11   -1    0    0    0    0  0.00000000000E+00  0.00000000000E+00  0.45593999997E+02  0.45594000000E+02  0.51100000000E-03 0.  1.
         11   -1    0    0    0    0 -0.00000000000E+00 -0.00000000000E+00 -0.45593999997E+02  0.45594000000E+02  0.51100000000E-03 0. -1.
    9900012    2    1    2    0    0 -0.62589777209E+01 -0.18630222927E+00  0.17648481848E+02  0.72461590249E+02  0.70000025995E+02 0.  0.
         12    1    1    2    0    0  0.62589777209E+01  0.18630222927E+00 -0.17648481848E+02  0.18726409751E+02  0.00000000000E+00 0. -1.
         11    1    3    3    0    0  0.10916963583E+02 -0.58354414952E+01  0.88640601073E+01  0.15225111926E+02  0.51100000000E-03 0. -1.
        -11    1    3    3    0    0 -0.14944922546E+01 -0.23275117917E+02  0.67117735521E+01  0.24269580252E+02  0.51100000000E-03 0.  1.
         12    1    3    3    0    0 -0.15681449050E+02  0.28924257183E+02  0.20726481882E+01  0.32966898071E+02  0.00000000000E+00 0. -1.
</event>
<event>
 7    1  0.3162486E-013  0.7246142E+02  0.7816164E-02  0.1226708E+00
        -11   -1    0    0    0    0  0.00000000000E+00  0.00000000000E+00  0.45593999997E+02  0.45594000000E+02  0.51100000000E-03 0.  1.
         11   -1    0    0    0    0 -0.00000000000E+00 -0.00000000000E+00 -0.45593999997E+02  0.45594000000E+02  0.51100000000E-03 0. -1.
    9900012    2    1    2    0    0 -0.20647077496E+00  0.10422626352E+02  0.15556707268E+02  0.72461416989E+02  0.69999800291E+02 0.  0.
         12    1    1    2    0    0  0.20647077496E+00 -0.10422626352E+02 -0.15556707268E+02  0.18726583011E+02  0.00000000000E+00 0. -1.
         11    1    3    3    0    0 -0.23721204285E+02 -0.80059712150E+01  0.89229481564E+01  0.26578376773E+02  0.51100000000E-03 0. -1.
        -11    1    3    3    0    0 -0.33504501123E+01 -0.62149817163E+01 -0.37262573221E+01  0.79835147385E+01  0.51100000000E-03 0.  1.
        -12    1    3    3    0    0  0.26865183622E+02  0.24643579283E+02  0.10360016433E+02  0.37899525478E+02  0.00000000000E+00 0.  1.
</event>
<event>
 7    1  0.3162486E-013  0.7246171E+02  0.7816164E-02  0.1226708E+00
        -11   -1    0    0    0    0  0.00000000000E+00  0.00000000000E+00  0.45593999997E+02  0.45594000000E+02  0.51100000000E-03 0.  1.
         11   -1    0    0    0    0 -0.00000000000E+00 -0.00000000000E+00 -0.45593999997E+02  0.45594000000E+02  0.51100000000E-03 0. -1.
    9900012    2    1    2    0    0 -0.17176418206E+02  0.21514505737E+01  0.71425269334E+01  0.72461714385E+02  0.70000187704E+02 0.  0.
         12    1    1    2    0    0  0.17176418206E+02 -0.21514505737E+01 -0.71425269334E+01  0.18726285615E+02  0.00000000000E+00 0. -1.
         11    1    3    3    0    0 -0.11244716899E+02  0.33581905602E+01 -0.51272476540E+01  0.12806629953E+02  0.51100000000E-03 0. -1.
        -11    1    3    3    0    0 -0.22268239195E+00 -0.91586154113E+01  0.34324208620E+02  0.35525781080E+02  0.51100000000E-03 0.  1.
         12    1    3    3    0    0 -0.57090189147E+01  0.79518754248E+01 -0.22054434033E+02  0.24129303352E+02  0.00000000000E+00 0. -1.
</event>
<event>
 7    1  0.3162486E-013  0.7246155E+02  0.7816164E-02  0.1226708E+00
        -11   -1    0    0    0    0  0.00000000000E+00  0.00000000000E+00  0.45593999997E+02  0.45594000000E+02  0.51100000000E-03 0.  1.
         11   -1    0    0    0    0 -0.00000000000E+00 -0.00000000000E+00 -0.45593999997E+02  0.45594000000E+02  0.51100000000E-03 0. -1.
    9900012    2    1    2    0    0  0.88963372976E+01 -0.96307239633E+01  0.13371022564E+02  0.72461550636E+02  0.69999974392E+02 0.  0.
         12    1    1    2    0    0 -0.88963372976E+01  0.96307239633E+01 -0.13371022564E+02  0.18726449364E+02  0.00000000000E+00 0. -1.
         11    1    3    3    0    0  0.78433613254E+01  0.15208671874E+02 -0.28734939987E+01  0.17351627735E+02  0.51100000000E-03 0. -1.
        -11    1    3    3    0    0  0.17132747530E+02 -0.24209921974E+02 -0.32445345906E+01  0.29835857032E+02  0.51100000000E-03 0.  1.
         12    1    3    3    0    0 -0.16079771557E+02 -0.62947386312E+00  0.19489051153E+02  0.25274065869E+02  0.00000000000E+00 0. -1.
</event>
<event>
 7    1  0.3162486E-013  0.7246155E+02  0.7816164E-02  0.1226708E+00
        -11   -1    0    0    0    0  0.00000000000E+00  0.00000000000E+00  0.45593999997E+02  0.45594000000E+02  0.51100000000E-03 0. -1.
         11   -1    0    0    0    0 -0.00000000000E+00 -0.00000000000E+00 -0.45593999997E+02  0.45594000000E+02  0.51100000000E-03 0.  1.
    9900012    2    1    2    0    0 -0.17745658014E+02 -0.58702585855E+01 -0.11452160680E+01  0.72461552551E+02  0.69999976886E+02 0.  0.
         12    1    1    2    0    0  0.17745658014E+02  0.58702585855E+01  0.11452160680E+01  0.18726447449E+02  0.00000000000E+00 0. -1.
         11    1    3    3    0    0  0.67644997390E+01 -0.55545278647E+00 -0.19287981090E+02  0.20447327436E+02  0.51100000000E-03 0. -1.
        -11    1    3    3    0    0 -0.75873895359E+01 -0.20444658859E+02 -0.16874993973E+01  0.21872361791E+02  0.51100000000E-03 0.  1.
         12    1    3    3    0    0 -0.16922768217E+02  0.15129853060E+02  0.19830264419E+02  0.30141863324E+02  0.00000000000E+00 0. -1.
</event>
<event>
 7    1  0.3162486E-013  0.7246162E+02  0.7816164E-02  0.1226708E+00
        -11   -1    0    0    0    0  0.00000000000E+00  0.00000000000E+00  0.45593999997E+02  0.45594000000E+02  0.51100000000E-03 0.  1.
         11   -1    0    0    0    0 -0.00000000000E+00 -0.00000000000E+00 -0.45593999997E+02  0.45594000000E+02  0.51100000000E-03 0. -1.
    9900012    2    1    2    0    0 -0.56440364044E+01  0.15020769975E+02  0.96539385543E+01  0.72461622689E+02  0.70000068254E+02 0.  0.
         12    1    1    2    0    0  0.56440364044E+01 -0.15020769975E+02 -0.96539385543E+01  0.18726377311E+02  0.00000000000E+00 0. -1.
         11    1    3    3    0    0 -0.72848083392E+01  0.57572542139E+01 -0.55359207200E+00  0.93016596942E+01  0.51100000000E-03 0. -1.
        -11    1    3    3    0    0 -0.27880014311E+02  0.56721772697E+01 -0.63096842899E+01  0.29142424557E+02  0.51100000000E-03 0.  1.
         12    1    3    3    0    0  0.29520786246E+02  0.35913384919E+01  0.16517214916E+02  0.34017538437E+02  0.00000000000E+00 0. -1.
</event>
<event>
 7    1  0.3162486E-013  0.7246161E+02  0.7816164E-02  0.1226708E+00
        -11   -1    0    0    0    0  0.00000000000E+00  0.00000000000E+00  0.45593999997E+02  0.45594000000E+02  0.51100000000E-03 0.  1.
         11   -1    0    0    0    0 -0.00000000000E+00 -0.00000000000E+00 -0.45593999997E+02  0.45594000000E+02  0.51100000000E-03 0. -1.
    9900012    2    1    2    0    0 -0.13506472534E+01  0.10449028697E+02  0.15481321033E+02  0.72461608206E+02  0.70000049386E+02 0.  0.
         12    1    1    2    0    0  0.13506472534E+01 -0.10449028697E+02 -0.15481321033E+02  0.18726391794E+02  0.00000000000E+00 0. -1.
         11    1    3    3    0    0 -0.27073338615E+01 -0.64665907548E+01 -0.10514247822E+02  0.12637082739E+02  0.51100000000E-03 0. -1.
        -11    1    3    3    0    0  0.19689467293E+02  0.25098950898E+02  0.80584381585E+01  0.32902444959E+02  0.51100000000E-03 0.  1.
         12    1    3    3    0    0 -0.18332780685E+02 -0.81833314461E+01  0.17937130697E+02  0.26922080507E+02  0.00000000000E+00 0. -1.
</event>
<event>
 7    1  0.3162486E-013  0.7246164E+02  0.7816164E-02  0.1226708E+00
        -11   -1    0    0    0    0  0.00000000000E+00  0.00000000000E+00  0.45593999997E+02  0.45594000000E+02  0.51100000000E-03 0. -1.
         11   -1    0    0    0    0 -0.00000000000E+00 -0.00000000000E+00 -0.45593999997E+02  0.45594000000E+02  0.51100000000E-03 0.  1.
    9900012    2    1    2    0    0 -0.36948614582E+01 -0.18337880968E+02  0.86404052066E+00  0.72461643024E+02  0.70000094744E+02 0.  0.
         12    1    1    2    0    0  0.36948614582E+01  0.18337880968E+02 -0.86404052066E+00  0.18726356976E+02  0.00000000000E+00 0. -1.
         11    1    3    3    0    0  0.53925574912E+01 -0.20539340169E+02 -0.11653556537E+02  0.24222913761E+02  0.51100000000E-03 0. -1.
        -11    1    3    3    0    0 -0.25078627194E+02  0.72490986689E+01 -0.18301798452E+01  0.26169381574E+02  0.51100000000E-03 0.  1.
         12    1    3    3    0    0  0.15991208245E+02 -0.50476394677E+01  0.14347776903E+02  0.22069347688E+02  0.00000000000E+00 0. -1.
</event>
<event>
 7    1  0.3162486E-013  0.7246158E+02  0.7816164E-02  0.1226708E+00
        -11   -1    0    0    0    0  0.00000000000E+00  0.00000000000E+00  0.45593999997E+02  0.45594000000E+02  0.51100000000E-03 0. -1.
         11   -1    0    0    0    0 -0.00000000000E+00 -0.00000000000E+00 -0.45593999997E+02  0.45594000000E+02  0.51100000000E-03 0.  1.
    9900012    2    1    2    0    0  0.29019993454E+01  0.41824587836E+00 -0.18495463142E+02  0.72461583187E+02  0.70000016795E+02 0.  0.
         12    1    1    2    0    0 -0.29019993454E+01 -0.41824587836E+00  0.18495463142E+02  0.18726416813E+02  0.00000000000E+00 0. -1.
         11    1    3    3    0    0 -0.13970603978E+02 -0.71834931870E+00  0.35510520160E+01  0.14432732657E+02  0.51100000000E-03 0. -1.
        -11    1    3    3    0    0 -0.79493316724E+01  0.14448115133E+02  0.66851382301E+01  0.17794127636E+02  0.51100000000E-03 0.  1.
        -12    1    3    3    0    0  0.24821934996E+02 -0.13311519936E+02 -0.28731653388E+02  0.40234722894E+02  0.00000000000E+00 0.  1.
</event>
<event>
 7    1  0.3162486E-013  0.7246158E+02  0.7816164E-02  0.1226708E+00
        -11   -1    0    0    0    0  0.00000000000E+00  0.00000000000E+00  0.45593999997E+02  0.45594000000E+02  0.51100000000E-03 0. -1.
         11   -1    0    0    0    0 -0.00000000000E+00 -0.00000000000E+00 -0.45593999997E+02  0.45594000000E+02  0.51100000000E-03 0.  1.
    9900012    2    1    2    0    0  0.43668997659E+01 -0.14663061375E+02 -0.10798319084E+02  0.72461578091E+02  0.70000010157E+02 0.  0.
         12    1    1    2    0    0 -0.43668997659E+01  0.14663061375E+02  0.10798319084E+02  0.18726421909E+02  0.00000000000E+00 0. -1.
         11    1    3    3    0    0  0.13892508162E+02 -0.19179588151E+02  0.12469162306E+02  0.26764498754E+02  0.51100000000E-03 0. -1.
        -11    1    3    3    0    0 -0.23896392983E+02 -0.97389708280E+00 -0.13286762342E+02  0.27359168973E+02  0.51100000000E-03 0.  1.
        -12    1    3    3    0    0  0.14370784587E+02  0.54904238588E+01 -0.99807190478E+01  0.18337910364E+02  0.00000000000E+00 0.  1.
</event>
<event>
 7    1  0.3162486E-013  0.7246152E+02  0.7816164E-02  0.1226708E+00
        -11   -1    0    0    0    0  0.00000000000E+00  0.00000000000E+00  0.45593999997E+02  0.45594000000E+02  0.51100000000E-03 0. -1.
         11   -1    0    0    0    0 -0.00000000000E+00 -0.00000000000E+00 -0.45593999997E+02  0.45594000000E+02  0.51100000000E-03 0.  1.
    9900012    2    1    2    0    0 -0.10280097136E+02 -0.10030971990E+02 -0.12015831838E+02  0.72461521128E+02  0.69999935951E+02 0.  0.
         12    1    1    2    0    0  0.10280097136E+02  0.10030971990E+02  0.12015831838E+02  0.18726478872E+02  0.00000000000E+00 0. -1.
         11    1    3    3    0    0  0.14466064990E+02  0.29198079116E+01 -0.48863110241E+01  0.15545685904E+02  0.51100000000E-03 0. -1.
        -11    1    3    3    0    0 -0.64250437511E+01 -0.29330485924E+02 -0.11118929732E+02  0.32018575708E+02  0.51100000000E-03 0.  1.
         12    1    3    3    0    0 -0.18321118375E+02  0.16379706022E+02  0.39894089182E+01  0.24897259516E+02  0.00000000000E+00 0. -1.
</event>
<event>
 7    1  0.3162486E-013  0.7246165E+02  0.7816164E-02  0.1226708E+00
        -11   -1    0    0    0    0  0.00000000000E+00  0.00000000000E+00  0.45593999997E+02  0.45594000000E+02  0.51100000000E-03 0. -1.
         11   -1    0    0    0    0 -0.00000000000E+00 -0.00000000000E+00 -0.45593999997E+02  0.45594000000E+02  0.51100000000E-03 0.  1.
    9900012    2    1    2    0    0  0.34564957102E+01  0.16619905062E+02 -0.79061793843E+01  0.72461647464E+02  0.70000100527E+02 0.  0.
         12    1    1    2    0    0 -0.34564957102E+01 -0.16619905062E+02  0.79061793843E+01  0.18726352536E+02  0.00000000000E+00 0. -1.
         11    1    3    3    0    0 -0.14964348326E+02 -0.81004012806E+00 -0.16973993409E+02  0.22642975474E+02  0.51100000000E-03 0. -1.
        -11    1    3    3    0    0  0.10813783004E+02 -0.10631402048E+02 -0.68862214544E+01  0.16654868914E+02  0.51100000000E-03 0.  1.
        -12    1    3    3    0    0  0.76070610322E+01  0.28061347238E+02  0.15954035479E+02  0.33163803076E+02  0.00000000000E+00 0.  1.
</event>
<event>
 7    1  0.3162486E-013  0.7246157E+02  0.7816164E-02  0.1226708E+00
        -11   -1    0    0    0    0  0.00000000000E+00  0.00000000000E+00  0.45593999997E+02  0.45594000000E+02  0.51100000000E-03 0.  1.
         11   -1    0    0    0    0 -0.00000000000E+00 -0.00000000000E+00 -0.45593999997E+02  0.45594000000E+02  0.51100000000E-03 0. -1.
    9900012    2    1    2    0    0 -0.83248476528E+01  0.16668935379E+02 -0.18768800344E+01  0.72461570180E+02  0.69999999852E+02 0.  0.
         12    1    1    2    0    0  0.83248476528E+01 -0.16668935379E+02  0.18768800344E+01  0.18726429820E+02  0.00000000000E+00 0. -1.
         11    1    3    3    0    0  0.18804429545E+01 -0.14213983531E+02  0.33541045181E+01  0.14724924818E+02  0.51100000000E-03 0.  1.
        -11    1    3    3    0    0  0.17699893148E+02  0.59143178946E+01  0.41861156033E+01  0.19125609473E+02  0.51100000000E-03 0. -1.
         12    1    3    3    0    0 -0.27905183755E+02  0.24968601016E+02 -0.94171001559E+01  0.38611035889E+02  0.00000000000E+00 0. -1.
</event>
<event>
 7    1  0.3162486E-013  0.7246160E+02  0.7816164E-02  0.1226708E+00
        -11   -1    0    0    0    0  0.00000000000E+00  0.00000000000E+00  0.45593999997E+02  0.45594000000E+02  0.51100000000E-03 0. -1.
         11   -1    0    0    0    0 -0.00000000000E+00 -0.00000000000E+00 -0.45593999997E+02  0.45594000000E+02  0.51100000000E-03 0.  1.
    9900012    2    1    2    0    0  0.34646107291E+01  0.81803599398E+00 -0.18384919375E+02  0.72461602300E+02  0.70000041694E+02 0.  0.
         12    1    1    2    0    0 -0.34646107291E+01 -0.81803599398E+00  0.18384919375E+02  0.18726397700E+02  0.00000000000E+00 0. -1.
         11    1    3    3    0    0 -0.46924138474E+00  0.30270602275E+02 -0.80797256945E+01  0.31333871722E+02  0.51100000000E-03 0. -1.
        -11    1    3    3    0    0  0.13290777585E+01 -0.63786373352E+00 -0.12052969915E+02  0.12142792178E+02  0.51100000000E-03 0.  1.
        -12    1    3    3    0    0  0.26047743554E+01 -0.28814702547E+02  0.17477762350E+01  0.28984938401E+02  0.00000000000E+00 0.  1.
</event>
<event>
 7    1  0.3162486E-013  0.7246156E+02  0.7816164E-02  0.1226708E+00
        -11   -1    0    0    0    0  0.00000000000E+00  0.00000000000E+00  0.45593999997E+02  0.45594000000E+02  0.51100000000E-03 0. -1.
         11   -1    0    0    0    0 -0.00000000000E+00 -0.00000000000E+00 -0.45593999997E+02  0.45594000000E+02  0.51100000000E-03 0.  1.
    9900012    2    1    2    0    0  0.10540640327E+02  0.12480746334E+02 -0.91545352777E+01  0.72461557634E+02  0.69999983507E+02 0.  0.
         12    1    1    2    0    0 -0.10540640327E+02 -0.12480746334E+02  0.91545352777E+01  0.18726442366E+02  0.00000000000E+00 0. -1.
         11    1    3    3    0    0 -0.33344630510E+01 -0.15986680591E+02 -0.12472847513E+02  0.20549076026E+02  0.51100000000E-03 0. -1.
        -11    1    3    3    0    0  0.11602296514E+02  0.32791830854E+02 -0.11241221768E+02  0.36555198294E+02  0.51100000000E-03 0.  1.
         12    1    3    3    0    0  0.22728068641E+01 -0.43244039295E+01  0.14559534004E+02  0.15357283314E+02  0.00000000000E+00 0. -1.
</event>
<event>
 7    1  0.3162486E-013  0.7246159E+02  0.7816164E-02  0.1226708E+00
        -11   -1    0    0    0    0  0.00000000000E+00  0.00000000000E+00  0.45593999997E+02  0.45594000000E+02  0.51100000000E-03 0.  1.
         11   -1    0    0    0    0 -0.00000000000E+00 -0.00000000000E+00 -0.45593999997E+02  0.45594000000E+02  0.51100000000E-03 0. -1.
    9900012    2    1    2    0    0 -0.11205597152E+01  0.14637263984E+02  0.11626410234E+02  0.72461586410E+02  0.70000020994E+02 0.  0.
         12    1    1    2    0    0  0.11205597152E+01 -0.14637263984E+02 -0.11626410234E+02  0.18726413590E+02  0.00000000000E+00 0. -1.
         11    1    3    3    0    0  0.40191141566E+01 -0.15356071191E+02  0.72737896960E+01  0.17460533149E+02  0.51100000000E-03 0. -1.
        -11    1    3    3    0    0  0.16951688577E+00 -0.11112205800E+02  0.75428408955E+01  0.13431466888E+02  0.51100000000E-03 0.  1.
         12    1    3    3    0    0 -0.53091907575E+01  0.41105540975E+02 -0.31902203576E+01  0.41569586374E+02  0.00000000000E+00 0. -1.
</event>
<event>
 7    1  0.3162486E-013  0.7246159E+02  0.7816164E-02  0.1226708E+00
        -11   -1    0    0    0    0  0.00000000000E+00  0.00000000000E+00  0.45593999997E+02  0.45594000000E+02  0.51100000000E-03 0.  1.
         11   -1    0    0    0    0 -0.00000000000E+00 -0.00000000000E+00 -0.45593999997E+02  0.45594000000E+02  0.51100000000E-03 0. -1.
    9900012    2    1    2    0    0  0.15437428277E+02  0.27931506727E+01  0.10225580760E+02  0.72461591258E+02  0.70000027309E+02 0.  0.
         12    1    1    2    0    0 -0.15437428277E+02 -0.27931506727E+01 -0.10225580760E+02  0.18726408742E+02  0.00000000000E+00 0. -1.
         11    1    3    3    0    0 -0.26524022931E+01 -0.24386301316E+02  0.38705643381E+01  0.24833610256E+02  0.51100000000E-03 0. -1.
        -11    1    3    3    0    0 -0.55452105129E+01  0.14906319147E+02 -0.75268405007E+01  0.17595483464E+02  0.51100000000E-03 0.  1.
        -12    1    3    3    0    0  0.23635041083E+02  0.12273132842E+02  0.13881856922E+02  0.30032497538E+02  0.00000000000E+00 0.  1.
</event>
<event>
 7    1  0.3162486E-013  0.7246158E+02  0.7816164E-02  0.1226708E+00
        -11   -1    0    0    0    0  0.00000000000E+00  0.00000000000E+00  0.45593999997E+02  0.45594000000E+02  0.51100000000E-03 0. -1.
         11   -1    0    0    0    0 -0.00000000000E+00 -0.00000000000E+00 -0.45593999997E+02  0.45594000000E+02  0.51100000000E-03 0.  1.
    9900012    2    1    2    0    0  0.16402967236E+02  0.44410121056E+01 -0.78675833716E+01  0.72461580407E+02  0.70000013173E+02 0.  0.
         12    1    1    2    0    0 -0.16402967236E+02 -0.44410121056E+01  0.78675833716E+01  0.18726419593E+02  0.00000000000E+00 0. -1.
         11    1    3    3    0    0  0.34941640138E+02 -0.12367171037E+01 -0.57774515232E+01  0.35437644266E+02  0.51100000000E-03 0. -1.
        -11    1    3    3    0    0  0.85949702786E+01  0.38457093578E+01  0.16915722375E+01  0.95668391567E+01  0.51100000000E-03 0.  1.
        -12    1    3    3    0    0 -0.27133643181E+02  0.18320198515E+01 -0.37817040859E+01  0.27457096984E+02  0.00000000000E+00 0.  1.
</event>
<event>
 7    1  0.3162486E-013  0.7246160E+02  0.7816164E-02  0.1226708E+00
        -11   -1    0    0    0    0  0.00000000000E+00  0.00000000000E+00  0.45593999997E+02  0.45594000000E+02  0.51100000000E-03 0. -1.
         11   -1    0    0    0    0 -0.00000000000E+00 -0.00000000000E+00 -0.45593999997E+02  0.45594000000E+02  0.51100000000E-03 0.  1.
    9900012    2    1    2    0    0 -0.17615745855E+01  0.18044448982E+02 -0.46875138260E+01  0.72461599653E+02  0.70000038245E+02 0.  0.
         12    1    1    2    0    0  0.17615745855E+01 -0.18044448982E+02  0.46875138260E+01  0.18726400347E+02  0.00000000000E+00 0. -1.
         11    1    3    3    0    0  0.11298557846E+02  0.24140244256E+02 -0.62775457389E+00  0.26660886673E+02  0.51100000000E-03 0. -1.
        -11    1    3    3    0    0  0.19233300092E+01  0.12323815201E+02 -0.15125149930E+02  0.19604738716E+02  0.51100000000E-03 0.  1.
         12    1    3    3    0    0 -0.14983462441E+02 -0.18419610476E+02  0.11065390678E+02  0.26195974264E+02  0.00000000000E+00 0. -1.
</event>
<event>
 7    1  0.3162486E-013  0.7246167E+02  0.7816164E-02  0.1226708E+00
        -11   -1    0    0    0    0  0.00000000000E+00  0.00000000000E+00  0.45593999997E+02  0.45594000000E+02  0.51100000000E-03 0.  1.
         11   -1    0    0    0    0 -0.00000000000E+00 -0.00000000000E+00 -0.45593999997E+02  0.45594000000E+02  0.51100000000E-03 0. -1.
    9900012    2    1    2    0    0  0.98493575870E+01  0.98689847598E+01  0.12500745126E+02  0.72461672710E+02  0.70000133415E+02 0.  0.
         12    1    1    2    0    0 -0.98493575870E+01 -0.98689847598E+01 -0.12500745126E+02  0.18726327290E+02  0.00000000000E+00 0. -1.
         11    1    3    3    0    0  0.16470789729E+02  0.14798770313E+02 -0.64691025262E+01  0.23068155644E+02  0.51100000000E-03 0. -1.
        -11    1    3    3    0    0 -0.64952101421E+01  0.19218549338E+02  0.14241489492E+02  0.24786294937E+02  0.51100000000E-03 0.  1.
         12    1    3    3    0    0 -0.12622200014E+00 -0.24148334891E+02  0.47283581604E+01  0.24607222129E+02  0.00000000000E+00 0. -1.
</event>
<event>
 7    1  0.3162486E-013  0.7246160E+02  0.7816164E-02  0.1226708E+00
        -11   -1    0    0    0    0  0.00000000000E+00  0.00000000000E+00  0.45593999997E+02  0.45594000000E+02  0.51100000000E-03 0.  1.
         11   -1    0    0    0    0 -0.00000000000E+00 -0.00000000000E+00 -0.45593999997E+02  0.45594000000E+02  0.51100000000E-03 0. -1.
    9900012    2    1    2    0    0 -0.34050564637E+01 -0.66084986927E+01  0.17187540208E+02  0.72461596104E+02  0.70000033622E+02 0.  0.
         12    1    1    2    0    0  0.34050564637E+01  0.66084986927E+01 -0.17187540208E+02  0.18726403896E+02  0.00000000000E+00 0. -1.
         11    1    3    3    0    0 -0.15740227218E+01 -0.15861665451E+00 -0.38912833501E+01  0.42005705735E+01  0.51100000000E-03 0. -1.
        -11    1    3    3    0    0 -0.12093399483E+02 -0.31058649894E+02  0.24518960846E+02  0.41377161400E+02  0.51100000000E-03 0.  1.
         12    1    3    3    0    0  0.10262365741E+02  0.24608767856E+02 -0.34401372887E+01  0.26883864130E+02  0.00000000000E+00 0. -1.
</event>
<event>
 7    1  0.3162486E-013  0.7246208E+02  0.7816164E-02  0.1226707E+00
        -11   -1    0    0    0    0  0.00000000000E+00  0.00000000000E+00  0.45593999997E+02  0.45594000000E+02  0.51100000000E-03 0.  1.
         11   -1    0    0    0    0 -0.00000000000E+00 -0.00000000000E+00 -0.45593999997E+02  0.45594000000E+02  0.51100000000E-03 0. -1.
    9900012    2    1    2    0    0 -0.50522361444E+01  0.23666084708E+01  0.17875518333E+02  0.72462079959E+02  0.70000663930E+02 0.  0.
         12    1    1    2    0    0  0.50522361444E+01 -0.23666084708E+01 -0.17875518333E+02  0.18725920041E+02  0.00000000000E+00 0. -1.
         11    1    3    3    0    0  0.39605673646E+01  0.86417501977E+01 -0.56939734583E+01  0.11080941943E+02  0.51100000000E-03 0. -1.
        -11    1    3    3    0    0  0.83843076614E+01 -0.60147130287E+00  0.37469988272E+02  0.38401281281E+02  0.51100000000E-03 0.  1.
         12    1    3    3    0    0 -0.17397111170E+02 -0.56736704241E+01 -0.13900496481E+02  0.22979856735E+02  0.00000000000E+00 0. -1.
</event>
<event>
 7    1  0.3162486E-013  0.7246162E+02  0.7816164E-02  0.1226708E+00
        -11   -1    0    0    0    0  0.00000000000E+00  0.00000000000E+00  0.45593999997E+02  0.45594000000E+02  0.51100000000E-03 0.  1.
         11   -1    0    0    0    0 -0.00000000000E+00 -0.00000000000E+00 -0.45593999997E+02  0.45594000000E+02  0.51100000000E-03 0. -1.
    9900012    2    1    2    0    0 -0.11731148192E+02 -0.87119352152E+01  0.11711519047E+02  0.72461619370E+02  0.70000063930E+02 0.  0.
         12    1    1    2    0    0  0.11731148192E+02  0.87119352152E+01 -0.11711519047E+02  0.18726380630E+02  0.00000000000E+00 0. -1.
         11    1    3    3    0    0 -0.14468615955E+02  0.12810006585E+02 -0.82504853987E+01  0.21012082856E+02  0.51100000000E-03 0. -1.
        -11    1    3    3    0    0  0.64011827127E+00  0.12084322104E+02 -0.38556248148E+00  0.12107404792E+02  0.51100000000E-03 0.  1.
        -12    1    3    3    0    0  0.20973494919E+01 -0.33606263905E+02  0.20347566927E+02  0.39342131721E+02  0.00000000000E+00 0.  1.
</event>
<event>
 7    1  0.3162486E-013  0.7246158E+02  0.7816164E-02  0.1226708E+00
        -11   -1    0    0    0    0  0.00000000000E+00  0.00000000000E+00  0.45593999997E+02  0.45594000000E+02  0.51100000000E-03 0.  1.
         11   -1    0    0    0    0 -0.00000000000E+00 -0.00000000000E+00 -0.45593999997E+02  0.45594000000E+02  0.51100000000E-03 0. -1.
    9900012    2    1    2    0    0 -0.93459903832E+00 -0.17373702321E+02 -0.69253094736E+01  0.72461576984E+02  0.70000008714E+02 0.  0.
         12    1    1    2    0    0  0.93459903832E+00  0.17373702321E+02  0.69253094736E+01  0.18726423016E+02  0.00000000000E+00 0. -1.
         11    1    3    3    0    0 -0.22879709049E+02 -0.19229240687E+02 -0.21034912087E+02  0.36547398134E+02  0.51100000000E-03 0. -1.
        -11    1    3    3    0    0 -0.28743871569E+01 -0.56632560302E+01  0.60139816133E+01  0.87465733575E+01  0.51100000000E-03 0.  1.
        -12    1    3    3    0    0  0.24819497167E+02  0.75187943965E+01  0.80956210004E+01  0.27167605493E+02  0.00000000000E+00 0.  1.
</event>
<event>
 7    1  0.3162486E-013  0.7246156E+02  0.7816164E-02  0.1226708E+00
        -11   -1    0    0    0    0  0.00000000000E+00  0.00000000000E+00  0.45593999997E+02  0.45594000000E+02  0.51100000000E-03 0.  1.
         11   -1    0    0    0    0 -0.00000000000E+00 -0.00000000000E+00 -0.45593999997E+02  0.45594000000E+02  0.51100000000E-03 0. -1.
    9900012    2    1    2    0    0 -0.15383779242E+02  0.10616237645E+02  0.11464850307E+01  0.72461558976E+02  0.69999985256E+02 0.  0.
         12    1    1    2    0    0  0.15383779242E+02 -0.10616237645E+02 -0.11464850307E+01  0.18726441024E+02  0.00000000000E+00 0. -1.
         11    1    3    3    0    0  0.19303990450E+01  0.15554781224E+02  0.23717980040E+01  0.15852541923E+02  0.51100000000E-03 0. -1.
        -11    1    3    3    0    0  0.18806869225E+02 -0.63602035298E+01  0.34771565363E+01  0.20155424501E+02  0.51100000000E-03 0.  1.
         12    1    3    3    0    0 -0.36121047512E+02  0.14216599505E+01 -0.47024695096E+01  0.36453592551E+02  0.00000000000E+00 0. -1.
</event>
<event>
 7    1  0.3162486E-013  0.7246152E+02  0.7816164E-02  0.1226708E+00
        -11   -1    0    0    0    0  0.00000000000E+00  0.00000000000E+00  0.45593999997E+02  0.45594000000E+02  0.51100000000E-03 0.  1.
         11   -1    0    0    0    0 -0.00000000000E+00 -0.00000000000E+00 -0.45593999997E+02  0.45594000000E+02  0.51100000000E-03 0. -1.
    9900012    2    1    2    0    0 -0.18739157794E+01  0.35463757023E+01  0.18291873717E+02  0.72461521820E+02  0.69999936853E+02 0.  0.
         12    1    1    2    0    0  0.18739157794E+01 -0.35463757023E+01 -0.18291873717E+02  0.18726478180E+02  0.00000000000E+00 0. -1.
         11    1    3    3    0    0 -0.10653964777E+02  0.14316464386E+02  0.35597592631E+01  0.18197252657E+02  0.51100000000E-03 0. -1.
        -11    1    3    3    0    0 -0.37423217286E+01  0.12568238209E+02 -0.11164268655E+02  0.17222266937E+02  0.51100000000E-03 0.  1.
        -12    1    3    3    0    0  0.12522370726E+02 -0.23338326893E+02  0.25896383109E+02  0.37042002225E+02  0.00000000000E+00 0.  1.
</event>
<event>
 7    1  0.3162486E-013  0.7246159E+02  0.7816164E-02  0.1226708E+00
        -11   -1    0    0    0    0  0.00000000000E+00  0.00000000000E+00  0.45593999997E+02  0.45594000000E+02  0.51100000000E-03 0.  1.
         11   -1    0    0    0    0 -0.00000000000E+00 -0.00000000000E+00 -0.45593999997E+02  0.45594000000E+02  0.51100000000E-03 0. -1.
    9900012    2    1    2    0    0  0.52590588643E+01 -0.61997678536E+01  0.16869610681E+02  0.72461585872E+02  0.70000020293E+02 0.  0.
         12    1    1    2    0    0 -0.52590588643E+01  0.61997678536E+01 -0.16869610681E+02  0.18726414128E+02  0.00000000000E+00 0. -1.
         11    1    3    3    0    0  0.17515439775E+02  0.11569519688E+02 -0.17601103479E+02  0.27394219468E+02  0.51100000000E-03 0. -1.
        -11    1    3    3    0    0 -0.44272721109E+01 -0.98031537735E+01  0.22820709424E+01  0.10995926987E+02  0.51100000000E-03 0.  1.
        -12    1    3    3    0    0 -0.78291087999E+01 -0.79661337679E+01  0.32188643217E+02  0.34071439417E+02  0.00000000000E+00 0.  1.
</event>
<event>
 7    1  0.3162486E-013  0.7246158E+02  0.7816164E-02  0.1226708E+00
        -11   -1    0    0    0    0  0.00000000000E+00  0.00000000000E+00  0.45593999997E+02  0.45594000000E+02  0.51100000000E-03 0. -1.
         11   -1    0    0    0    0 -0.00000000000E+00 -0.00000000000E+00 -0.45593999997E+02  0.45594000000E+02  0.51100000000E-03 0.  1.
    9900012    2    1    2    0    0 -0.52001332804E+01 -0.14680549739E+02 -0.10398023189E+02  0.72461579813E+02  0.70000012400E+02 0.  0.
         12    1    1    2    0    0  0.52001332804E+01  0.14680549739E+02  0.10398023189E+02  0.18726420187E+02  0.00000000000E+00 0. -1.
         11    1    3    3    0    0  0.47359688703E+01  0.10282448373E+02  0.30712004844E+01  0.11729894218E+02  0.51100000000E-03 0. -1.
        -11    1    3    3    0    0  0.20410377217E+02 -0.12838259307E+02 -0.14315491608E+02  0.28041713578E+02  0.51100000000E-03 0.  1.
         12    1    3    3    0    0 -0.30346479367E+02 -0.12124738805E+02  0.84626793490E+00  0.32689972018E+02  0.00000000000E+00 0. -1.
</event>
<event>
 7    1  0.3162486E-013  0.7246157E+02  0.7816164E-02  0.1226708E+00
        -11   -1    0    0    0    0  0.00000000000E+00  0.00000000000E+00  0.45593999997E+02  0.45594000000E+02  0.51100000000E-03 0.  1.
         11   -1    0    0    0    0 -0.00000000000E+00 -0.00000000000E+00 -0.45593999997E+02  0.45594000000E+02  0.51100000000E-03 0. -1.
    9900012    2    1    2    0    0  0.49711666326E+01 -0.13738951097E+02  0.11713571324E+02  0.72461574071E+02  0.70000004919E+02 0.  0.
         12    1    1    2    0    0 -0.49711666326E+01  0.13738951097E+02 -0.11713571324E+02  0.18726425929E+02  0.00000000000E+00 0. -1.
         11    1    3    3    0    0  0.16345718920E+01 -0.54098066164E+01  0.60018654904E+01  0.82437990346E+01  0.51100000000E-03 0. -1.
        -11    1    3    3    0    0  0.64686554747E+01 -0.14623224194E+02  0.32661767878E+02  0.36365825587E+02  0.51100000000E-03 0.  1.
         12    1    3    3    0    0 -0.31320607341E+01  0.62940797133E+01 -0.26950062045E+02  0.27851949449E+02  0.00000000000E+00 0. -1.
</event>
<event>
 7    1  0.3162486E-013  0.7246154E+02  0.7816164E-02  0.1226708E+00
        -11   -1    0    0    0    0  0.00000000000E+00  0.00000000000E+00  0.45593999997E+02  0.45594000000E+02  0.51100000000E-03 0.  1.
         11   -1    0    0    0    0 -0.00000000000E+00 -0.00000000000E+00 -0.45593999997E+02  0.45594000000E+02  0.51100000000E-03 0. -1.
    9900012    2    1    2    0    0 -0.39921546807E+01  0.15698655453E+02  0.93965627303E+01  0.72461535487E+02  0.69999954657E+02 0.  0.
         12    1    1    2    0    0  0.39921546807E+01 -0.15698655453E+02 -0.93965627303E+01  0.18726464513E+02  0.00000000000E+00 0. -1.
         11    1    3    3    0    0 -0.27564890892E+02  0.29419553484E+02  0.75345779911E+01  0.41013451487E+02  0.51100000000E-03 0.  1.
        -11    1    3    3    0    0  0.26876829645E+01 -0.97541213113E+01  0.11917718351E+00  0.10118336115E+02  0.51100000000E-03 0. -1.
        -12    1    3    3    0    0  0.20885053247E+02 -0.39667767196E+01  0.17428075557E+01  0.21329747885E+02  0.00000000000E+00 0.  1.
</event>
<event>
 7    1  0.3162486E-013  0.7246156E+02  0.7816164E-02  0.1226708E+00
        -11   -1    0    0    0    0  0.00000000000E+00  0.00000000000E+00  0.45593999997E+02  0.45594000000E+02  0.51100000000E-03 0.  1.
         11   -1    0    0    0    0 -0.00000000000E+00 -0.00000000000E+00 -0.45593999997E+02  0.45594000000E+02  0.51100000000E-03 0. -1.
    9900012    2    1    2    0    0  0.12093405511E+01  0.19011810863E+00  0.18686377973E+02  0.72461564909E+02  0.69999992984E+02 0.  0.
         12    1    1    2    0    0 -0.12093405511E+01 -0.19011810863E+00 -0.18686377973E+02  0.18726435091E+02  0.00000000000E+00 0. -1.
         11    1    3    3    0    0 -0.14564535644E+02  0.79233903270E+01 -0.10273715602E+02  0.19505256864E+02  0.51100000000E-03 0. -1.
        -11    1    3    3    0    0  0.12521767950E+02  0.72019006106E+01 -0.53431824170E+01  0.15401676649E+02  0.51100000000E-03 0.  1.
        -12    1    3    3    0    0  0.32521082455E+01 -0.14935172829E+02  0.34303275993E+02  0.37554631396E+02  0.00000000000E+00 0.  1.
</event>
<event>
 7    1  0.3162486E-013  0.7246161E+02  0.7816164E-02  0.1226708E+00
        -11   -1    0    0    0    0  0.00000000000E+00  0.00000000000E+00  0.45593999997E+02  0.45594000000E+02  0.51100000000E-03 0.  1.
         11   -1    0    0    0    0 -0.00000000000E+00 -0.00000000000E+00 -0.45593999997E+02  0.45594000000E+02  0.51100000000E-03 0. -1.
    9900012    2    1    2    0    0  0.30020873873E+01  0.77103327367E+01  0.16799279737E+02  0.72461613288E+02  0.70000056008E+02 0.  0.
         12    1    1    2    0    0 -0.30020873873E+01 -0.77103327367E+01 -0.16799279737E+02  0.18726386712E+02  0.00000000000E+00 0. -1.
         11    1    3    3    0    0 -0.14463771262E+02  0.10289905471E+02  0.12566982007E+02  0.21748836078E+02  0.51100000000E-03 0. -1.
        -11    1    3    3    0    0  0.57932161883E+01  0.18684157161E+02  0.14522862919E+02  0.24363346040E+02  0.51100000000E-03 0.  1.
         12    1    3    3    0    0  0.11672642461E+02 -0.21263729895E+02 -0.10290565189E+02  0.26349431170E+02  0.00000000000E+00 0. -1.
</event>
<event>
 7    1  0.3162486E-013  0.7246157E+02  0.7816164E-02  0.1226708E+00
        -11   -1    0    0    0    0  0.00000000000E+00  0.00000000000E+00  0.45593999997E+02  0.45594000000E+02  0.51100000000E-03 0. -1.
         11   -1    0    0    0    0 -0.00000000000E+00 -0.00000000000E+00 -0.45593999997E+02  0.45594000000E+02  0.51100000000E-03 0.  1.
    9900012    2    1    2    0    0  0.82802392347E+00 -0.14699211828E+02  0.11572678853E+02  0.72461565534E+02  0.69999993799E+02 0.  0.
         12    1    1    2    0    0 -0.82802392347E+00  0.14699211828E+02 -0.11572678853E+02  0.18726434466E+02  0.00000000000E+00 0. -1.
         11    1    3    3    0    0 -0.47446039956E+01 -0.25179634956E+01 -0.85124063616E+01  0.10065409558E+02  0.51100000000E-03 0. -1.
        -11    1    3    3    0    0  0.11348870630E+02  0.41030016648E+01 -0.17368385700E+02  0.21149286260E+02  0.51100000000E-03 0.  1.
         12    1    3    3    0    0 -0.57762427110E+01 -0.16284249997E+02  0.37453470915E+02  0.41246869716E+02  0.00000000000E+00 0. -1.
</event>
<event>
 7    1  0.3162486E-013  0.7246136E+02  0.7816164E-02  0.1226709E+00
        -11   -1    0    0    0    0  0.00000000000E+00  0.00000000000E+00  0.45593999997E+02  0.45594000000E+02  0.51100000000E-03 0.  1.
         11   -1    0    0    0    0 -0.00000000000E+00 -0.00000000000E+00 -0.45593999997E+02  0.45594000000E+02  0.51100000000E-03 0. -1.
    9900012    2    1    2    0    0  0.14746018006E+02 -0.20943302421E+01  0.11351464973E+02  0.72461360600E+02  0.69999726834E+02 0.  0.
         12    1    1    2    0    0 -0.14746018006E+02  0.20943302421E+01 -0.11351464973E+02  0.18726639400E+02  0.00000000000E+00 0. -1.
         11    1    3    3    0    0  0.90006559032E+01  0.15218535142E+02 -0.19281670500E+02  0.26161009844E+02  0.51100000000E-03 0. -1.
        -11    1    3    3    0    0 -0.16735670076E+01  0.60348001354E+01 -0.94526696311E+00  0.63334958037E+01  0.51100000000E-03 0.  1.
        -12    1    3    3    0    0  0.74189291105E+01 -0.23347665519E+02  0.31578402436E+02  0.39966854952E+02  0.00000000000E+00 0.  1.
</event>
<event>
 7    1  0.3162486E-013  0.7246163E+02  0.7816164E-02  0.1226708E+00
        -11   -1    0    0    0    0  0.00000000000E+00  0.00000000000E+00  0.45593999997E+02  0.45594000000E+02  0.51100000000E-03 0.  1.
         11   -1    0    0    0    0 -0.00000000000E+00 -0.00000000000E+00 -0.45593999997E+02  0.45594000000E+02  0.51100000000E-03 0. -1.
    9900012    2    1    2    0    0  0.12746696326E+02 -0.48683174994E+01  0.12825685280E+02  0.72461628611E+02  0.70000075968E+02 0.  0.
         12    1    1    2    0    0 -0.12746696326E+02  0.48683174994E+01 -0.12825685280E+02  0.18726371389E+02  0.00000000000E+00 0. -1.
         11    1    3    3    0    0  0.79859787159E+01  0.91884738095E+01 -0.12132078511E+02  0.17186949591E+02  0.51100000000E-03 0. -1.
        -11    1    3    3    0    0  0.17616945208E+02  0.11231982335E+02  0.92722174807E+01  0.22858000851E+02  0.51100000000E-03 0.  1.
         12    1    3    3    0    0 -0.12856227598E+02 -0.25288773644E+02  0.15685546310E+02  0.32416678169E+02  0.00000000000E+00 0. -1.
</event>
<event>
 7    1  0.3162486E-013  0.7246156E+02  0.7816164E-02  0.1226708E+00
        -11   -1    0    0    0    0  0.00000000000E+00  0.00000000000E+00  0.45593999997E+02  0.45594000000E+02  0.51100000000E-03 0.  1.
         11   -1    0    0    0    0 -0.00000000000E+00 -0.00000000000E+00 -0.45593999997E+02  0.45594000000E+02  0.51100000000E-03 0. -1.
    9900012    2    1    2    0    0 -0.11573816284E+02 -0.93913987391E+01  0.11337009990E+02  0.72461564430E+02  0.69999992361E+02 0.  0.
         12    1    1    2    0    0  0.11573816284E+02  0.93913987391E+01 -0.11337009990E+02  0.18726435570E+02  0.00000000000E+00 0. -1.
         11    1    3    3    0    0  0.33387859230E+01 -0.10661568492E+01  0.11228784207E+02  0.11763068345E+02  0.51100000000E-03 0. -1.
        -11    1    3    3    0    0  0.11319175152E+02 -0.52935579608E+01  0.22722702814E+02  0.25931963008E+02  0.51100000000E-03 0.  1.
         12    1    3    3    0    0 -0.26231777359E+02 -0.30316839291E+01 -0.22614477031E+02  0.34766533077E+02  0.00000000000E+00 0. -1.
</event>
<event>
 7    1  0.3162486E-013  0.7246159E+02  0.7816164E-02  0.1226708E+00
        -11   -1    0    0    0    0  0.00000000000E+00  0.00000000000E+00  0.45593999997E+02  0.45594000000E+02  0.51100000000E-03 0.  1.
         11   -1    0    0    0    0 -0.00000000000E+00 -0.00000000000E+00 -0.45593999997E+02  0.45594000000E+02  0.51100000000E-03 0. -1.
    9900012    2    1    2    0    0 -0.15883446661E+02  0.65878109066E+01  0.74158701016E+01  0.72461594586E+02  0.70000031644E+02 0.  0.
         12    1    1    2    0    0  0.15883446661E+02 -0.65878109066E+01 -0.74158701016E+01  0.18726405414E+02  0.00000000000E+00 0. -1.
         11    1    3    3    0    0 -0.55906188060E+01 -0.10519038916E+02 -0.12444169500E+02  0.17226797531E+02  0.51100000000E-03 0. -1.
        -11    1    3    3    0    0 -0.53060334039E+00 -0.15767977517E+02  0.35208862813E+00  0.15780830825E+02  0.51100000000E-03 0.  1.
         12    1    3    3    0    0 -0.97622245147E+01  0.32874827339E+02  0.19507950974E+02  0.39453966230E+02  0.00000000000E+00 0. -1.
</event>
<event>
 7    1  0.3162486E-013  0.7246165E+02  0.7816164E-02  0.1226708E+00
        -11   -1    0    0    0    0  0.00000000000E+00  0.00000000000E+00  0.45593999997E+02  0.45594000000E+02  0.51100000000E-03 0.  1.
         11   -1    0    0    0    0 -0.00000000000E+00 -0.00000000000E+00 -0.45593999997E+02  0.45594000000E+02  0.51100000000E-03 0. -1.
    9900012    2    1    2    0    0  0.30731921501E+01 -0.17126116542E+02  0.69229996438E+01  0.72461646862E+02  0.70000099743E+02 0.  0.
         12    1    1    2    0    0 -0.30731921501E+01  0.17126116542E+02 -0.69229996438E+01  0.18726353138E+02  0.00000000000E+00 0. -1.
         11    1    3    3    0    0 -0.83323032251E+01  0.88577083342E+01  0.15223782650E+02  0.19484605010E+02  0.51100000000E-03 0. -1.
        -11    1    3    3    0    0  0.26788775460E+02 -0.98553041604E+01  0.15991659774E+01  0.28588858718E+02  0.51100000000E-03 0.  1.
        -12    1    3    3    0    0 -0.15383280085E+02 -0.16128520715E+02 -0.98999489840E+01  0.24388183133E+02  0.00000000000E+00 0.  1.
</event>
<event>
 7    1  0.3162486E-013  0.7246139E+02  0.7816164E-02  0.1226709E+00
        -11   -1    0    0    0    0  0.00000000000E+00  0.00000000000E+00  0.45593999997E+02  0.45594000000E+02  0.51100000000E-03 0.  1.
         11   -1    0    0    0    0 -0.00000000000E+00 -0.00000000000E+00 -0.45593999997E+02  0.45594000000E+02  0.51100000000E-03 0. -1.
    9900012    2    1    2    0    0 -0.18685918214E+02  0.89023331823E+00 -0.85442048874E+00  0.72461385537E+02  0.69999759319E+02 0.  0.
         12    1    1    2    0    0  0.18685918214E+02 -0.89023331823E+00  0.85442048874E+00  0.18726614463E+02  0.00000000000E+00 0. -1.
         11    1    3    3    0    0  0.37849483538E+01  0.57113040345E+01  0.10456929979E+02  0.12501688392E+02  0.51100000000E-03 0. -1.
        -11    1    3    3    0    0 -0.22129685024E+02  0.17227815431E+02  0.95278519509E+01  0.29619259729E+02  0.51100000000E-03 0.  1.
         12    1    3    3    0    0 -0.34118154335E+00 -0.22048886147E+02 -0.20839202418E+02  0.30340437417E+02  0.00000000000E+00 0. -1.
</event>
<event>
 7    1  0.3162486E-013  0.7246159E+02  0.7816164E-02  0.1226708E+00
        -11   -1    0    0    0    0  0.00000000000E+00  0.00000000000E+00  0.45593999997E+02  0.45594000000E+02  0.51100000000E-03 0.  1.
         11   -1    0    0    0    0 -0.00000000000E+00 -0.00000000000E+00 -0.45593999997E+02  0.45594000000E+02  0.51100000000E-03 0. -1.
    9900012    2    1    2    0    0 -0.19832444749E+01 -0.15975268067E+02 -0.95674410360E+01  0.72461591470E+02  0.70000027585E+02 0.  0.
         12    1    1    2    0    0  0.19832444749E+01  0.15975268067E+02  0.95674410360E+01  0.18726408530E+02  0.00000000000E+00 0. -1.
         11    1    3    3    0    0 -0.10577014379E+02 -0.16953896871E+02 -0.90919003279E+01  0.21953826640E+02  0.51100000000E-03 0. -1.
        -11    1    3    3    0    0 -0.70957775279E+01  0.60509725758E+01  0.21265908923E+02  0.23220749567E+02  0.51100000000E-03 0.  1.
         12    1    3    3    0    0  0.15689547432E+02 -0.50723437714E+01 -0.21741449631E+02  0.27287015264E+02  0.00000000000E+00 0. -1.
</event>
<event>
 7    1  0.3162486E-013  0.7246132E+02  0.7816164E-02  0.1226709E+00
        -11   -1    0    0    0    0  0.00000000000E+00  0.00000000000E+00  0.45593999997E+02  0.45594000000E+02  0.51100000000E-03 0.  1.
         11   -1    0    0    0    0 -0.00000000000E+00 -0.00000000000E+00 -0.45593999997E+02  0.45594000000E+02  0.51100000000E-03 0. -1.
    9900012    2    1    2    0    0  0.10554327267E+02  0.14510541253E+02  0.53608583355E+01  0.72461322942E+02  0.69999677777E+02 0.  0.
         12    1    1    2    0    0 -0.10554327267E+02 -0.14510541253E+02 -0.53608583355E+01  0.18726677058E+02  0.00000000000E+00 0. -1.
         11    1    3    3    0    0 -0.27928387029E+01 -0.10725300949E+02 -0.24806341983E+02  0.27169590195E+02  0.51100000000E-03 0. -1.
        -11    1    3    3    0    0  0.98860892475E+00  0.41070561156E+01  0.16960141942E+02  0.17478320071E+02  0.51100000000E-03 0.  1.
        -12    1    3    3    0    0  0.12358557046E+02  0.21128786087E+02  0.13207058377E+02  0.27813412677E+02  0.00000000000E+00 0.  1.
</event>
<event>
 7    1  0.3162486E-013  0.7246158E+02  0.7816164E-02  0.1226708E+00
        -11   -1    0    0    0    0  0.00000000000E+00  0.00000000000E+00  0.45593999997E+02  0.45594000000E+02  0.51100000000E-03 0.  1.
         11   -1    0    0    0    0 -0.00000000000E+00 -0.00000000000E+00 -0.45593999997E+02  0.45594000000E+02  0.51100000000E-03 0. -1.
    9900012    2    1    2    0    0 -0.44732432994E+01  0.10395164870E+02  0.14920100822E+02  0.72461581046E+02  0.70000014006E+02 0.  0.
         12    1    1    2    0    0  0.44732432994E+01 -0.10395164870E+02 -0.14920100822E+02  0.18726418954E+02  0.00000000000E+00 0. -1.
         11    1    3    3    0    0  0.19328307617E+01  0.83728803504E+01 -0.58883718429E+01  0.10416999728E+02  0.51100000000E-03 0. -1.
        -11    1    3    3    0    0  0.21656112747E+02 -0.11308434854E+01 -0.66242061627E+01  0.22674790712E+02  0.51100000000E-03 0.  1.
        -12    1    3    3    0    0 -0.28062186808E+02  0.31531280051E+01  0.27432678827E+02  0.39369790606E+02  0.00000000000E+00 0.  1.
</event>
<event>
 7    1  0.3162486E-013  0.7246154E+02  0.7816164E-02  0.1226708E+00
        -11   -1    0    0    0    0  0.00000000000E+00  0.00000000000E+00  0.45593999997E+02  0.45594000000E+02  0.51100000000E-03 0.  1.
         11   -1    0    0    0    0 -0.00000000000E+00 -0.00000000000E+00 -0.45593999997E+02  0.45594000000E+02  0.51100000000E-03 0. -1.
    9900012    2    1    2    0    0  0.14900046810E+02 -0.57820377012E+01  0.97589333598E+01  0.72461544510E+02  0.69999966411E+02 0.  0.
         12    1    1    2    0    0 -0.14900046810E+02  0.57820377012E+01 -0.97589333598E+01  0.18726455490E+02  0.00000000000E+00 0. -1.
         11    1    3    3    0    0 -0.71230295403E+01 -0.67119716458E+01  0.64508596852E+01  0.11721847301E+02  0.51100000000E-03 0. -1.
        -11    1    3    3    0    0 -0.11526283590E+02  0.17894153323E+02 -0.57928874850E+01  0.22059317356E+02  0.51100000000E-03 0.  1.
         12    1    3    3    0    0  0.33549359940E+02 -0.16964219378E+02  0.91009611596E+01  0.38680379853E+02  0.00000000000E+00 0. -1.
</event>
<event>
 7    1  0.3162486E-013  0.7246171E+02  0.7816164E-02  0.1226708E+00
        -11   -1    0    0    0    0  0.00000000000E+00  0.00000000000E+00  0.45593999997E+02  0.45594000000E+02  0.51100000000E-03 0. -1.
         11   -1    0    0    0    0 -0.00000000000E+00 -0.00000000000E+00 -0.45593999997E+02  0.45594000000E+02  0.51100000000E-03 0.  1.
    9900012    2    1    2    0    0  0.14193708739E+02 -0.28646996403E+01 -0.11874600670E+02  0.72461707978E+02  0.70000179359E+02 0.  0.
         12    1    1    2    0    0 -0.14193708739E+02  0.28646996403E+01  0.11874600670E+02  0.18726292022E+02  0.00000000000E+00 0. -1.
         11    1    3    3    0    0  0.24285242052E+02 -0.13916538340E+02  0.98126631620E+01  0.29660266005E+02  0.51100000000E-03 0. -1.
        -11    1    3    3    0    0  0.72984517945E+01 -0.72896713079E+01 -0.14373936612E+01  0.10415027949E+02  0.51100000000E-03 0.  1.
        -12    1    3    3    0    0 -0.17389985108E+02  0.18341510008E+02 -0.20249870171E+02  0.32386414024E+02  0.00000000000E+00 0.  1.
</event>
<event>
 7    1  0.3162486E-013  0.7246142E+02  0.7816164E-02  0.1226708E+00
        -11   -1    0    0    0    0  0.00000000000E+00  0.00000000000E+00  0.45593999997E+02  0.45594000000E+02  0.51100000000E-03 0.  1.
         11   -1    0    0    0    0 -0.00000000000E+00 -0.00000000000E+00 -0.45593999997E+02  0.45594000000E+02  0.51100000000E-03 0. -1.
    9900012    2    1    2    0    0  0.17755352278E+02  0.18964034188E+01  0.56423232481E+01  0.72461422841E+02  0.69999807915E+02 0.  0.
         12    1    1    2    0    0 -0.17755352278E+02 -0.18964034188E+01 -0.56423232481E+01  0.18726577159E+02  0.00000000000E+00 0. -1.
         11    1    3    3    0    0 -0.63271936069E+01 -0.10952849904E+01 -0.17233790093E+01  0.66485384575E+01  0.51100000000E-03 0. -1.
        -11    1    3    3    0    0  0.19494059443E+02 -0.22923002419E+01 -0.25517408984E+02  0.32193340235E+02  0.51100000000E-03 0.  1.
        -12    1    3    3    0    0  0.45884864423E+01  0.52839886510E+01  0.32883111241E+02  0.33619544149E+02  0.00000000000E+00 0.  1.
</event>
<event>
 7    1  0.3162486E-013  0.7246156E+02  0.7816164E-02  0.1226708E+00
        -11   -1    0    0    0    0  0.00000000000E+00  0.00000000000E+00  0.45593999997E+02  0.45594000000E+02  0.51100000000E-03 0.  1.
         11   -1    0    0    0    0 -0.00000000000E+00 -0.00000000000E+00 -0.45593999997E+02  0.45594000000E+02  0.51100000000E-03 0. -1.
    9900012    2    1    2    0    0  0.69760536976E+01  0.10462483734E+02  0.13876265801E+02  0.72461557635E+02  0.69999983509E+02 0.  0.
         12    1    1    2    0    0 -0.69760536976E+01 -0.10462483734E+02 -0.13876265801E+02  0.18726442365E+02  0.00000000000E+00 0. -1.
         11    1    3    3    0    0  0.22176418630E+02 -0.78395013497E+01  0.60935698394E+01  0.24297796573E+02  0.51100000000E-03 0. -1.
        -11    1    3    3    0    0  0.10485960306E+02 -0.52017714773E+01 -0.22728175809E+01  0.11923904145E+02  0.51100000000E-03 0.  1.
         12    1    3    3    0    0 -0.25686325239E+02  0.23503756561E+02  0.10055513542E+02  0.36239856917E+02  0.00000000000E+00 0. -1.
</event>
<event>
 7    1  0.3162486E-013  0.7246157E+02  0.7816164E-02  0.1226708E+00
        -11   -1    0    0    0    0  0.00000000000E+00  0.00000000000E+00  0.45593999997E+02  0.45594000000E+02  0.51100000000E-03 0. -1.
         11   -1    0    0    0    0 -0.00000000000E+00 -0.00000000000E+00 -0.45593999997E+02  0.45594000000E+02  0.51100000000E-03 0.  1.
    9900012    2    1    2    0    0  0.78021535651E+01 -0.14506755820E+02 -0.89083919640E+01  0.72461574499E+02  0.70000005477E+02 0.  0.
         12    1    1    2    0    0 -0.78021535651E+01  0.14506755820E+02  0.89083919640E+01  0.18726425501E+02  0.00000000000E+00 0. -1.
         11    1    3    3    0    0 -0.26637987473E+02 -0.16065347570E+02 -0.30210368468E+01  0.31253870689E+02  0.51100000000E-03 0. -1.
        -11    1    3    3    0    0  0.38841874771E+01 -0.19763338470E+00 -0.96182047210E+01  0.10374769088E+02  0.51100000000E-03 0.  1.
        -12    1    3    3    0    0  0.30555953561E+02  0.17562251347E+01  0.37308496037E+01  0.30832934721E+02  0.00000000000E+00 0.  1.
</event>
<event>
 7    1  0.3162486E-013  0.7246158E+02  0.7816164E-02  0.1226708E+00
        -11   -1    0    0    0    0  0.00000000000E+00  0.00000000000E+00  0.45593999997E+02  0.45594000000E+02  0.51100000000E-03 0.  1.
         11   -1    0    0    0    0 -0.00000000000E+00 -0.00000000000E+00 -0.45593999997E+02  0.45594000000E+02  0.51100000000E-03 0. -1.
    9900012    2    1    2    0    0 -0.12745284752E+02 -0.96533309346E+01  0.97493389804E+01  0.72461583041E+02  0.70000016605E+02 0.  0.
         12    1    1    2    0    0  0.12745284752E+02  0.96533309346E+01 -0.97493389804E+01  0.18726416959E+02  0.00000000000E+00 0. -1.
         11    1    3    3    0    0 -0.96122336113E+01  0.88386875527E+01  0.78396560901E+01  0.15230812208E+02  0.51100000000E-03 0.  1.
        -11    1    3    3    0    0  0.80298368821E+01  0.16926839709E+02 -0.51489946820E+01  0.19429573577E+02  0.51100000000E-03 0. -1.
        -12    1    3    3    0    0 -0.11162888023E+02 -0.35418858196E+02  0.70586775722E+01  0.37801197256E+02  0.00000000000E+00 0.  1.
</event>
<event>
 7    1  0.3162486E-013  0.7246152E+02  0.7816164E-02  0.1226708E+00
        -11   -1    0    0    0    0  0.00000000000E+00  0.00000000000E+00  0.45593999997E+02  0.45594000000E+02  0.51100000000E-03 0.  1.
         11   -1    0    0    0    0 -0.00000000000E+00 -0.00000000000E+00 -0.45593999997E+02  0.45594000000E+02  0.51100000000E-03 0. -1.
    9900012    2    1    2    0    0  0.59486880764E+01  0.10669299333E+02  0.14193674381E+02  0.72461515265E+02  0.69999928314E+02 0.  0.
         12    1    1    2    0    0 -0.59486880764E+01 -0.10669299333E+02 -0.14193674381E+02  0.18726484735E+02  0.00000000000E+00 0. -1.
         11    1    3    3    0    0 -0.28283905583E+00 -0.97082520573E+01 -0.17818798292E+02  0.20293834748E+02  0.51100000000E-03 0. -1.
        -11    1    3    3    0    0  0.16027006100E+02  0.87779056415E+01  0.18085676558E+01  0.18362665090E+02  0.51100000000E-03 0.  1.
        -12    1    3    3    0    0 -0.97954789683E+01  0.11599645749E+02  0.30203905017E+02  0.33805015427E+02  0.00000000000E+00 0.  1.
</event>
<event>
 7    1  0.3162486E-013  0.7246160E+02  0.7816164E-02  0.1226708E+00
        -11   -1    0    0    0    0  0.00000000000E+00  0.00000000000E+00  0.45593999997E+02  0.45594000000E+02  0.51100000000E-03 0.  1.
         11   -1    0    0    0    0 -0.00000000000E+00 -0.00000000000E+00 -0.45593999997E+02  0.45594000000E+02  0.51100000000E-03 0. -1.
    9900012    2    1    2    0    0 -0.14124436040E+02 -0.36634627884E+01  0.11737014991E+02  0.72461596876E+02  0.70000034628E+02 0.  0.
         12    1    1    2    0    0  0.14124436040E+02  0.36634627884E+01 -0.11737014991E+02  0.18726403124E+02  0.00000000000E+00 0. -1.
         11    1    3    3    0    0  0.12379606563E+02 -0.22193961275E+01 -0.33790933270E+00  0.12581516633E+02  0.51100000000E-03 0. -1.
        -11    1    3    3    0    0 -0.15871084539E+02 -0.14889979317E+02  0.28688153595E+02  0.36008512402E+02  0.51100000000E-03 0.  1.
         12    1    3    3    0    0 -0.10632958064E+02  0.13445912657E+02 -0.16613229271E+02  0.23871567840E+02  0.00000000000E+00 0. -1.
</event>
<event>
 7    1  0.3162486E-013  0.7246156E+02  0.7816164E-02  0.1226708E+00
        -11   -1    0    0    0    0  0.00000000000E+00  0.00000000000E+00  0.45593999997E+02  0.45594000000E+02  0.51100000000E-03 0.  1.
         11   -1    0    0    0    0 -0.00000000000E+00 -0.00000000000E+00 -0.45593999997E+02  0.45594000000E+02  0.51100000000E-03 0. -1.
    9900012    2    1    2    0    0  0.60452801333E+01 -0.10363234017E+02  0.14378371456E+02  0.72461558883E+02  0.69999985134E+02 0.  0.
         12    1    1    2    0    0 -0.60452801333E+01  0.10363234017E+02 -0.14378371456E+02  0.18726441117E+02  0.00000000000E+00 0. -1.
         11    1    3    3    0    0  0.74558815224E+01  0.47353697035E+01 -0.34693420406E+01  0.94894799626E+01  0.51100000000E-03 0. -1.
        -11    1    3    3    0    0 -0.25950606137E+02  0.38874769733E+01  0.18215212820E+02  0.31942767795E+02  0.51100000000E-03 0.  1.
         12    1    3    3    0    0  0.24540004748E+02 -0.18986080694E+02 -0.36749932291E+00  0.31029311125E+02  0.00000000000E+00 0. -1.
</event>
<event>
 7    1  0.3162486E-013  0.7246147E+02  0.7816164E-02  0.1226708E+00
        -11   -1    0    0    0    0  0.00000000000E+00  0.00000000000E+00  0.45593999997E+02  0.45594000000E+02  0.51100000000E-03 0. -1.
         11   -1    0    0    0    0 -0.00000000000E+00 -0.00000000000E+00 -0.45593999997E+02  0.45594000000E+02  0.51100000000E-03 0.  1.
    9900012    2    1    2    0    0  0.16143512416E+02  0.89460545143E+01 -0.31682588031E+01  0.72461474739E+02  0.69999875521E+02 0.  0.
         12    1    1    2    0    0 -0.16143512416E+02 -0.89460545143E+01  0.31682588031E+01  0.18726525261E+02  0.00000000000E+00 0. -1.
         11    1    3    3    0    0  0.27905916953E-01  0.24079096927E+02  0.91273298754E+00  0.24096405735E+02  0.51100000000E-03 0. -1.
        -11    1    3    3    0    0  0.29116167950E+02 -0.44530757093E+01 -0.90639878474E+01  0.30817803220E+02  0.51100000000E-03 0.  1.
        -12    1    3    3    0    0 -0.13000561450E+02 -0.10679966703E+02  0.49829960568E+01  0.17547265784E+02  0.00000000000E+00 0.  1.
</event>
<event>
 7    1  0.3162486E-013  0.7246156E+02  0.7816164E-02  0.1226708E+00
        -11   -1    0    0    0    0  0.00000000000E+00  0.00000000000E+00  0.45593999997E+02  0.45594000000E+02  0.51100000000E-03 0. -1.
         11   -1    0    0    0    0 -0.00000000000E+00 -0.00000000000E+00 -0.45593999997E+02  0.45594000000E+02  0.51100000000E-03 0.  1.
    9900012    2    1    2    0    0  0.13537517332E+02  0.12919211355E+02  0.71351911174E+00  0.72461561282E+02  0.69999988260E+02 0.  0.
         12    1    1    2    0    0 -0.13537517332E+02 -0.12919211355E+02 -0.71351911174E+00  0.18726438718E+02  0.00000000000E+00 0. -1.
         11    1    3    3    0    0  0.13305237711E+02 -0.12352614682E+00  0.23091698987E+01  0.13504698261E+02  0.51100000000E-03 0. -1.
        -11    1    3    3    0    0  0.27280789605E+02 -0.21681403718E+01  0.32115384679E+01  0.27554605672E+02  0.51100000000E-03 0.  1.
         12    1    3    3    0    0 -0.27048509984E+02  0.15210877873E+02 -0.48071892549E+01  0.31402257348E+02  0.00000000000E+00 0. -1.
</event>
<event>
 7    1  0.3162486E-013  0.7246157E+02  0.7816164E-02  0.1226708E+00
        -11   -1    0    0    0    0  0.00000000000E+00  0.00000000000E+00  0.45593999997E+02  0.45594000000E+02  0.51100000000E-03 0. -1.
         11   -1    0    0    0    0 -0.00000000000E+00 -0.00000000000E+00 -0.45593999997E+02  0.45594000000E+02  0.51100000000E-03 0.  1.
    9900012    2    1    2    0    0 -0.54722035138E+01  0.11798671022E+02 -0.13473145112E+02  0.72461567121E+02  0.69999995866E+02 0.  0.
         12    1    1    2    0    0  0.54722035138E+01 -0.11798671022E+02  0.13473145112E+02  0.18726432879E+02  0.00000000000E+00 0. -1.
         11    1    3    3    0    0 -0.19531454286E+02 -0.99950707463E+01 -0.18098036458E+01  0.22014870776E+02  0.51100000000E-03 0. -1.
        -11    1    3    3    0    0  0.69466551195E+01 -0.90986229717E+01 -0.14665529886E+02  0.18604266296E+02  0.51100000000E-03 0.  1.
         12    1    3    3    0    0  0.71125956532E+01  0.30892364740E+02  0.30021884199E+01  0.31842430049E+02  0.00000000000E+00 0. -1.
</event>
<event>
 7    1  0.3162486E-013  0.7246163E+02  0.7816164E-02  0.1226708E+00
        -11   -1    0    0    0    0  0.00000000000E+00  0.00000000000E+00  0.45593999997E+02  0.45594000000E+02  0.51100000000E-03 0.  1.
         11   -1    0    0    0    0 -0.00000000000E+00 -0.00000000000E+00 -0.45593999997E+02  0.45594000000E+02  0.51100000000E-03 0. -1.
    9900012    2    1    2    0    0  0.55117515429E+01  0.11092784212E+02  0.14044495485E+02  0.72461625015E+02  0.70000071284E+02 0.  0.
         12    1    1    2    0    0 -0.55117515429E+01 -0.11092784212E+02 -0.14044495485E+02  0.18726374985E+02  0.00000000000E+00 0. -1.
         11    1    3    3    0    0  0.17126383016E+02 -0.23443732488E+01  0.14981815034E+02  0.22874961489E+02  0.51100000000E-03 0. -1.
        -11    1    3    3    0    0 -0.35149860128E+01  0.11733887012E+01  0.22019027665E+02  0.22328670970E+02  0.51100000000E-03 0.  1.
         12    1    3    3    0    0 -0.80996454604E+01  0.12263768760E+02 -0.22956347214E+02  0.27257992556E+02  0.00000000000E+00 0. -1.
</event>
<event>
 7    1  0.3162486E-013  0.7246158E+02  0.7816164E-02  0.1226708E+00
        -11   -1    0    0    0    0  0.00000000000E+00  0.00000000000E+00  0.45593999997E+02  0.45594000000E+02  0.51100000000E-03 0.  1.
         11   -1    0    0    0    0 -0.00000000000E+00 -0.00000000000E+00 -0.45593999997E+02  0.45594000000E+02  0.51100000000E-03 0. -1.
    9900012    2    1    2    0    0 -0.10989051230E+02  0.14614827989E+02  0.40406068897E+01  0.72461576206E+02  0.70000007701E+02 0.  0.
         12    1    1    2    0    0  0.10989051230E+02 -0.14614827989E+02 -0.40406068897E+01  0.18726423794E+02  0.00000000000E+00 0. -1.
         11    1    3    3    0    0  0.11030107951E+02 -0.49972028653E+01 -0.19362167441E+02  0.22837006068E+02  0.51100000000E-03 0. -1.
        -11    1    3    3    0    0 -0.66175328661E+01 -0.25937560204E+01 -0.62786022624E+01  0.94836785140E+01  0.51100000000E-03 0.  1.
         12    1    3    3    0    0 -0.15401626314E+02  0.22205786875E+02  0.29681376593E+02  0.40140891623E+02  0.00000000000E+00 0. -1.
</event>
<event>
 7    1  0.3162486E-013  0.7246150E+02  0.7816164E-02  0.1226708E+00
        -11   -1    0    0    0    0  0.00000000000E+00  0.00000000000E+00  0.45593999997E+02  0.45594000000E+02  0.51100000000E-03 0. -1.
         11   -1    0    0    0    0 -0.00000000000E+00 -0.00000000000E+00 -0.45593999997E+02  0.45594000000E+02  0.51100000000E-03 0.  1.
    9900012    2    1    2    0    0 -0.11938363728E+02  0.44531085989E+01 -0.13723230490E+02  0.72461501134E+02  0.69999909906E+02 0.  0.
         12    1    1    2    0    0  0.11938363728E+02 -0.44531085989E+01  0.13723230490E+02  0.18726498866E+02  0.00000000000E+00 0. -1.
         11    1    3    3    0    0 -0.74888285041E+01  0.22472163269E+02 -0.25910194736E+02  0.35105823817E+02  0.51100000000E-03 0. -1.
        -11    1    3    3    0    0 -0.95508706100E+01  0.68548731743E+00  0.14968734347E+02  0.17769412778E+02  0.51100000000E-03 0.  1.
        -12    1    3    3    0    0  0.51013353863E+01 -0.18704541987E+02 -0.27817701021E+01  0.19586264539E+02  0.00000000000E+00 0.  1.
</event>
<event>
 7    1  0.3162486E-013  0.7246158E+02  0.7816164E-02  0.1226708E+00
        -11   -1    0    0    0    0  0.00000000000E+00  0.00000000000E+00  0.45593999997E+02  0.45594000000E+02  0.51100000000E-03 0. -1.
         11   -1    0    0    0    0 -0.00000000000E+00 -0.00000000000E+00 -0.45593999997E+02  0.45594000000E+02  0.51100000000E-03 0.  1.
    9900012    2    1    2    0    0  0.94897278094E+01 -0.30213532209E+01  0.15858607413E+02  0.72461576469E+02  0.70000008043E+02 0.  0.
         12    1    1    2    0    0 -0.94897278094E+01  0.30213532209E+01 -0.15858607413E+02  0.18726423531E+02  0.00000000000E+00 0. -1.
         11    1    3    3    0    0  0.31859060686E+02 -0.77438157373E+01  0.17807117967E+02  0.37310318687E+02  0.51100000000E-03 0. -1.
        -11    1    3    3    0    0  0.51839774374E+01  0.18101461694E+01  0.40246163387E+01  0.68079209867E+01  0.51100000000E-03 0.  1.
        -12    1    3    3    0    0 -0.27553310314E+02  0.29123163471E+01 -0.59731268926E+01  0.28343336795E+02  0.00000000000E+00 0.  1.
</event>
<event>
 7    1  0.3162486E-013  0.7246160E+02  0.7816164E-02  0.1226708E+00
        -11   -1    0    0    0    0  0.00000000000E+00  0.00000000000E+00  0.45593999997E+02  0.45594000000E+02  0.51100000000E-03 0.  1.
         11   -1    0    0    0    0 -0.00000000000E+00 -0.00000000000E+00 -0.45593999997E+02  0.45594000000E+02  0.51100000000E-03 0. -1.
    9900012    2    1    2    0    0  0.98912754033E+01  0.10817166887E+02  0.11654596205E+02  0.72461600419E+02  0.70000039243E+02 0.  0.
         12    1    1    2    0    0 -0.98912754033E+01 -0.10817166887E+02 -0.11654596205E+02  0.18726399581E+02  0.00000000000E+00 0. -1.
         11    1    3    3    0    0  0.15231771103E+02 -0.13133166049E+02 -0.21796361690E+02  0.29657516494E+02  0.51100000000E-03 0. -1.
        -11    1    3    3    0    0  0.68645469817E+00 -0.76920139144E+00  0.42864710301E+00  0.11165256080E+01  0.51100000000E-03 0.  1.
        -12    1    3    3    0    0 -0.60269503978E+01  0.24719534327E+02  0.33022310792E+02  0.41687558317E+02  0.00000000000E+00 0.  1.
</event>
<event>
 7    1  0.3304000E-013  0.7246148E+02  0.7816164E-02  0.1226708E+00
        -11   -1    0    0    0    0  0.00000000000E+00  0.00000000000E+00  0.45593999997E+02  0.45594000000E+02  0.51100000000E-03 0. -1.
         11   -1    0    0    0    0 -0.00000000000E+00 -0.00000000000E+00 -0.45593999997E+02  0.45594000000E+02  0.51100000000E-03 0.  1.
    9900012    2    1    2    0    0  0.39420700245E+01 -0.54651431263E+01 -0.17472119634E+02  0.72461476832E+02  0.69999878248E+02 0.  0.
         12    1    1    2    0    0 -0.39420700245E+01  0.54651431263E+01  0.17472119634E+02  0.18726523168E+02  0.00000000000E+00 0. -1.
         11    1    3    3    0    0  0.17747542432E+02 -0.70855934340E+01 -0.11059251722E+01  0.19141681416E+02  0.51100000000E-03 0. -1.
        -11    1    3    3    0    0 -0.74432557810E+01  0.52681377378E+01 -0.33480627710E+02  0.34700255964E+02  0.51100000000E-03 0.  1.
         12    1    3    3    0    0 -0.63622166265E+01 -0.36476874301E+01  0.17114433248E+02  0.18619539452E+02  0.00000000000E+00 0. -1.
</event>
<event>
 7    1  0.3162486E-013  0.7246154E+02  0.7816164E-02  0.1226708E+00
        -11   -1    0    0    0    0  0.00000000000E+00  0.00000000000E+00  0.45593999997E+02  0.45594000000E+02  0.51100000000E-03 0.  1.
         11   -1    0    0    0    0 -0.00000000000E+00 -0.00000000000E+00 -0.45593999997E+02  0.45594000000E+02  0.51100000000E-03 0. -1.
    9900012    2    1    2    0    0 -0.11136949715E+02 -0.55758254709E+01  0.13984230889E+02  0.72461542988E+02  0.69999964429E+02 0.  0.
         12    1    1    2    0    0  0.11136949715E+02  0.55758254709E+01 -0.13984230889E+02  0.18726457012E+02  0.00000000000E+00 0. -1.
         11    1    3    3    0    0  0.13088417441E+02 -0.43599059838E+01 -0.18832199521E+02  0.23344532344E+02  0.51100000000E-03 0. -1.
        -11    1    3    3    0    0 -0.21207489942E+02 -0.21935636348E+01  0.60488145957E+01  0.22162073669E+02  0.51100000000E-03 0.  1.
        -12    1    3    3    0    0 -0.30178772138E+01  0.97764414769E+00  0.26767615815E+02  0.26954936975E+02  0.00000000000E+00 0.  1.
</event>
<event>
 7    1  0.3162486E-013  0.7246157E+02  0.7816164E-02  0.1226708E+00
        -11   -1    0    0    0    0  0.00000000000E+00  0.00000000000E+00  0.45593999997E+02  0.45594000000E+02  0.51100000000E-03 0.  1.
         11   -1    0    0    0    0 -0.00000000000E+00 -0.00000000000E+00 -0.45593999997E+02  0.45594000000E+02  0.51100000000E-03 0. -1.
    9900012    2    1    2    0    0  0.69319044357E+01  0.11763009836E+02  0.12816382431E+02  0.72461565258E+02  0.69999993440E+02 0.  0.
         12    1    1    2    0    0 -0.69319044357E+01 -0.11763009836E+02 -0.12816382431E+02  0.18726434742E+02  0.00000000000E+00 0. -1.
         11    1    3    3    0    0 -0.22168815585E+02 -0.13575497661E+02 -0.12748402930E+01  0.26026443077E+02  0.51100000000E-03 0. -1.
        -11    1    3    3    0    0  0.10418146006E+02 -0.21745983895E+01  0.59636320841E+01  0.12199653776E+02  0.51100000000E-03 0.  1.
        -12    1    3    3    0    0  0.18682574014E+02  0.27513105886E+02  0.81275906403E+01  0.34235468405E+02  0.00000000000E+00 0.  1.
</event>
<event>
 7    1  0.3162486E-013  0.7246149E+02  0.7816164E-02  0.1226708E+00
        -11   -1    0    0    0    0  0.00000000000E+00  0.00000000000E+00  0.45593999997E+02  0.45594000000E+02  0.51100000000E-03 0.  1.
         11   -1    0    0    0    0 -0.00000000000E+00 -0.00000000000E+00 -0.45593999997E+02  0.45594000000E+02  0.51100000000E-03 0. -1.
    9900012    2    1    2    0    0 -0.10159257869E+01  0.48363145913E+00  0.18692678836E+02  0.72461488135E+02  0.69999892971E+02 0.  0.
         12    1    1    2    0    0  0.10159257869E+01 -0.48363145913E+00 -0.18692678836E+02  0.18726511865E+02  0.00000000000E+00 0. -1.
         11    1    3    3    0    0  0.10780746887E+01  0.56190432165E+01  0.50799729541E+01  0.76512755263E+01  0.51100000000E-03 0. -1.
        -11    1    3    3    0    0 -0.10342178814E+02  0.12405289066E+02  0.33406805112E+02  0.37106151613E+02  0.51100000000E-03 0.  1.
         12    1    3    3    0    0  0.82481783386E+01 -0.17540700823E+02 -0.19794099231E+02  0.27704060995E+02  0.00000000000E+00 0. -1.
</event>
<event>
 7    1  0.3162486E-013  0.7246164E+02  0.7816164E-02  0.1226708E+00
        -11   -1    0    0    0    0  0.00000000000E+00  0.00000000000E+00  0.45593999997E+02  0.45594000000E+02  0.51100000000E-03 0.  1.
         11   -1    0    0    0    0 -0.00000000000E+00 -0.00000000000E+00 -0.45593999997E+02  0.45594000000E+02  0.51100000000E-03 0. -1.
    9900012    2    1    2    0    0  0.10488239545E+02  0.10516995173E+02  0.11404656941E+02  0.72461640072E+02  0.70000090898E+02 0.  0.
         12    1    1    2    0    0 -0.10488239545E+02 -0.10516995173E+02 -0.11404656941E+02  0.18726359928E+02  0.00000000000E+00 0. -1.
         11    1    3    3    0    0  0.25303984838E+01  0.44626157968E+01 -0.12274221322E+02  0.13303171260E+02  0.51100000000E-03 0. -1.
        -11    1    3    3    0    0  0.28369373687E+02  0.11927016761E+02  0.56288023508E+01  0.31285116404E+02  0.51100000000E-03 0.  1.
        -12    1    3    3    0    0 -0.20411532626E+02 -0.58726373852E+01  0.18050075913E+02  0.27873352408E+02  0.00000000000E+00 0.  1.
</event>
<event>
 7    1  0.3162486E-013  0.7246159E+02  0.7816164E-02  0.1226708E+00
        -11   -1    0    0    0    0  0.00000000000E+00  0.00000000000E+00  0.45593999997E+02  0.45594000000E+02  0.51100000000E-03 0.  1.
         11   -1    0    0    0    0 -0.00000000000E+00 -0.00000000000E+00 -0.45593999997E+02  0.45594000000E+02  0.51100000000E-03 0. -1.
    9900012    2    1    2    0    0  0.93010234628E+01  0.72291275231E+01  0.14557094185E+02  0.72461593155E+02  0.70000029781E+02 0.  0.
         12    1    1    2    0    0 -0.93010234628E+01 -0.72291275231E+01 -0.14557094185E+02  0.18726406845E+02  0.00000000000E+00 0. -1.
         11    1    3    3    0    0 -0.93432112934E+01  0.17934575172E+02 -0.10296195894E+02  0.22692647136E+02  0.51100000000E-03 0. -1.
        -11    1    3    3    0    0  0.31044279267E+01  0.12873372070E+02  0.14637706591E+02  0.19738886385E+02  0.51100000000E-03 0.  1.
        -12    1    3    3    0    0  0.15539806829E+02 -0.23578819719E+02  0.10215583487E+02  0.30030059634E+02  0.00000000000E+00 0.  1.
</event>
<event>
 7    1  0.3162486E-013  0.7246158E+02  0.7816164E-02  0.1226708E+00
        -11   -1    0    0    0    0  0.00000000000E+00  0.00000000000E+00  0.45593999997E+02  0.45594000000E+02  0.51100000000E-03 0.  1.
         11   -1    0    0    0    0 -0.00000000000E+00 -0.00000000000E+00 -0.45593999997E+02  0.45594000000E+02  0.51100000000E-03 0. -1.
    9900012    2    1    2    0    0  0.92945478678E-01 -0.18704440791E+02  0.90235434208E+00  0.72461575154E+02  0.70000006330E+02 0.  0.
         12    1    1    2    0    0 -0.92945478678E-01  0.18704440791E+02 -0.90235434208E+00  0.18726424846E+02  0.00000000000E+00 0. -1.
         11    1    3    3    0    0 -0.15545604059E+02 -0.14930004411E+02  0.22369094059E+02  0.31063599382E+02  0.51100000000E-03 0.  1.
        -11    1    3    3    0    0  0.11130891361E+02  0.43433260681E+00  0.64067742089E+01  0.12850375222E+02  0.51100000000E-03 0. -1.
         12    1    3    3    0    0  0.45076581759E+01 -0.42087689869E+01 -0.27873513926E+02  0.28547600551E+02  0.00000000000E+00 0. -1.
</event>
<event>
 7    1  0.3162486E-013  0.7246159E+02  0.7816164E-02  0.1226708E+00
        -11   -1    0    0    0    0  0.00000000000E+00  0.00000000000E+00  0.45593999997E+02  0.45594000000E+02  0.51100000000E-03 0.  1.
         11   -1    0    0    0    0 -0.00000000000E+00 -0.00000000000E+00 -0.45593999997E+02  0.45594000000E+02  0.51100000000E-03 0. -1.
    9900012    2    1    2    0    0 -0.66556296873E+01  0.97912700565E+01  0.14509031180E+02  0.72461591865E+02  0.70000028100E+02 0.  0.
         12    1    1    2    0    0  0.66556296873E+01 -0.97912700565E+01 -0.14509031180E+02  0.18726408135E+02  0.00000000000E+00 0. -1.
         11    1    3    3    0    0  0.22331026771E+02 -0.50728757819E+01  0.24981179278E+01  0.23035829024E+02  0.51100000000E-03 0. -1.
        -11    1    3    3    0    0 -0.77140598684E+01  0.20802142242E+02  0.15502155996E+02  0.27065710452E+02  0.51100000000E-03 0.  1.
        -12    1    3    3    0    0 -0.21272596590E+02 -0.59379964033E+01 -0.34912427439E+01  0.22360052390E+02  0.00000000000E+00 0.  1.
</event>
<event>
 7    1  0.3162486E-013  0.7246152E+02  0.7816164E-02  0.1226708E+00
        -11   -1    0    0    0    0  0.00000000000E+00  0.00000000000E+00  0.45593999997E+02  0.45594000000E+02  0.51100000000E-03 0.  1.
         11   -1    0    0    0    0 -0.00000000000E+00 -0.00000000000E+00 -0.45593999997E+02  0.45594000000E+02  0.51100000000E-03 0. -1.
    9900012    2    1    2    0    0 -0.22949367507E+01 -0.41252382828E+01  0.18121719633E+02  0.72461520137E+02  0.69999934661E+02 0.  0.
         12    1    1    2    0    0  0.22949367507E+01  0.41252382828E+01 -0.18121719633E+02  0.18726479863E+02  0.00000000000E+00 0. -1.
         11    1    3    3    0    0  0.17190853590E+01  0.81978137772E+01  0.12921350204E+02  0.15398723861E+02  0.51100000000E-03 0. -1.
        -11    1    3    3    0    0 -0.34821731094E+01 -0.17615407603E+02  0.28213522378E+02  0.33442950824E+02  0.51100000000E-03 0.  1.
         12    1    3    3    0    0 -0.53184900028E+00  0.52923555433E+01 -0.23013152948E+02  0.23619845452E+02  0.00000000000E+00 0. -1.
</event>
<event>
 7    1  0.3162486E-013  0.7246148E+02  0.7816164E-02  0.1226708E+00
        -11   -1    0    0    0    0  0.00000000000E+00  0.00000000000E+00  0.45593999997E+02  0.45594000000E+02  0.51100000000E-03 0.  1.
         11   -1    0    0    0    0 -0.00000000000E+00 -0.00000000000E+00 -0.45593999997E+02  0.45594000000E+02  0.51100000000E-03 0. -1.
    9900012    2    1    2    0    0 -0.16894120484E+02  0.41005690614E+01  0.69610814628E+01  0.72461477934E+02  0.69999879683E+02 0.  0.
         12    1    1    2    0    0  0.16894120484E+02 -0.41005690614E+01 -0.69610814628E+01  0.18726522066E+02  0.00000000000E+00 0. -1.
         11    1    3    3    0    0 -0.18303095961E+02  0.16914356541E+02 -0.82509491835E+00  0.24935508033E+02  0.51100000000E-03 0. -1.
        -11    1    3    3    0    0 -0.10509403628E+02  0.12925611485E+02  0.93767778179E+01  0.19116562437E+02  0.51100000000E-03 0.  1.
        -12    1    3    3    0    0  0.11918379105E+02 -0.25739398965E+02 -0.15906014367E+01  0.28409407465E+02  0.00000000000E+00 0.  1.
</event>
<event>
 7    1  0.3162486E-013  0.7246179E+02  0.7816164E-02  0.1226707E+00
        -11   -1    0    0    0    0  0.00000000000E+00  0.00000000000E+00  0.45593999997E+02  0.45594000000E+02  0.51100000000E-03 0.  1.
         11   -1    0    0    0    0 -0.00000000000E+00 -0.00000000000E+00 -0.45593999997E+02  0.45594000000E+02  0.51100000000E-03 0. -1.
    9900012    2    1    2    0    0  0.18112603244E+02  0.42377822584E+01  0.21553595736E+01  0.72461794575E+02  0.70000292166E+02 0.  0.
         12    1    1    2    0    0 -0.18112603244E+02 -0.42377822584E+01 -0.21553595736E+01  0.18726205425E+02  0.00000000000E+00 0. -1.
         11    1    3    3    0    0  0.12983582452E+02  0.21318733370E+02 -0.58393474965E+01  0.25635127954E+02  0.51100000000E-03 0. -1.
        -11    1    3    3    0    0  0.11409152189E+02  0.11337486785E+02 -0.16436223791E+01  0.16168143216E+02  0.51100000000E-03 0.  1.
        -12    1    3    3    0    0 -0.62801313969E+01 -0.28418437896E+02  0.96383294492E+01  0.30658523405E+02  0.00000000000E+00 0.  1.
</event>
<event>
 7    1  0.3162486E-013  0.7246150E+02  0.7816164E-02  0.1226708E+00
        -11   -1    0    0    0    0  0.00000000000E+00  0.00000000000E+00  0.45593999997E+02  0.45594000000E+02  0.51100000000E-03 0. -1.
         11   -1    0    0    0    0 -0.00000000000E+00 -0.00000000000E+00 -0.45593999997E+02  0.45594000000E+02  0.51100000000E-03 0.  1.
    9900012    2    1    2    0    0 -0.13814475444E+02  0.42956541526E+01 -0.11890726138E+02  0.72461501543E+02  0.69999910438E+02 0.  0.
         12    1    1    2    0    0  0.13814475444E+02 -0.42956541526E+01  0.11890726138E+02  0.18726498457E+02  0.00000000000E+00 0. -1.
         11    1    3    3    0    0 -0.19717688208E+02  0.12567980666E+02  0.75655688315E+01  0.24575988246E+02  0.51100000000E-03 0. -1.
        -11    1    3    3    0    0  0.12179444104E+02  0.12180392256E+02  0.22936855218E+01  0.17377048303E+02  0.51100000000E-03 0.  1.
        -12    1    3    3    0    0 -0.62762313406E+01 -0.20452718769E+02 -0.21749980491E+02  0.30508464993E+02  0.00000000000E+00 0.  1.
</event>
<event>
 7    1  0.3162486E-013  0.7246157E+02  0.7816164E-02  0.1226708E+00
        -11   -1    0    0    0    0  0.00000000000E+00  0.00000000000E+00  0.45593999997E+02  0.45594000000E+02  0.51100000000E-03 0.  1.
         11   -1    0    0    0    0 -0.00000000000E+00 -0.00000000000E+00 -0.45593999997E+02  0.45594000000E+02  0.51100000000E-03 0. -1.
    9900012    2    1    2    0    0  0.18685914534E+02  0.12187520658E+01  0.17395818544E+00  0.72461574286E+02  0.70000005200E+02 0.  0.
         12    1    1    2    0    0 -0.18685914534E+02 -0.12187520658E+01 -0.17395818544E+00  0.18726425714E+02  0.00000000000E+00 0. -1.
         11    1    3    3    0    0 -0.51324367293E+01  0.64437623903E+01 -0.88317665928E+00  0.82851663710E+01  0.51100000000E-03 0. -1.
        -11    1    3    3    0    0  0.21598355977E+02  0.29827929227E+01  0.28249885375E+02  0.35685319929E+02  0.51100000000E-03 0.  1.
         12    1    3    3    0    0  0.22199952865E+01 -0.82078032472E+01 -0.27192750530E+02  0.28491087986E+02  0.00000000000E+00 0. -1.
</event>
<event>
 7    1  0.3162486E-013  0.7246158E+02  0.7816164E-02  0.1226708E+00
        -11   -1    0    0    0    0  0.00000000000E+00  0.00000000000E+00  0.45593999997E+02  0.45594000000E+02  0.51100000000E-03 0. -1.
         11   -1    0    0    0    0 -0.00000000000E+00 -0.00000000000E+00 -0.45593999997E+02  0.45594000000E+02  0.51100000000E-03 0.  1.
    9900012    2    1    2    0    0  0.28603839444E+01 -0.83564523711E+00 -0.18487799313E+02  0.72461579554E+02  0.70000012063E+02 0.  0.
         12    1    1    2    0    0 -0.28603839444E+01  0.83564523711E+00  0.18487799313E+02  0.18726420446E+02  0.00000000000E+00 0. -1.
         11    1    3    3    0    0 -0.19408700437E+00  0.12984649871E+02 -0.36314316789E+01  0.13484290799E+02  0.51100000000E-03 0. -1.
        -11    1    3    3    0    0 -0.14666896931E+01  0.11718574831E+02 -0.27643369889E+02  0.30060473613E+02  0.51100000000E-03 0.  1.
         12    1    3    3    0    0  0.45211606419E+01 -0.25538869939E+02  0.12787002255E+02  0.28916815143E+02  0.00000000000E+00 0. -1.
</event>
<event>
 7    1  0.3162486E-013  0.7246176E+02  0.7816164E-02  0.1226708E+00
        -11   -1    0    0    0    0  0.00000000000E+00  0.00000000000E+00  0.45593999997E+02  0.45594000000E+02  0.51100000000E-03 0.  1.
         11   -1    0    0    0    0 -0.00000000000E+00 -0.00000000000E+00 -0.45593999997E+02  0.45594000000E+02  0.51100000000E-03 0. -1.
    9900012    2    1    2    0    0  0.17662539566E+02  0.72522680035E-01  0.62210442798E+01  0.72461762914E+02  0.70000250923E+02 0.  0.
         12    1    1    2    0    0 -0.17662539566E+02 -0.72522680035E-01 -0.62210442798E+01  0.18726237086E+02  0.00000000000E+00 0. -1.
         11    1    3    3    0    0  0.63640702501E+01 -0.35676327234E+01 -0.30319267959E+01  0.79007577962E+01  0.51100000000E-03 0. -1.
        -11    1    3    3    0    0  0.10799454554E+02 -0.21200641435E+02  0.25498825204E+02  0.34875284988E+02  0.51100000000E-03 0.  1.
         12    1    3    3    0    0  0.49901476132E+00  0.24840796839E+02 -0.16245854128E+02  0.29685720130E+02  0.00000000000E+00 0. -1.
</event>
<event>
 7    1  0.3162486E-013  0.7246153E+02  0.7816164E-02  0.1226708E+00
        -11   -1    0    0    0    0  0.00000000000E+00  0.00000000000E+00  0.45593999997E+02  0.45594000000E+02  0.51100000000E-03 0. -1.
         11   -1    0    0    0    0 -0.00000000000E+00 -0.00000000000E+00 -0.45593999997E+02  0.45594000000E+02  0.51100000000E-03 0.  1.
    9900012    2    1    2    0    0  0.35724879222E+01 -0.13688520565E+02 -0.12269578429E+02  0.72461526225E+02  0.69999942592E+02 0.  0.
         12    1    1    2    0    0 -0.35724879222E+01  0.13688520565E+02  0.12269578429E+02  0.18726473775E+02  0.00000000000E+00 0. -1.
         11    1    3    3    0    0  0.19531950625E+02  0.12901402895E+02 -0.14290806222E+02  0.27425725781E+02  0.51100000000E-03 0. -1.
        -11    1    3    3    0    0 -0.13181301536E+01 -0.26789882179E+01 -0.12923573167E+02  0.13263980875E+02  0.51100000000E-03 0.  1.
        -12    1    3    3    0    0 -0.14641332550E+02 -0.23910935242E+02  0.14944800961E+02  0.31771819569E+02  0.00000000000E+00 0.  1.
</event>
<event>
 7    1  0.3162486E-013  0.7246162E+02  0.7816164E-02  0.1226708E+00
        -11   -1    0    0    0    0  0.00000000000E+00  0.00000000000E+00  0.45593999997E+02  0.45594000000E+02  0.51100000000E-03 0.  1.
         11   -1    0    0    0    0 -0.00000000000E+00 -0.00000000000E+00 -0.45593999997E+02  0.45594000000E+02  0.51100000000E-03 0. -1.
    9900012    2    1    2    0    0 -0.12496212560E+01  0.18623837725E+02  0.15060984601E+01  0.72461622415E+02  0.70000067896E+02 0.  0.
         12    1    1    2    0    0  0.12496212560E+01 -0.18623837725E+02 -0.15060984601E+01  0.18726377585E+02  0.00000000000E+00 0. -1.
         11    1    3    3    0    0 -0.10315954605E+02  0.17427868623E+01 -0.71188113208E+01  0.12654394507E+02  0.51100000000E-03 0. -1.
        -11    1    3    3    0    0 -0.17969794654E+02 -0.61347590334E+01  0.14404893487E+02  0.23833794179E+02  0.51100000000E-03 0.  1.
        -12    1    3    3    0    0  0.27036128003E+02  0.23015809896E+02 -0.57799837065E+01  0.35973433729E+02  0.00000000000E+00 0.  1.
</event>
<event>
 7    1  0.3162486E-013  0.7246159E+02  0.7816164E-02  0.1226708E+00
        -11   -1    0    0    0    0  0.00000000000E+00  0.00000000000E+00  0.45593999997E+02  0.45594000000E+02  0.51100000000E-03 0.  1.
         11   -1    0    0    0    0 -0.00000000000E+00 -0.00000000000E+00 -0.45593999997E+02  0.45594000000E+02  0.51100000000E-03 0. -1.
    9900012    2    1    2    0    0  0.81946123694E+01 -0.34552784895E+01  0.16479918650E+02  0.72461592442E+02  0.70000028851E+02 0.  0.
         12    1    1    2    0    0 -0.81946123694E+01  0.34552784895E+01 -0.16479918650E+02  0.18726407558E+02  0.00000000000E+00 0. -1.
         11    1    3    3    0    0 -0.16062646248E+02  0.76329271878E+01  0.84960694742E+01  0.19709220652E+02  0.51100000000E-03 0. -1.
        -11    1    3    3    0    0  0.17055244523E+01  0.62282653252E+01 -0.14909786412E+02  0.16248133238E+02  0.51100000000E-03 0.  1.
        -12    1    3    3    0    0  0.22551734165E+02 -0.17316471003E+02  0.22893635587E+02  0.36504238552E+02  0.00000000000E+00 0.  1.
</event>
<event>
 7    1  0.3162486E-013  0.7246162E+02  0.7816164E-02  0.1226708E+00
        -11   -1    0    0    0    0  0.00000000000E+00  0.00000000000E+00  0.45593999997E+02  0.45594000000E+02  0.51100000000E-03 0.  1.
         11   -1    0    0    0    0 -0.00000000000E+00 -0.00000000000E+00 -0.45593999997E+02  0.45594000000E+02  0.51100000000E-03 0. -1.
    9900012    2    1    2    0    0 -0.10766144723E+02  0.75680389162E+01  0.13322621771E+02  0.72461619248E+02  0.70000063771E+02 0.  0.
         12    1    1    2    0    0  0.10766144723E+02 -0.75680389162E+01 -0.13322621771E+02  0.18726380752E+02  0.00000000000E+00 0. -1.
         11    1    3    3    0    0 -0.31674803481E+02  0.96141172779E+01 -0.55602105586E+01  0.33565463922E+02  0.51100000000E-03 0. -1.
        -11    1    3    3    0    0 -0.62055022164E+01 -0.17046766460E+01  0.62887084187E+01  0.89978905340E+01  0.51100000000E-03 0.  1.
         12    1    3    3    0    0  0.27114160975E+02 -0.34140171579E+00  0.12594123910E+02  0.29898264792E+02  0.00000000000E+00 0. -1.
</event>
<event>
 7    1  0.3162486E-013  0.7246156E+02  0.7816164E-02  0.1226708E+00
        -11   -1    0    0    0    0  0.00000000000E+00  0.00000000000E+00  0.45593999997E+02  0.45594000000E+02  0.51100000000E-03 0.  1.
         11   -1    0    0    0    0 -0.00000000000E+00 -0.00000000000E+00 -0.45593999997E+02  0.45594000000E+02  0.51100000000E-03 0. -1.
    9900012    2    1    2    0    0  0.31135353019E+01 -0.16691134671E+02  0.78988330160E+01  0.72461557687E+02  0.69999983577E+02 0.  0.
         12    1    1    2    0    0 -0.31135353019E+01  0.16691134671E+02 -0.78988330160E+01  0.18726442313E+02  0.00000000000E+00 0. -1.
         11    1    3    3    0    0  0.42589171584E+01  0.49042026905E+01 -0.35284440593E+01  0.73918534301E+01  0.51100000000E-03 0. -1.
        -11    1    3    3    0    0  0.73308378876E+01  0.44874419209E+01  0.30484500761E+02  0.31673065940E+02  0.51100000000E-03 0.  1.
        -12    1    3    3    0    0 -0.84762197442E+01 -0.26082779283E+02 -0.19057223686E+02  0.33396638317E+02  0.00000000000E+00 0.  1.
</event>
<event>
 7    1  0.3162486E-013  0.7246158E+02  0.7816164E-02  0.1226708E+00
        -11   -1    0    0    0    0  0.00000000000E+00  0.00000000000E+00  0.45593999997E+02  0.45594000000E+02  0.51100000000E-03 0.  1.
         11   -1    0    0    0    0 -0.00000000000E+00 -0.00000000000E+00 -0.45593999997E+02  0.45594000000E+02  0.51100000000E-03 0. -1.
    9900012    2    1    2    0    0 -0.15722644324E+02 -0.45927289221E+01  0.90765739330E+01  0.72461577548E+02  0.70000009449E+02 0.  0.
         12    1    1    2    0    0  0.15722644324E+02  0.45927289221E+01 -0.90765739330E+01  0.18726422452E+02  0.00000000000E+00 0. -1.
         11    1    3    3    0    0 -0.90978338620E+00  0.17117636927E+01 -0.66282763011E+01  0.69059313444E+01  0.51100000000E-03 0. -1.
        -11    1    3    3    0    0 -0.11111359960E+00  0.90940680338E+01 -0.21133726581E+02  0.23007581775E+02  0.51100000000E-03 0.  1.
        -12    1    3    3    0    0 -0.14701747338E+02 -0.15398560649E+02  0.36838576816E+02  0.42548064429E+02  0.00000000000E+00 0.  1.
</event>
<event>
 7    1  0.3162486E-013  0.7246148E+02  0.7816164E-02  0.1226708E+00
        -11   -1    0    0    0    0  0.00000000000E+00  0.00000000000E+00  0.45593999997E+02  0.45594000000E+02  0.51100000000E-03 0. -1.
         11   -1    0    0    0    0 -0.00000000000E+00 -0.00000000000E+00 -0.45593999997E+02  0.45594000000E+02  0.51100000000E-03 0.  1.
    9900012    2    1    2    0    0 -0.34466812112E+01 -0.11286737875E+02 -0.14540027503E+02  0.72461482358E+02  0.69999885446E+02 0.  0.
         12    1    1    2    0    0  0.34466812112E+01  0.11286737875E+02  0.14540027503E+02  0.18726517642E+02  0.00000000000E+00 0. -1.
         11    1    3    3    0    0 -0.74779229134E+00  0.14240738129E+02 -0.86877877708E+01  0.16698367357E+02  0.51100000000E-03 0. -1.
        -11    1    3    3    0    0 -0.10859002495E+02 -0.33310656994E+01 -0.23602846620E+02  0.26193669134E+02  0.51100000000E-03 0.  1.
         12    1    3    3    0    0  0.81601135752E+01 -0.22196410305E+02  0.17750606888E+02  0.29569445867E+02  0.00000000000E+00 0. -1.
</event>
<event>
 7    1  0.3162486E-013  0.7246138E+02  0.7816164E-02  0.1226709E+00
        -11   -1    0    0    0    0  0.00000000000E+00  0.00000000000E+00  0.45593999997E+02  0.45594000000E+02  0.51100000000E-03 0. -1.
         11   -1    0    0    0    0 -0.00000000000E+00 -0.00000000000E+00 -0.45593999997E+02  0.45594000000E+02  0.51100000000E-03 0.  1.
    9900012    2    1    2    0    0 -0.14802258622E+02 -0.11064872862E+02  0.30245433256E+01  0.72461384340E+02  0.69999757759E+02 0.  0.
         12    1    1    2    0    0  0.14802258622E+02  0.11064872862E+02 -0.30245433256E+01  0.18726615660E+02  0.00000000000E+00 0. -1.
         11    1    3    3    0    0  0.16079538341E+02  0.39714192911E+01  0.20440555337E+02  0.26308554259E+02  0.51100000000E-03 0. -1.
        -11    1    3    3    0    0 -0.83523331120E+01  0.68938466065E+01 -0.15643966373E+01  0.10942299875E+02  0.51100000000E-03 0.  1.
        -12    1    3    3    0    0 -0.22529463851E+02 -0.21930138759E+02 -0.15851615374E+02  0.35210530206E+02  0.00000000000E+00 0.  1.
</event>
<event>
 7    1  0.3162486E-013  0.7246159E+02  0.7816164E-02  0.1226708E+00
        -11   -1    0    0    0    0  0.00000000000E+00  0.00000000000E+00  0.45593999997E+02  0.45594000000E+02  0.51100000000E-03 0. -1.
         11   -1    0    0    0    0 -0.00000000000E+00 -0.00000000000E+00 -0.45593999997E+02  0.45594000000E+02  0.51100000000E-03 0.  1.
    9900012    2    1    2    0    0 -0.13495347307E+02 -0.81794597487E+01 -0.10082194574E+02  0.72461585283E+02  0.70000019525E+02 0.  0.
         12    1    1    2    0    0  0.13495347307E+02  0.81794597487E+01  0.10082194574E+02  0.18726414717E+02  0.00000000000E+00 0. -1.
         11    1    3    3    0    0 -0.15681936452E+02  0.75849586245E+01 -0.18708054878E+01  0.17520121051E+02  0.51100000000E-03 0. -1.
        -11    1    3    3    0    0 -0.32633402483E+01  0.18873324179E+02 -0.12568433074E+01  0.19194567213E+02  0.51100000000E-03 0.  1.
        -12    1    3    3    0    0  0.54499293925E+01 -0.34637742552E+02 -0.69545457792E+01  0.35746897019E+02  0.00000000000E+00 0.  1.
</event>
<event>
 7    1  0.3162486E-013  0.7246156E+02  0.7816164E-02  0.1226708E+00
        -11   -1    0    0    0    0  0.00000000000E+00  0.00000000000E+00  0.45593999997E+02  0.45594000000E+02  0.51100000000E-03 0.  1.
         11   -1    0    0    0    0 -0.00000000000E+00 -0.00000000000E+00 -0.45593999997E+02  0.45594000000E+02  0.51100000000E-03 0. -1.
    9900012    2    1    2    0    0 -0.17388091277E+02 -0.65729061529E+01 -0.22650990746E+01  0.72461561808E+02  0.69999988945E+02 0.  0.
         12    1    1    2    0    0  0.17388091277E+02  0.65729061529E+01  0.22650990746E+01  0.18726438192E+02  0.00000000000E+00 0. -1.
         11    1    3    3    0    0 -0.16088195035E+02  0.23593584059E+01 -0.21418796046E+02  0.26891660713E+02  0.51100000000E-03 0. -1.
        -11    1    3    3    0    0 -0.12116759318E+02 -0.41534171027E+01 -0.85822358988E+01  0.15418219848E+02  0.51100000000E-03 0.  1.
        -12    1    3    3    0    0  0.10816863076E+02 -0.47788474561E+01  0.27735932871E+02  0.30151681247E+02  0.00000000000E+00 0.  1.
</event>
<event>
 7    1  0.3162486E-013  0.7246162E+02  0.7816164E-02  0.1226708E+00
        -11   -1    0    0    0    0  0.00000000000E+00  0.00000000000E+00  0.45593999997E+02  0.45594000000E+02  0.51100000000E-03 0. -1.
         11   -1    0    0    0    0 -0.00000000000E+00 -0.00000000000E+00 -0.45593999997E+02  0.45594000000E+02  0.51100000000E-03 0.  1.
    9900012    2    1    2    0    0 -0.17616431581E+02  0.57618757956E+01 -0.26719419847E+01  0.72461624262E+02  0.70000070302E+02 0.  0.
         12    1    1    2    0    0  0.17616431581E+02 -0.57618757956E+01  0.26719419847E+01  0.18726375738E+02  0.00000000000E+00 0. -1.
         11    1    3    3    0    0 -0.44160664208E+01  0.57530177635E+01  0.22561834992E+01  0.75953420109E+01  0.51100000000E-03 0. -1.
        -11    1    3    3    0    0 -0.37396959853E+02 -0.52887266896E+01 -0.11047926310E+02  0.39351745987E+02  0.51100000000E-03 0.  1.
         12    1    3    3    0    0  0.24196594692E+02  0.52975847217E+01  0.61198008263E+01  0.25514536264E+02  0.00000000000E+00 0. -1.
</event>
<event>
 7    1  0.3162486E-013  0.7246154E+02  0.7816164E-02  0.1226708E+00
        -11   -1    0    0    0    0  0.00000000000E+00  0.00000000000E+00  0.45593999997E+02  0.45594000000E+02  0.51100000000E-03 0.  1.
         11   -1    0    0    0    0 -0.00000000000E+00 -0.00000000000E+00 -0.45593999997E+02  0.45594000000E+02  0.51100000000E-03 0. -1.
    9900012    2    1    2    0    0 -0.76646784911E+01  0.14718730880E+02  0.86770936269E+01  0.72461540407E+02  0.69999961066E+02 0.  0.
         12    1    1    2    0    0  0.76646784911E+01 -0.14718730880E+02 -0.86770936269E+01  0.18726459593E+02  0.00000000000E+00 0. -1.
         11    1    3    3    0    0 -0.13876635290E+02 -0.95372505115E+01 -0.44047720329E+01  0.17404659468E+02  0.51100000000E-03 0. -1.
        -11    1    3    3    0    0 -0.16031495465E+02  0.77512817895E+01 -0.87013801871E+01  0.19819314661E+02  0.51100000000E-03 0.  1.
        -12    1    3    3    0    0  0.22243452263E+02  0.16504699602E+02  0.21783245847E+02  0.35237566278E+02  0.00000000000E+00 0.  1.
</event>
<event>
 7    1  0.3162486E-013  0.7246162E+02  0.7816164E-02  0.1226708E+00
        -11   -1    0    0    0    0  0.00000000000E+00  0.00000000000E+00  0.45593999997E+02  0.45594000000E+02  0.51100000000E-03 0.  1.
         11   -1    0    0    0    0 -0.00000000000E+00 -0.00000000000E+00 -0.45593999997E+02  0.45594000000E+02  0.51100000000E-03 0. -1.
    9900012    2    1    2    0    0  0.21021743568E+01  0.11691587666E+02  0.14476357041E+02  0.72461620949E+02  0.70000065987E+02 0.  0.
         12    1    1    2    0    0 -0.21021743568E+01 -0.11691587666E+02 -0.14476357041E+02  0.18726379051E+02  0.00000000000E+00 0. -1.
         11    1    3    3    0    0 -0.80851869748E+01  0.40278268434E+01  0.17772161764E+02  0.19935981830E+02  0.51100000000E-03 0. -1.
        -11    1    3    3    0    0 -0.13433232425E+02 -0.87124687002E+00  0.15959370537E+02  0.20878513182E+02  0.51100000000E-03 0.  1.
         12    1    3    3    0    0  0.23620593756E+02  0.85350076928E+01 -0.19255175261E+02  0.31647125937E+02  0.00000000000E+00 0. -1.
</event>
<event>
 7    1  0.3162486E-013  0.7246151E+02  0.7816164E-02  0.1226708E+00
        -11   -1    0    0    0    0  0.00000000000E+00  0.00000000000E+00  0.45593999997E+02  0.45594000000E+02  0.51100000000E-03 0.  1.
         11   -1    0    0    0    0 -0.00000000000E+00 -0.00000000000E+00 -0.45593999997E+02  0.45594000000E+02  0.51100000000E-03 0. -1.
    9900012    2    1    2    0    0 -0.51926003983E+01  0.17086355254E+02 -0.56369144358E+01  0.72461509696E+02  0.69999921059E+02 0.  0.
         12    1    1    2    0    0  0.51926003983E+01 -0.17086355254E+02  0.56369144358E+01  0.18726490304E+02  0.00000000000E+00 0. -1.
         11    1    3    3    0    0  0.14548110549E+02  0.15322291851E+02 -0.26395581279E+02  0.33810454883E+02  0.51100000000E-03 0. -1.
        -11    1    3    3    0    0  0.29158008892E+01  0.54315684469E-01 -0.40625336188E+01  0.50009023870E+01  0.51100000000E-03 0.  1.
        -12    1    3    3    0    0 -0.22656511837E+02  0.17097477188E+01  0.24821200462E+02  0.33650152425E+02  0.00000000000E+00 0.  1.
</event>
<event>
 7    1  0.3162486E-013  0.7246169E+02  0.7816164E-02  0.1226708E+00
        -11   -1    0    0    0    0  0.00000000000E+00  0.00000000000E+00  0.45593999997E+02  0.45594000000E+02  0.51100000000E-03 0.  1.
         11   -1    0    0    0    0 -0.00000000000E+00 -0.00000000000E+00 -0.45593999997E+02  0.45594000000E+02  0.51100000000E-03 0. -1.
    9900012    2    1    2    0    0  0.89015976527E+01  0.14242006806E+02 -0.82825952417E+01  0.72461692767E+02  0.70000159543E+02 0.  0.
         12    1    1    2    0    0 -0.89015976527E+01 -0.14242006806E+02  0.82825952417E+01  0.18726307233E+02  0.00000000000E+00 0. -1.
         11    1    3    3    0    0  0.16614484021E+02 -0.16299977864E+02  0.27575898715E+01  0.23437889406E+02  0.51100000000E-03 0. -1.
        -11    1    3    3    0    0  0.48681072798E+01 -0.43587651003E+01  0.53695680775E+01  0.84575151958E+01  0.51100000000E-03 0.  1.
        -12    1    3    3    0    0 -0.12580993648E+02  0.34900749771E+02 -0.16409753191E+02  0.40566288165E+02  0.00000000000E+00 0.  1.
</event>
<event>
 7    1  0.3162486E-013  0.7246158E+02  0.7816164E-02  0.1226708E+00
        -11   -1    0    0    0    0  0.00000000000E+00  0.00000000000E+00  0.45593999997E+02  0.45594000000E+02  0.51100000000E-03 0. -1.
         11   -1    0    0    0    0 -0.00000000000E+00 -0.00000000000E+00 -0.45593999997E+02  0.45594000000E+02  0.51100000000E-03 0.  1.
    9900012    2    1    2    0    0 -0.13130273017E+02 -0.90496362334E+01 -0.98172791215E+01  0.72461576028E+02  0.70000007469E+02 0.  0.
         12    1    1    2    0    0  0.13130273017E+02  0.90496362334E+01  0.98172791215E+01  0.18726423972E+02  0.00000000000E+00 0. -1.
         11    1    3    3    0    0  0.87637620428E+01 -0.73800543696E+01  0.20093896464E+02  0.23130789070E+02  0.51100000000E-03 0. -1.
        -11    1    3    3    0    0  0.32775124964E+01  0.26984353785E+01  0.46860437462E+01  0.63231833682E+01  0.51100000000E-03 0.  1.
        -12    1    3    3    0    0 -0.25171547556E+02 -0.43680172424E+01 -0.34597219332E+02  0.43007603589E+02  0.00000000000E+00 0.  1.
</event>
<event>
 7    1  0.3162486E-013  0.7246161E+02  0.7816164E-02  0.1226708E+00
        -11   -1    0    0    0    0  0.00000000000E+00  0.00000000000E+00  0.45593999997E+02  0.45594000000E+02  0.51100000000E-03 0.  1.
         11   -1    0    0    0    0 -0.00000000000E+00 -0.00000000000E+00 -0.45593999997E+02  0.45594000000E+02  0.51100000000E-03 0. -1.
    9900012    2    1    2    0    0  0.31512871658E+01  0.60735260528E+01  0.17431566731E+02  0.72461605573E+02  0.70000045958E+02 0.  0.
         12    1    1    2    0    0 -0.31512871658E+01 -0.60735260528E+01 -0.17431566731E+02  0.18726394427E+02  0.00000000000E+00 0. -1.
         11    1    3    3    0    0 -0.28693378064E+01 -0.26526756444E+01  0.55035604388E+01  0.67497381643E+01  0.51100000000E-03 0. -1.
        -11    1    3    3    0    0 -0.23914343392E+02 -0.13219609050E+02  0.74687249377E+01  0.28327296655E+02  0.51100000000E-03 0.  1.
         12    1    3    3    0    0  0.29934968364E+02  0.21945810747E+02  0.44592813546E+01  0.37384570755E+02  0.00000000000E+00 0. -1.
</event>
<event>
 7    1  0.3162486E-013  0.7246155E+02  0.7816164E-02  0.1226708E+00
        -11   -1    0    0    0    0  0.00000000000E+00  0.00000000000E+00  0.45593999997E+02  0.45594000000E+02  0.51100000000E-03 0. -1.
         11   -1    0    0    0    0 -0.00000000000E+00 -0.00000000000E+00 -0.45593999997E+02  0.45594000000E+02  0.51100000000E-03 0.  1.
    9900012    2    1    2    0    0  0.11221814398E+02 -0.14894574086E+02 -0.17037194551E+01  0.72461545034E+02  0.69999967094E+02 0.  0.
         12    1    1    2    0    0 -0.11221814398E+02  0.14894574086E+02  0.17037194551E+01  0.18726454966E+02  0.00000000000E+00 0. -1.
         11    1    3    3    0    0 -0.57502624436E+01 -0.16345099359E+02  0.62837306071E+01  0.18431306569E+02  0.51100000000E-03 0. -1.
        -11    1    3    3    0    0 -0.28469499807E+01 -0.17444901666E+02 -0.17662857859E+02  0.24988122505E+02  0.51100000000E-03 0.  1.
         12    1    3    3    0    0  0.19819026823E+02  0.18895426939E+02  0.96754077966E+01  0.29042115960E+02  0.00000000000E+00 0. -1.
</event>
<event>
 7    1  0.3162486E-013  0.7246158E+02  0.7816164E-02  0.1226708E+00
        -11   -1    0    0    0    0  0.00000000000E+00  0.00000000000E+00  0.45593999997E+02  0.45594000000E+02  0.51100000000E-03 0. -1.
         11   -1    0    0    0    0 -0.00000000000E+00 -0.00000000000E+00 -0.45593999997E+02  0.45594000000E+02  0.51100000000E-03 0.  1.
    9900012    2    1    2    0    0  0.22989654916E+01 -0.14145358040E+02 -0.12054147397E+02  0.72461578402E+02  0.70000010562E+02 0.  0.
         12    1    1    2    0    0 -0.22989654916E+01  0.14145358040E+02  0.12054147397E+02  0.18726421598E+02  0.00000000000E+00 0. -1.
         11    1    3    3    0    0 -0.17944627572E+02 -0.10174559076E+02  0.23772092327E+01  0.20764932822E+02  0.51100000000E-03 0. -1.
        -11    1    3    3    0    0 -0.70672153845E+01 -0.19408804358E+01  0.11724554514E+02  0.13826703474E+02  0.51100000000E-03 0.  1.
        -12    1    3    3    0    0  0.27310808449E+02 -0.20299185279E+01 -0.26155911143E+02  0.37869942106E+02  0.00000000000E+00 0.  1.
</event>
<event>
 7    1  0.3162486E-013  0.7246139E+02  0.7816164E-02  0.1226708E+00
        -11   -1    0    0    0    0  0.00000000000E+00  0.00000000000E+00  0.45593999997E+02  0.45594000000E+02  0.51100000000E-03 0.  1.
         11   -1    0    0    0    0 -0.00000000000E+00 -0.00000000000E+00 -0.45593999997E+02  0.45594000000E+02  0.51100000000E-03 0. -1.
    9900012    2    1    2    0    0 -0.10349041354E+02  0.15566583300E+01 -0.15529326150E+02  0.72461392918E+02  0.69999768934E+02 0.  0.
         12    1    1    2    0    0  0.10349041354E+02 -0.15566583300E+01  0.15529326150E+02  0.18726607082E+02  0.00000000000E+00 0. -1.
         11    1    3    3    0    0  0.13030551540E+02 -0.20239495994E+02 -0.12133502389E+02  0.26956527077E+02  0.51100000000E-03 0. -1.
        -11    1    3    3    0    0  0.16118619528E+01 -0.67676280657E+01 -0.29295247994E+01  0.75485763163E+01  0.51100000000E-03 0.  1.
        -12    1    3    3    0    0 -0.24991454847E+02  0.28563782390E+02 -0.46629896180E+00  0.37956289525E+02  0.00000000000E+00 0.  1.
</event>
<event>
 7    1  0.3162486E-013  0.7246155E+02  0.7816164E-02  0.1226708E+00
        -11   -1    0    0    0    0  0.00000000000E+00  0.00000000000E+00  0.45593999997E+02  0.45594000000E+02  0.51100000000E-03 0. -1.
         11   -1    0    0    0    0 -0.00000000000E+00 -0.00000000000E+00 -0.45593999997E+02  0.45594000000E+02  0.51100000000E-03 0.  1.
    9900012    2    1    2    0    0  0.12750653405E+02 -0.11939365076E+02 -0.67492541210E+01  0.72461547270E+02  0.69999970006E+02 0.  0.
         12    1    1    2    0    0 -0.12750653405E+02  0.11939365076E+02  0.67492541210E+01  0.18726452730E+02  0.00000000000E+00 0. -1.
         11    1    3    3    0    0  0.12526036536E+02 -0.27235848510E+02  0.21424330781E+02  0.36846912829E+02  0.51100000000E-03 0. -1.
        -11    1    3    3    0    0  0.34750041691E+01 -0.11168810604E+01 -0.11203026397E+02  0.11782651569E+02  0.51100000000E-03 0.  1.
        -12    1    3    3    0    0 -0.32503873005E+01  0.16413364495E+02 -0.16970558504E+02  0.23831982872E+02  0.00000000000E+00 0.  1.
</event>
<event>
 7    1  0.3162486E-013  0.7246158E+02  0.7816164E-02  0.1226708E+00
        -11   -1    0    0    0    0  0.00000000000E+00  0.00000000000E+00  0.45593999997E+02  0.45594000000E+02  0.51100000000E-03 0.  1.
         11   -1    0    0    0    0 -0.00000000000E+00 -0.00000000000E+00 -0.45593999997E+02  0.45594000000E+02  0.51100000000E-03 0. -1.
    9900012    2    1    2    0    0  0.20668747728E+01 -0.15705949791E+02  0.99864960707E+01  0.72461576585E+02  0.70000008194E+02 0.  0.
         12    1    1    2    0    0 -0.20668747728E+01  0.15705949791E+02 -0.99864960707E+01  0.18726423415E+02  0.00000000000E+00 0. -1.
         11    1    3    3    0    0 -0.15841442038E+02  0.12684041243E+02 -0.93834844478E+01  0.22358129813E+02  0.51100000000E-03 0. -1.
        -11    1    3    3    0    0  0.16430673154E+02  0.10430763442E+01  0.43615623196E+01  0.17031683848E+02  0.51100000000E-03 0.  1.
         12    1    3    3    0    0  0.14776436568E+01 -0.29433067378E+02  0.15008418199E+02  0.33071762924E+02  0.00000000000E+00 0. -1.
</event>
<event>
 7    1  0.3162486E-013  0.7246163E+02  0.7816164E-02  0.1226708E+00
        -11   -1    0    0    0    0  0.00000000000E+00  0.00000000000E+00  0.45593999997E+02  0.45594000000E+02  0.51100000000E-03 0.  1.
         11   -1    0    0    0    0 -0.00000000000E+00 -0.00000000000E+00 -0.45593999997E+02  0.45594000000E+02  0.51100000000E-03 0. -1.
    9900012    2    1    2    0    0  0.11893479864E+02 -0.58445437853E+01 -0.13231150780E+02  0.72461630723E+02  0.70000078719E+02 0.  0.
         12    1    1    2    0    0 -0.11893479864E+02  0.58445437853E+01  0.13231150780E+02  0.18726369277E+02  0.00000000000E+00 0. -1.
         11    1    3    3    0    0  0.35110511798E+01 -0.82215441900E+01 -0.11027983461E+02  0.14196397034E+02  0.51100000000E-03 0. -1.
        -11    1    3    3    0    0 -0.13759473082E+01 -0.20784915365E+02 -0.18870780430E+02  0.28107157309E+02  0.51100000000E-03 0.  1.
        -12    1    3    3    0    0  0.97583759924E+01  0.23161915769E+02  0.16667613111E+02  0.30158076380E+02  0.00000000000E+00 0.  1.
</event>
<event>
 7    1  0.3162486E-013  0.7246155E+02  0.7816164E-02  0.1226708E+00
        -11   -1    0    0    0    0  0.00000000000E+00  0.00000000000E+00  0.45593999997E+02  0.45594000000E+02  0.51100000000E-03 0. -1.
         11   -1    0    0    0    0 -0.00000000000E+00 -0.00000000000E+00 -0.45593999997E+02  0.45594000000E+02  0.51100000000E-03 0.  1.
    9900012    2    1    2    0    0  0.18092749917E+02  0.27437282298E+01  0.39754577832E+01  0.72461550557E+02  0.69999974289E+02 0.  0.
         12    1    1    2    0    0 -0.18092749917E+02 -0.27437282298E+01 -0.39754577832E+01  0.18726449443E+02  0.00000000000E+00 0. -1.
         11    1    3    3    0    0  0.64268973848E+01  0.13606279144E+02  0.13308178226E+02  0.20088390928E+02  0.51100000000E-03 0. -1.
        -11    1    3    3    0    0 -0.15552054124E+02  0.74790086409E+01  0.25968193307E+01  0.17451230003E+02  0.51100000000E-03 0.  1.
        -12    1    3    3    0    0  0.27217906655E+02 -0.18341559555E+02 -0.11929539773E+02  0.34921929626E+02  0.00000000000E+00 0.  1.
</event>
<event>
 7    1  0.3162486E-013  0.7246156E+02  0.7816164E-02  0.1226708E+00
        -11   -1    0    0    0    0  0.00000000000E+00  0.00000000000E+00  0.45593999997E+02  0.45594000000E+02  0.51100000000E-03 0. -1.
         11   -1    0    0    0    0 -0.00000000000E+00 -0.00000000000E+00 -0.45593999997E+02  0.45594000000E+02  0.51100000000E-03 0.  1.
    9900012    2    1    2    0    0  0.60506651895E+01 -0.15068362064E+02 -0.93281012460E+01  0.72461559938E+02  0.69999986509E+02 0.  0.
         12    1    1    2    0    0 -0.60506651895E+01  0.15068362064E+02  0.93281012460E+01  0.18726440062E+02  0.00000000000E+00 0. -1.
         11    1    3    3    0    0  0.25288881015E+02 -0.83829985391E+01  0.60447981126E+01  0.27319256065E+02  0.51100000000E-03 0. -1.
        -11    1    3    3    0    0  0.29465781894E+01 -0.17507027033E+02 -0.60166409733E+01  0.18745087021E+02  0.51100000000E-03 0.  1.
        -12    1    3    3    0    0 -0.22184794015E+02  0.10821663508E+02 -0.93562583853E+01  0.26397216852E+02  0.00000000000E+00 0.  1.
</event>
<event>
 7    1  0.3162486E-013  0.7246162E+02  0.7816164E-02  0.1226708E+00
        -11   -1    0    0    0    0  0.00000000000E+00  0.00000000000E+00  0.45593999997E+02  0.45594000000E+02  0.51100000000E-03 0.  1.
         11   -1    0    0    0    0 -0.00000000000E+00 -0.00000000000E+00 -0.45593999997E+02  0.45594000000E+02  0.51100000000E-03 0. -1.
    9900012    2    1    2    0    0  0.89798947592E+01 -0.30659316016E+01  0.16144319067E+02  0.72461615282E+02  0.70000058605E+02 0.  0.
         12    1    1    2    0    0 -0.89798947592E+01  0.30659316016E+01 -0.16144319067E+02  0.18726384718E+02  0.00000000000E+00 0. -1.
         11    1    3    3    0    0  0.18065490447E+01 -0.23985450443E+02 -0.68287689425E+01  0.25003950446E+02  0.51100000000E-03 0. -1.
        -11    1    3    3    0    0 -0.87256653694E+01 -0.15452175161E+01  0.17183159400E+02  0.19333543404E+02  0.51100000000E-03 0.  1.
         12    1    3    3    0    0  0.15899011084E+02  0.22464736357E+02  0.57899286089E+01  0.28124121432E+02  0.00000000000E+00 0. -1.
</event>
<event>
 7    1  0.3162486E-013  0.7246168E+02  0.7816164E-02  0.1226708E+00
        -11   -1    0    0    0    0  0.00000000000E+00  0.00000000000E+00  0.45593999997E+02  0.45594000000E+02  0.51100000000E-03 0. -1.
         11   -1    0    0    0    0 -0.00000000000E+00 -0.00000000000E+00 -0.45593999997E+02  0.45594000000E+02  0.51100000000E-03 0.  1.
    9900012    2    1    2    0    0 -0.17876976490E+02 -0.26365732275E+01 -0.49129677375E+01  0.72461680052E+02  0.70000142979E+02 0.  0.
         12    1    1    2    0    0  0.17876976490E+02  0.26365732275E+01  0.49129677375E+01  0.18726319948E+02  0.00000000000E+00 0. -1.
         11    1    3    3    0    0  0.11416238426E+01 -0.34655590320E+01 -0.70344479712E+01  0.79244471683E+01  0.51100000000E-03 0. -1.
        -11    1    3    3    0    0 -0.73095280807E+01 -0.24460661433E+02 -0.17060295700E+02  0.30705159959E+02  0.51100000000E-03 0.  1.
        -12    1    3    3    0    0 -0.11709072252E+02  0.25289647237E+02  0.19181775933E+02  0.33832072924E+02  0.00000000000E+00 0.  1.
</event>
<event>
 7    1  0.3162486E-013  0.7246160E+02  0.7816164E-02  0.1226708E+00
        -11   -1    0    0    0    0  0.00000000000E+00  0.00000000000E+00  0.45593999997E+02  0.45594000000E+02  0.51100000000E-03 0. -1.
         11   -1    0    0    0    0 -0.00000000000E+00 -0.00000000000E+00 -0.45593999997E+02  0.45594000000E+02  0.51100000000E-03 0.  1.
    9900012    2    1    2    0    0  0.88180390572E+01  0.28438580190E+01  0.16273685205E+02  0.72461596944E+02  0.70000034716E+02 0.  0.
         12    1    1    2    0    0 -0.88180390572E+01 -0.28438580190E+01 -0.16273685205E+02  0.18726403056E+02  0.00000000000E+00 0. -1.
         11    1    3    3    0    0  0.11747737814E+02  0.32938054795E+01 -0.57084296941E+01  0.13470139870E+02  0.51100000000E-03 0. -1.
        -11    1    3    3    0    0  0.18680117124E+02 -0.60751800059E+01 -0.83349861462E+01  0.21338382839E+02  0.51100000000E-03 0.  1.
         12    1    3    3    0    0 -0.21609815880E+02  0.56252325454E+01  0.30317101046E+02  0.37653074235E+02  0.00000000000E+00 0. -1.
</event>
<event>
 7    1  0.3162486E-013  0.7246147E+02  0.7816164E-02  0.1226708E+00
        -11   -1    0    0    0    0  0.00000000000E+00  0.00000000000E+00  0.45593999997E+02  0.45594000000E+02  0.51100000000E-03 0. -1.
         11   -1    0    0    0    0 -0.00000000000E+00 -0.00000000000E+00 -0.45593999997E+02  0.45594000000E+02  0.51100000000E-03 0.  1.
    9900012    2    1    2    0    0  0.17090703136E+01  0.13273946904E+02 -0.13098254463E+02  0.72461471819E+02  0.69999871717E+02 0.  0.
         12    1    1    2    0    0 -0.17090703136E+01 -0.13273946904E+02  0.13098254463E+02  0.18726528181E+02  0.00000000000E+00 0. -1.
         11    1    3    3    0    0  0.20486165442E+02 -0.61497244902E+01 -0.54826976659E+00  0.21396324119E+02  0.51100000000E-03 0. -1.
        -11    1    3    3    0    0  0.83234676546E+01  0.64112883765E+01 -0.17681727123E+02  0.20567649519E+02  0.51100000000E-03 0.  1.
        -12    1    3    3    0    0 -0.27100562783E+02  0.13012383018E+02  0.51317424267E+01  0.30497498180E+02  0.00000000000E+00 0.  1.
</event>
<event>
 7    1  0.3162486E-013  0.7246154E+02  0.7816164E-02  0.1226708E+00
        -11   -1    0    0    0    0  0.00000000000E+00  0.00000000000E+00  0.45593999997E+02  0.45594000000E+02  0.51100000000E-03 0.  1.
         11   -1    0    0    0    0 -0.00000000000E+00 -0.00000000000E+00 -0.45593999997E+02  0.45594000000E+02  0.51100000000E-03 0. -1.
    9900012    2    1    2    0    0 -0.13734900480E+02 -0.11203550562E+02  0.60426226309E+01  0.72461539452E+02  0.69999959822E+02 0.  0.
         12    1    1    2    0    0  0.13734900480E+02  0.11203550562E+02 -0.60426226309E+01  0.18726460548E+02  0.00000000000E+00 0. -1.
         11    1    3    3    0    0 -0.29285572243E+01 -0.18793991268E+02 -0.12261313326E+02  0.22630297389E+02  0.51100000000E-03 0. -1.
        -11    1    3    3    0    0  0.12593959927E+02 -0.10429950178E+02  0.32147912514E+01  0.16665130374E+02  0.51100000000E-03 0.  1.
        -12    1    3    3    0    0 -0.23400303182E+02  0.18020390883E+02  0.15089144705E+02  0.33166111688E+02  0.00000000000E+00 0.  1.
</event>
<event>
 7    1  0.3162486E-013  0.7246165E+02  0.7816164E-02  0.1226708E+00
        -11   -1    0    0    0    0  0.00000000000E+00  0.00000000000E+00  0.45593999997E+02  0.45594000000E+02  0.51100000000E-03 0.  1.
         11   -1    0    0    0    0 -0.00000000000E+00 -0.00000000000E+00 -0.45593999997E+02  0.45594000000E+02  0.51100000000E-03 0. -1.
    9900012    2    1    2    0    0  0.17771970156E+02 -0.50959152582E+01  0.29774087360E+01  0.72461648558E+02  0.70000101953E+02 0.  0.
         12    1    1    2    0    0 -0.17771970156E+02  0.50959152582E+01 -0.29774087360E+01  0.18726351442E+02  0.00000000000E+00 0. -1.
         11    1    3    3    0    0 -0.92660906332E+01  0.11767421810E+02 -0.13462169669E+01  0.15038116639E+02  0.51100000000E-03 0. -1.
        -11    1    3    3    0    0 -0.98967603886E+01  0.79367282358E+01  0.22705999424E+01  0.12887712972E+02  0.51100000000E-03 0.  1.
        -12    1    3    3    0    0  0.36934821178E+02 -0.24800065304E+02  0.20530257605E+01  0.44535818947E+02  0.00000000000E+00 0.  1.
</event>
<event>
 7    1  0.3162486E-013  0.7246164E+02  0.7816164E-02  0.1226708E+00
        -11   -1    0    0    0    0  0.00000000000E+00  0.00000000000E+00  0.45593999997E+02  0.45594000000E+02  0.51100000000E-03 0.  1.
         11   -1    0    0    0    0 -0.00000000000E+00 -0.00000000000E+00 -0.45593999997E+02  0.45594000000E+02  0.51100000000E-03 0. -1.
    9900012    2    1    2    0    0  0.14244488127E+02 -0.11908999280E+02  0.24386550667E+01  0.72461635046E+02  0.70000084351E+02 0.  0.
         12    1    1    2    0    0 -0.14244488127E+02  0.11908999280E+02 -0.24386550667E+01  0.18726364954E+02  0.00000000000E+00 0. -1.
         11    1    3    3    0    0  0.44653931642E+01  0.41491228371E+01  0.14285650315E+02  0.15531734018E+02  0.51100000000E-03 0. -1.
        -11    1    3    3    0    0  0.29814759569E+02 -0.20029893643E+01 -0.12634637098E+02  0.32443272175E+02  0.51100000000E-03 0.  1.
         12    1    3    3    0    0 -0.20035664606E+02 -0.14055132752E+02  0.78764185007E+00  0.24486628853E+02  0.00000000000E+00 0. -1.
</event>
<event>
 7    1  0.3162486E-013  0.7246153E+02  0.7816164E-02  0.1226708E+00
        -11   -1    0    0    0    0  0.00000000000E+00  0.00000000000E+00  0.45593999997E+02  0.45594000000E+02  0.51100000000E-03 0.  1.
         11   -1    0    0    0    0 -0.00000000000E+00 -0.00000000000E+00 -0.45593999997E+02  0.45594000000E+02  0.51100000000E-03 0. -1.
    9900012    2    1    2    0    0 -0.65075102724E+01  0.66906862476E+00  0.17546662889E+02  0.72461528861E+02  0.69999946025E+02 0.  0.
         12    1    1    2    0    0  0.65075102724E+01 -0.66906862476E+00 -0.17546662889E+02  0.18726471139E+02  0.00000000000E+00 0. -1.
         11    1    3    3    0    0  0.20977673208E+02 -0.64289584027E+01 -0.50588210061E+01  0.22516348496E+02  0.51100000000E-03 0. -1.
        -11    1    3    3    0    0  0.56800595682E+01 -0.59620904620E+01  0.10786585369E+01  0.83050047487E+01  0.51100000000E-03 0.  1.
        -12    1    3    3    0    0 -0.33165243049E+02  0.13060117489E+02  0.21526825358E+02  0.41640175616E+02  0.00000000000E+00 0.  1.
</event>
<event>
 7    1  0.3162486E-013  0.7246157E+02  0.7816164E-02  0.1226708E+00
        -11   -1    0    0    0    0  0.00000000000E+00  0.00000000000E+00  0.45593999997E+02  0.45594000000E+02  0.51100000000E-03 0.  1.
         11   -1    0    0    0    0 -0.00000000000E+00 -0.00000000000E+00 -0.45593999997E+02  0.45594000000E+02  0.51100000000E-03 0. -1.
    9900012    2    1    2    0    0 -0.11027356942E+02 -0.12164847752E+02  0.90051583021E+01  0.72461574874E+02  0.70000005966E+02 0.  0.
         12    1    1    2    0    0  0.11027356942E+02  0.12164847752E+02 -0.90051583021E+01  0.18726425126E+02  0.00000000000E+00 0. -1.
         11    1    3    3    0    0  0.11951219253E+02  0.10779021486E+02  0.11666655316E+02  0.19877871927E+02  0.51100000000E-03 0. -1.
        -11    1    3    3    0    0  0.11126748739E+02  0.31379495487E+00 -0.19255482240E+01  0.11296492420E+02  0.51100000000E-03 0.  1.
        -12    1    3    3    0    0 -0.34105324933E+02 -0.23257664193E+02 -0.73594879019E+00  0.41287210527E+02  0.00000000000E+00 0.  1.
</event>
<event>
 7    1  0.3162486E-013  0.7246160E+02  0.7816164E-02  0.1226708E+00
        -11   -1    0    0    0    0  0.00000000000E+00  0.00000000000E+00  0.45593999997E+02  0.45594000000E+02  0.51100000000E-03 0. -1.
         11   -1    0    0    0    0 -0.00000000000E+00 -0.00000000000E+00 -0.45593999997E+02  0.45594000000E+02  0.51100000000E-03 0.  1.
    9900012    2    1    2    0    0 -0.13156893088E+02 -0.12003494991E+02 -0.57870923273E+01  0.72461597106E+02  0.70000034928E+02 0.  0.
         12    1    1    2    0    0  0.13156893088E+02  0.12003494991E+02  0.57870923273E+01  0.18726402894E+02  0.00000000000E+00 0. -1.
         11    1    3    3    0    0 -0.25929141098E+02 -0.38856379679E+01  0.26522722284E+01  0.26352477848E+02  0.51100000000E-03 0. -1.
        -11    1    3    3    0    0 -0.13258837179E+02 -0.11197683795E+01  0.70106529903E+01  0.15039943490E+02  0.51100000000E-03 0.  1.
        -12    1    3    3    0    0  0.26031085189E+02 -0.69980886433E+01 -0.15450017546E+02  0.31069175769E+02  0.00000000000E+00 0.  1.
</event>
<event>
 7    1  0.3162486E-013  0.7246151E+02  0.7816164E-02  0.1226708E+00
        -11   -1    0    0    0    0  0.00000000000E+00  0.00000000000E+00  0.45593999997E+02  0.45594000000E+02  0.51100000000E-03 0.  1.
         11   -1    0    0    0    0 -0.00000000000E+00 -0.00000000000E+00 -0.45593999997E+02  0.45594000000E+02  0.51100000000E-03 0. -1.
    9900012    2    1    2    0    0 -0.72616272508E+01  0.12060793661E+02  0.12348573767E+02  0.72461514795E+02  0.69999927701E+02 0.  0.
         12    1    1    2    0    0  0.72616272508E+01 -0.12060793661E+02 -0.12348573767E+02  0.18726485205E+02  0.00000000000E+00 0. -1.
         11    1    3    3    0    0 -0.10575913552E+02  0.57168077522E+01 -0.21384950754E+02  0.24532589699E+02  0.51100000000E-03 0. -1.
        -11    1    3    3    0    0  0.80852661289E+01  0.97741136608E+01 -0.97901996546E+00  0.12722551104E+02  0.51100000000E-03 0.  1.
         12    1    3    3    0    0 -0.47709798273E+01 -0.34301277522E+01  0.34712544487E+02  0.35206373992E+02  0.00000000000E+00 0. -1.
</event>
<event>
 7    1  0.3162486E-013  0.7246165E+02  0.7816164E-02  0.1226708E+00
        -11   -1    0    0    0    0  0.00000000000E+00  0.00000000000E+00  0.45593999997E+02  0.45594000000E+02  0.51100000000E-03 0. -1.
         11   -1    0    0    0    0 -0.00000000000E+00 -0.00000000000E+00 -0.45593999997E+02  0.45594000000E+02  0.51100000000E-03 0.  1.
    9900012    2    1    2    0    0  0.11833869102E+02  0.14355355638E+02  0.21352546585E+01  0.72461654765E+02  0.70000110038E+02 0.  0.
         12    1    1    2    0    0 -0.11833869102E+02 -0.14355355638E+02 -0.21352546585E+01  0.18726345235E+02  0.00000000000E+00 0. -1.
         11    1    3    3    0    0  0.17487193134E+02 -0.12643752161E+02 -0.15172729203E+02  0.26379501590E+02  0.51100000000E-03 0. -1.
        -11    1    3    3    0    0  0.10088659725E+02  0.77966074408E+01  0.16999701151E+02  0.21249893696E+02  0.51100000000E-03 0.  1.
         12    1    3    3    0    0 -0.15741983757E+02  0.19202500357E+02  0.30828271104E+00  0.24832259479E+02  0.00000000000E+00 0. -1.
</event>
<event>
 7    1  0.3162486E-013  0.7246151E+02  0.7816164E-02  0.1226708E+00
        -11   -1    0    0    0    0  0.00000000000E+00  0.00000000000E+00  0.45593999997E+02  0.45594000000E+02  0.51100000000E-03 0. -1.
         11   -1    0    0    0    0 -0.00000000000E+00 -0.00000000000E+00 -0.45593999997E+02  0.45594000000E+02  0.51100000000E-03 0.  1.
    9900012    2    1    2    0    0  0.16852768845E+02  0.80899145238E+01  0.11040256548E+01  0.72461510543E+02  0.69999922162E+02 0.  0.
         12    1    1    2    0    0 -0.16852768845E+02 -0.80899145238E+01 -0.11040256548E+01  0.18726489457E+02  0.00000000000E+00 0. -1.
         11    1    3    3    0    0  0.56429875201E+01 -0.67822951313E+01  0.67321839363E+01  0.11097978925E+02  0.51100000000E-03 0. -1.
        -11    1    3    3    0    0  0.33020546967E+02  0.17073547800E+02  0.40640778043E+01  0.37394909883E+02  0.51100000000E-03 0.  1.
        -12    1    3    3    0    0 -0.21810765642E+02 -0.22013381452E+01 -0.96922360857E+01  0.23968621735E+02  0.00000000000E+00 0.  1.
</event>
<event>
 7    1  0.3162486E-013  0.7246159E+02  0.7816164E-02  0.1226708E+00
        -11   -1    0    0    0    0  0.00000000000E+00  0.00000000000E+00  0.45593999997E+02  0.45594000000E+02  0.51100000000E-03 0. -1.
         11   -1    0    0    0    0 -0.00000000000E+00 -0.00000000000E+00 -0.45593999997E+02  0.45594000000E+02  0.51100000000E-03 0.  1.
    9900012    2    1    2    0    0 -0.17219214072E+01 -0.16815780522E+02 -0.80587203684E+01  0.72461589189E+02  0.70000024613E+02 0.  0.
         12    1    1    2    0    0  0.17219214072E+01  0.16815780522E+02  0.80587203684E+01  0.18726410811E+02  0.00000000000E+00 0. -1.
         11    1    3    3    0    0 -0.99808508140E+01 -0.88102163111E+01  0.12083928493E+02  0.17979394386E+02  0.51100000000E-03 0. -1.
        -11    1    3    3    0    0  0.12868953262E+02 -0.11673146804E+02  0.12441580757E+02  0.21369727334E+02  0.51100000000E-03 0.  1.
        -12    1    3    3    0    0 -0.46100238548E+01  0.36675825927E+01 -0.32584229618E+02  0.33112467468E+02  0.00000000000E+00 0.  1.
</event>
<event>
 7    1  0.3162486E-013  0.7246153E+02  0.7816164E-02  0.1226708E+00
        -11   -1    0    0    0    0  0.00000000000E+00  0.00000000000E+00  0.45593999997E+02  0.45594000000E+02  0.51100000000E-03 0. -1.
         11   -1    0    0    0    0 -0.00000000000E+00 -0.00000000000E+00 -0.45593999997E+02  0.45594000000E+02  0.51100000000E-03 0.  1.
    9900012    2    1    2    0    0 -0.13603134752E+02 -0.12797831888E+02 -0.13604504562E+01  0.72461532058E+02  0.69999950190E+02 0.  0.
         12    1    1    2    0    0  0.13603134752E+02  0.12797831888E+02  0.13604504562E+01  0.18726467942E+02  0.00000000000E+00 0. -1.
         11    1    3    3    0    0  0.13472063042E+02  0.64287047201E+01 -0.41301607158E+00  0.14933027473E+02  0.51100000000E-03 0. -1.
        -11    1    3    3    0    0 -0.15605737012E+02 -0.14378421989E+02 -0.23564243177E+02  0.31710433667E+02  0.51100000000E-03 0.  1.
         12    1    3    3    0    0 -0.11469460782E+02 -0.48481146194E+01  0.22616808792E+02  0.25818070918E+02  0.00000000000E+00 0. -1.
</event>
<event>
 7    1  0.3162486E-013  0.7246152E+02  0.7816164E-02  0.1226708E+00
        -11   -1    0    0    0    0  0.00000000000E+00  0.00000000000E+00  0.45593999997E+02  0.45594000000E+02  0.51100000000E-03 0. -1.
         11   -1    0    0    0    0 -0.00000000000E+00 -0.00000000000E+00 -0.45593999997E+02  0.45594000000E+02  0.51100000000E-03 0.  1.
    9900012    2    1    2    0    0  0.27790545014E+01  0.16471925279E+02 -0.84636727690E+01  0.72461515465E+02  0.69999928574E+02 0.  0.
         12    1    1    2    0    0 -0.27790545014E+01 -0.16471925279E+02  0.84636727690E+01  0.18726484535E+02  0.00000000000E+00 0. -1.
         11    1    3    3    0    0 -0.20676166544E+02  0.43715760671E+01  0.86024298926E+01  0.22817018661E+02  0.51100000000E-03 0. -1.
        -11    1    3    3    0    0  0.40943264105E+01  0.16854347256E+02 -0.23034389275E+02  0.28834278554E+02  0.51100000000E-03 0.  1.
        -12    1    3    3    0    0  0.19360894635E+02 -0.47539980443E+01  0.59682866138E+01  0.20810218249E+02  0.00000000000E+00 0.  1.
</event>
<event>
 7    1  0.3162486E-013  0.7246156E+02  0.7816164E-02  0.1226708E+00
        -11   -1    0    0    0    0  0.00000000000E+00  0.00000000000E+00  0.45593999997E+02  0.45594000000E+02  0.51100000000E-03 0. -1.
         11   -1    0    0    0    0 -0.00000000000E+00 -0.00000000000E+00 -0.45593999997E+02  0.45594000000E+02  0.51100000000E-03 0.  1.
    9900012    2    1    2    0    0  0.12880270057E+02  0.61720331767E+01 -0.12111330618E+02  0.72461556675E+02  0.69999982258E+02 0.  0.
         12    1    1    2    0    0 -0.12880270057E+02 -0.61720331767E+01  0.12111330618E+02  0.18726443325E+02  0.00000000000E+00 0. -1.
         11    1    3    3    0    0 -0.21533018298E+02 -0.12453920736E+02  0.35083072359E+01  0.25121290544E+02  0.51100000000E-03 0. -1.
        -11    1    3    3    0    0 -0.10259352853E+01  0.15959751192E+01  0.32228376478E+01  0.37398345626E+01  0.51100000000E-03 0.  1.
        -12    1    3    3    0    0  0.35439223640E+02  0.17029978793E+02 -0.18842475502E+02  0.43600431568E+02  0.00000000000E+00 0.  1.
</event>
<event>
 7    1  0.3162486E-013  0.7246151E+02  0.7816164E-02  0.1226708E+00
        -11   -1    0    0    0    0  0.00000000000E+00  0.00000000000E+00  0.45593999997E+02  0.45594000000E+02  0.51100000000E-03 0.  1.
         11   -1    0    0    0    0 -0.00000000000E+00 -0.00000000000E+00 -0.45593999997E+02  0.45594000000E+02  0.51100000000E-03 0. -1.
    9900012    2    1    2    0    0 -0.17157798177E+02  0.61257346376E+01 -0.43320742070E+01  0.72461507268E+02  0.69999917896E+02 0.  0.
         12    1    1    2    0    0  0.17157798177E+02 -0.61257346376E+01  0.43320742070E+01  0.18726492732E+02  0.00000000000E+00 0. -1.
         11    1    3    3    0    0 -0.97419534802E+01 -0.19273785149E+02 -0.41796851461E+00  0.21599980313E+02  0.51100000000E-03 0. -1.
        -11    1    3    3    0    0  0.10076787284E+02 -0.79320936035E+01 -0.31749513683E+01  0.13211361299E+02  0.51100000000E-03 0.  1.
        -12    1    3    3    0    0 -0.17492631981E+02  0.33331613390E+02 -0.73915432409E+00  0.37650165656E+02  0.00000000000E+00 0.  1.
</event>
<event>
 7    1  0.3162486E-013  0.7246160E+02  0.7816164E-02  0.1226708E+00
        -11   -1    0    0    0    0  0.00000000000E+00  0.00000000000E+00  0.45593999997E+02  0.45594000000E+02  0.51100000000E-03 0.  1.
         11   -1    0    0    0    0 -0.00000000000E+00 -0.00000000000E+00 -0.45593999997E+02  0.45594000000E+02  0.51100000000E-03 0. -1.
    9900012    2    1    2    0    0  0.16043263625E+02  0.43659514964E+01 -0.86156871770E+01  0.72461604037E+02  0.70000043956E+02 0.  0.
         12    1    1    2    0    0 -0.16043263625E+02 -0.43659514964E+01  0.86156871770E+01  0.18726395963E+02  0.00000000000E+00 0. -1.
         11    1    3    3    0    0  0.21633550569E+02 -0.17644443176E+02 -0.22120676120E+02  0.35618270557E+02  0.51100000000E-03 0. -1.
        -11    1    3    3    0    0 -0.35141651068E+01 -0.54107246833E+01  0.64062979615E+00  0.64834947978E+01  0.51100000000E-03 0.  1.
        -12    1    3    3    0    0 -0.20761218364E+01  0.27421119355E+02  0.12864359147E+02  0.30359838683E+02  0.00000000000E+00 0.  1.
</event>
<event>
 7    1  0.3162486E-013  0.7246154E+02  0.7816164E-02  0.1226708E+00
        -11   -1    0    0    0    0  0.00000000000E+00  0.00000000000E+00  0.45593999997E+02  0.45594000000E+02  0.51100000000E-03 0. -1.
         11   -1    0    0    0    0 -0.00000000000E+00 -0.00000000000E+00 -0.45593999997E+02  0.45594000000E+02  0.51100000000E-03 0.  1.
    9900012    2    1    2    0    0 -0.14048261584E+02 -0.12314097722E+02 -0.12998835811E+01  0.72461538680E+02  0.69999958816E+02 0.  0.
         12    1    1    2    0    0  0.14048261584E+02  0.12314097722E+02  0.12998835811E+01  0.18726461320E+02  0.00000000000E+00 0. -1.
         11    1    3    3    0    0 -0.24436991770E+02 -0.76359500550E+01 -0.99118042498E+01  0.27453928020E+02  0.51100000000E-03 0. -1.
        -11    1    3    3    0    0  0.34183602603E+01  0.14393987728E+02 -0.96782527035E+01  0.17678819113E+02  0.51100000000E-03 0.  1.
         12    1    3    3    0    0  0.69703699251E+01 -0.19072135395E+02  0.18290173372E+02  0.27328791546E+02  0.00000000000E+00 0. -1.
</event>
<event>
 7    1  0.3162486E-013  0.7246151E+02  0.7816164E-02  0.1226708E+00
        -11   -1    0    0    0    0  0.00000000000E+00  0.00000000000E+00  0.45593999997E+02  0.45594000000E+02  0.51100000000E-03 0. -1.
         11   -1    0    0    0    0 -0.00000000000E+00 -0.00000000000E+00 -0.45593999997E+02  0.45594000000E+02  0.51100000000E-03 0.  1.
    9900012    2    1    2    0    0  0.98843466018E+01 -0.15572911497E+02  0.32350501567E+01  0.72461509945E+02  0.69999921384E+02 0.  0.
         12    1    1    2    0    0 -0.98843466018E+01  0.15572911497E+02 -0.32350501567E+01  0.18726490055E+02  0.00000000000E+00 0. -1.
         11    1    3    3    0    0 -0.47774245763E+01 -0.63219218438E+01 -0.70608760110E+00  0.79554409899E+01  0.51100000000E-03 0. -1.
        -11    1    3    3    0    0  0.14705573758E+02 -0.34673865591E+02 -0.39914816883E+01  0.37874302381E+02  0.51100000000E-03 0.  1.
         12    1    3    3    0    0 -0.43802579902E-01  0.25422875937E+02  0.79326194461E+01  0.26631766574E+02  0.00000000000E+00 0. -1.
</event>
<event>
 7    1  0.3162486E-013  0.7246156E+02  0.7816164E-02  0.1226708E+00
        -11   -1    0    0    0    0  0.00000000000E+00  0.00000000000E+00  0.45593999997E+02  0.45594000000E+02  0.51100000000E-03 0.  1.
         11   -1    0    0    0    0 -0.00000000000E+00 -0.00000000000E+00 -0.45593999997E+02  0.45594000000E+02  0.51100000000E-03 0. -1.
    9900012    2    1    2    0    0 -0.10187484754E+02 -0.38765004264E+01  0.15227191968E+02  0.72461562101E+02  0.69999989327E+02 0.  0.
         12    1    1    2    0    0  0.10187484754E+02  0.38765004264E+01 -0.15227191968E+02  0.18726437899E+02  0.00000000000E+00 0. -1.
         11    1    3    3    0    0 -0.12535544412E+02 -0.16821063939E+02  0.63964043781E-01  0.20978373564E+02  0.51100000000E-03 0. -1.
        -11    1    3    3    0    0  0.18812859097E+02 -0.50571227537E+01  0.18493901311E+02  0.26861171678E+02  0.51100000000E-03 0.  1.
         12    1    3    3    0    0 -0.16464799439E+02  0.18001686266E+02 -0.33306733866E+01  0.24622016859E+02  0.00000000000E+00 0. -1.
</event>
<event>
 7    1  0.3162486E-013  0.7246140E+02  0.7816164E-02  0.1226708E+00
        -11   -1    0    0    0    0  0.00000000000E+00  0.00000000000E+00  0.45593999997E+02  0.45594000000E+02  0.51100000000E-03 0.  1.
         11   -1    0    0    0    0 -0.00000000000E+00 -0.00000000000E+00 -0.45593999997E+02  0.45594000000E+02  0.51100000000E-03 0. -1.
    9900012    2    1    2    0    0  0.17542708513E+02 -0.55423837552E+01 -0.34958634361E+01  0.72461395908E+02  0.69999772828E+02 0.  0.
         12    1    1    2    0    0 -0.17542708513E+02  0.55423837552E+01  0.34958634361E+01  0.18726604092E+02  0.00000000000E+00 0. -1.
         11    1    3    3    0    0  0.12166238140E+02 -0.11380538733E+02 -0.81513098484E+01  0.18546640257E+02  0.51100000000E-03 0. -1.
        -11    1    3    3    0    0  0.11321111520E+02 -0.21141743716E+02 -0.52782535828E+01  0.24556075716E+02  0.51100000000E-03 0.  1.
         12    1    3    3    0    0 -0.59446411465E+01  0.26979898694E+02  0.99336999952E+01  0.29358679934E+02  0.00000000000E+00 0. -1.
</event>
<event>
 7    1  0.3162486E-013  0.7246136E+02  0.7816164E-02  0.1226709E+00
        -11   -1    0    0    0    0  0.00000000000E+00  0.00000000000E+00  0.45593999997E+02  0.45594000000E+02  0.51100000000E-03 0. -1.
         11   -1    0    0    0    0 -0.00000000000E+00 -0.00000000000E+00 -0.45593999997E+02  0.45594000000E+02  0.51100000000E-03 0.  1.
    9900012    2    1    2    0    0 -0.46208483288E+01 -0.11774790243E+02 -0.13809022277E+02  0.72461360665E+02  0.69999726918E+02 0.  0.
         12    1    1    2    0    0  0.46208483288E+01  0.11774790243E+02  0.13809022277E+02  0.18726639335E+02  0.00000000000E+00 0. -1.
         11    1    3    3    0    0  0.71926981533E+01 -0.12936796488E+02  0.90855182850E+01  0.17367851130E+02  0.51100000000E-03 0. -1.
        -11    1    3    3    0    0 -0.25390955135E+02 -0.14609173529E+02 -0.13835813385E+02  0.32396886982E+02  0.51100000000E-03 0.  1.
         12    1    3    3    0    0  0.13577408653E+02  0.15771179774E+02 -0.90587271772E+01  0.22696622552E+02  0.00000000000E+00 0. -1.
</event>
<event>
 7    1  0.3162486E-013  0.7246152E+02  0.7816164E-02  0.1226708E+00
        -11   -1    0    0    0    0  0.00000000000E+00  0.00000000000E+00  0.45593999997E+02  0.45594000000E+02  0.51100000000E-03 0.  1.
         11   -1    0    0    0    0 -0.00000000000E+00 -0.00000000000E+00 -0.45593999997E+02  0.45594000000E+02  0.51100000000E-03 0. -1.
    9900012    2    1    2    0    0 -0.52456912839E+01 -0.42144468301E+01  0.17475757412E+02  0.72461523123E+02  0.69999938550E+02 0.  0.
         12    1    1    2    0    0  0.52456912839E+01  0.42144468301E+01 -0.17475757412E+02  0.18726476877E+02  0.00000000000E+00 0. -1.
         11    1    3    3    0    0 -0.19658056201E+02  0.11631435496E+02  0.11346989343E+02  0.25504580622E+02  0.51100000000E-03 0. -1.
        -11    1    3    3    0    0 -0.83443937359E+00 -0.24757306545E+02  0.13038438680E+02  0.27993238468E+02  0.51100000000E-03 0.  1.
         12    1    3    3    0    0  0.15246804291E+02  0.89114242196E+01 -0.69096706105E+01  0.18963704033E+02  0.00000000000E+00 0. -1.
</event>
<event>
 7    1  0.3162486E-013  0.7246153E+02  0.7816164E-02  0.1226708E+00
        -11   -1    0    0    0    0  0.00000000000E+00  0.00000000000E+00  0.45593999997E+02  0.45594000000E+02  0.51100000000E-03 0.  1.
         11   -1    0    0    0    0 -0.00000000000E+00 -0.00000000000E+00 -0.45593999997E+02  0.45594000000E+02  0.51100000000E-03 0. -1.
    9900012    2    1    2    0    0 -0.13672775431E+02 -0.41290486101E+01  0.12111429977E+02  0.72461532994E+02  0.69999951410E+02 0.  0.
         12    1    1    2    0    0  0.13672775431E+02  0.41290486101E+01 -0.12111429977E+02  0.18726467006E+02  0.00000000000E+00 0. -1.
         11    1    3    3    0    0  0.58542567516E+01  0.22316754241E+02  0.15415124181E+02  0.27747718749E+02  0.51100000000E-03 0. -1.
        -11    1    3    3    0    0 -0.29937118167E+00  0.26963470212E+01  0.76542943200E+01  0.81208455324E+01  0.51100000000E-03 0.  1.
         12    1    3    3    0    0 -0.19227661001E+02 -0.29142149872E+02 -0.10957988524E+02  0.36592968713E+02  0.00000000000E+00 0. -1.
</event>
<event>
 7    1  0.3162486E-013  0.7246156E+02  0.7816164E-02  0.1226708E+00
        -11   -1    0    0    0    0  0.00000000000E+00  0.00000000000E+00  0.45593999997E+02  0.45594000000E+02  0.51100000000E-03 0.  1.
         11   -1    0    0    0    0 -0.00000000000E+00 -0.00000000000E+00 -0.45593999997E+02  0.45594000000E+02  0.51100000000E-03 0. -1.
    9900012    2    1    2    0    0  0.70186341060E+01  0.12306508014E+02  0.12246149838E+02  0.72461560134E+02  0.69999986764E+02 0.  0.
         12    1    1    2    0    0 -0.70186341060E+01 -0.12306508014E+02 -0.12246149838E+02  0.18726439866E+02  0.00000000000E+00 0. -1.
         11    1    3    3    0    0  0.74938576159E+01  0.35894596438E+02  0.10052402712E+02  0.38021451261E+02  0.51100000000E-03 0. -1.
        -11    1    3    3    0    0  0.11764335546E+01  0.52950882697E+01 -0.31502700045E-01  0.54242924307E+01  0.51100000000E-03 0.  1.
         12    1    3    3    0    0 -0.16516570645E+01 -0.28883176694E+02  0.22252498264E+01  0.29015816442E+02  0.00000000000E+00 0. -1.
</event>
<event>
 7    1  0.3162486E-013  0.7246157E+02  0.7816164E-02  0.1226708E+00
        -11   -1    0    0    0    0  0.00000000000E+00  0.00000000000E+00  0.45593999997E+02  0.45594000000E+02  0.51100000000E-03 0. -1.
         11   -1    0    0    0    0 -0.00000000000E+00 -0.00000000000E+00 -0.45593999997E+02  0.45594000000E+02  0.51100000000E-03 0.  1.
    9900012    2    1    2    0    0 -0.15851874836E+02 -0.84650811242E+01  0.52668401790E+01  0.72461571090E+02  0.70000001036E+02 0.  0.
         12    1    1    2    0    0  0.15851874836E+02  0.84650811242E+01 -0.52668401790E+01  0.18726428910E+02  0.00000000000E+00 0. -1.
         11    1    3    3    0    0  0.19603351063E+02  0.69312806436E+01 -0.57548857910E+01  0.21574353640E+02  0.51100000000E-03 0. -1.
        -11    1    3    3    0    0 -0.11421187409E+02  0.24671161623E+01 -0.90992073885E+01  0.14809650886E+02  0.51100000000E-03 0.  1.
        -12    1    3    3    0    0 -0.24034038491E+02 -0.17863477930E+02  0.20120933359E+02  0.36077566563E+02  0.00000000000E+00 0.  1.
</event>
<event>
 7    1  0.3162486E-013  0.7246157E+02  0.7816164E-02  0.1226708E+00
        -11   -1    0    0    0    0  0.00000000000E+00  0.00000000000E+00  0.45593999997E+02  0.45594000000E+02  0.51100000000E-03 0.  1.
         11   -1    0    0    0    0 -0.00000000000E+00 -0.00000000000E+00 -0.45593999997E+02  0.45594000000E+02  0.51100000000E-03 0. -1.
    9900012    2    1    2    0    0 -0.24584861108E+01  0.16690745709E+02  0.81273636270E+01  0.72461569860E+02  0.69999999434E+02 0.  0.
         12    1    1    2    0    0  0.24584861108E+01 -0.16690745709E+02 -0.81273636270E+01  0.18726430140E+02  0.00000000000E+00 0. -1.
         11    1    3    3    0    0  0.34554896676E+01  0.91146648893E+01  0.14408920844E+01  0.98536133041E+01  0.51100000000E-03 0. -1.
        -11    1    3    3    0    0 -0.79485029584E+01  0.15955034460E+02  0.31579987434E+02  0.36263444824E+02  0.51100000000E-03 0.  1.
         12    1    3    3    0    0  0.20345271800E+01 -0.83789536401E+01 -0.24893515891E+02  0.26344511732E+02  0.00000000000E+00 0. -1.
</event>
<event>
 7    1  0.3162486E-013  0.7246154E+02  0.7816164E-02  0.1226708E+00
        -11   -1    0    0    0    0  0.00000000000E+00  0.00000000000E+00  0.45593999997E+02  0.45594000000E+02  0.51100000000E-03 0. -1.
         11   -1    0    0    0    0 -0.00000000000E+00 -0.00000000000E+00 -0.45593999997E+02  0.45594000000E+02  0.51100000000E-03 0.  1.
    9900012    2    1    2    0    0 -0.18238771203E+02  0.32765856777E+01 -0.27002896010E+01  0.72461538705E+02  0.69999958850E+02 0.  0.
         12    1    1    2    0    0  0.18238771203E+02 -0.32765856777E+01  0.27002896010E+01  0.18726461295E+02  0.00000000000E+00 0. -1.
         11    1    3    3    0    0  0.12060244887E+02  0.12257847411E+02  0.27714361683E-01  0.17196077990E+02  0.51100000000E-03 0. -1.
        -11    1    3    3    0    0 -0.12449481811E+02 -0.27044503519E+02 -0.23965154942E+01  0.29868680164E+02  0.51100000000E-03 0.  1.
         12    1    3    3    0    0 -0.17849534278E+02  0.18063241786E+02 -0.33148846845E+00  0.25396780552E+02  0.00000000000E+00 0. -1.
</event>
<event>
 7    1  0.3162486E-013  0.7246153E+02  0.7816164E-02  0.1226708E+00
        -11   -1    0    0    0    0  0.00000000000E+00  0.00000000000E+00  0.45593999997E+02  0.45594000000E+02  0.51100000000E-03 0.  1.
         11   -1    0    0    0    0 -0.00000000000E+00 -0.00000000000E+00 -0.45593999997E+02  0.45594000000E+02  0.51100000000E-03 0. -1.
    9900012    2    1    2    0    0  0.15787841409E+02  0.87242001045E+01  0.50312174005E+01  0.72461528033E+02  0.69999944946E+02 0.  0.
         12    1    1    2    0    0 -0.15787841409E+02 -0.87242001045E+01 -0.50312174005E+01  0.18726471967E+02  0.00000000000E+00 0. -1.
         11    1    3    3    0    0  0.23005463149E+02  0.24271520044E+02 -0.66844937989E+01  0.34103379269E+02  0.51100000000E-03 0. -1.
        -11    1    3    3    0    0 -0.14148137532E+01 -0.17280972571E+02 -0.69912921994E+01  0.18695236769E+02  0.51100000000E-03 0.  1.
        -12    1    3    3    0    0 -0.58028079869E+01  0.17336526318E+01  0.18707003399E+02  0.19662911996E+02  0.00000000000E+00 0.  1.
</event>
<event>
 7    1  0.3162486E-013  0.7246154E+02  0.7816164E-02  0.1226708E+00
        -11   -1    0    0    0    0  0.00000000000E+00  0.00000000000E+00  0.45593999997E+02  0.45594000000E+02  0.51100000000E-03 0. -1.
         11   -1    0    0    0    0 -0.00000000000E+00 -0.00000000000E+00 -0.45593999997E+02  0.45594000000E+02  0.51100000000E-03 0.  1.
    9900012    2    1    2    0    0  0.27737898822E+01 -0.13244293741E+02  0.12945084375E+02  0.72461536466E+02  0.69999955932E+02 0.  0.
         12    1    1    2    0    0 -0.27737898822E+01  0.13244293741E+02 -0.12945084375E+02  0.18726463534E+02  0.00000000000E+00 0. -1.
         11    1    3    3    0    0  0.85958182315E+01  0.20043120505E+02 -0.11287033602E+02  0.24556300585E+02  0.51100000000E-03 0. -1.
        -11    1    3    3    0    0  0.43063799883E+01  0.16569266316E+01  0.48013232682E+01  0.66590554775E+01  0.51100000000E-03 0.  1.
        -12    1    3    3    0    0 -0.10128408338E+02 -0.34944340878E+02  0.19430794708E+02  0.41246180403E+02  0.00000000000E+00 0.  1.
</event>
<event>
 7    1  0.3162486E-013  0.7246158E+02  0.7816164E-02  0.1226708E+00
        -11   -1    0    0    0    0  0.00000000000E+00  0.00000000000E+00  0.45593999997E+02  0.45594000000E+02  0.51100000000E-03 0.  1.
         11   -1    0    0    0    0 -0.00000000000E+00 -0.00000000000E+00 -0.45593999997E+02  0.45594000000E+02  0.51100000000E-03 0. -1.
    9900012    2    1    2    0    0  0.96259265140E+01 -0.35862938255E+01  0.15657551331E+02  0.72461578069E+02  0.70000010128E+02 0.  0.
         12    1    1    2    0    0 -0.96259265140E+01  0.35862938255E+01 -0.15657551331E+02  0.18726421931E+02  0.00000000000E+00 0. -1.
         11    1    3    3    0    0  0.71858166976E+00 -0.27474091936E+02  0.19923485938E+02  0.33945358733E+02  0.51100000000E-03 0. -1.
        -11    1    3    3    0    0 -0.56987541010E+01  0.11578032237E+02  0.85803658809E+01  0.15496751521E+02  0.51100000000E-03 0.  1.
        -12    1    3    3    0    0  0.14606098945E+02  0.12309765874E+02 -0.12846300488E+02  0.23019467815E+02  0.00000000000E+00 0.  1.
</event>
<event>
 7    1  0.3162486E-013  0.7246158E+02  0.7816164E-02  0.1226708E+00
        -11   -1    0    0    0    0  0.00000000000E+00  0.00000000000E+00  0.45593999997E+02  0.45594000000E+02  0.51100000000E-03 0.  1.
         11   -1    0    0    0    0 -0.00000000000E+00 -0.00000000000E+00 -0.45593999997E+02  0.45594000000E+02  0.51100000000E-03 0. -1.
    9900012    2    1    2    0    0 -0.16381909846E+02 -0.51730813532E+01 -0.74532498283E+01  0.72461583528E+02  0.70000017239E+02 0.  0.
         12    1    1    2    0    0  0.16381909846E+02  0.51730813532E+01  0.74532498283E+01  0.18726416472E+02  0.00000000000E+00 0. -1.
         11    1    3    3    0    0 -0.15455353186E+02  0.16581100565E+02 -0.11531945313E+02  0.25431999548E+02  0.51100000000E-03 0. -1.
        -11    1    3    3    0    0  0.13356539976E+02 -0.14473344226E+02 -0.13005512674E+02  0.23601233302E+02  0.51100000000E-03 0.  1.
         12    1    3    3    0    0 -0.14283096636E+02 -0.72808376924E+01  0.17084208159E+02  0.23428350677E+02  0.00000000000E+00 0. -1.
</event>
<event>
 7    1  0.3162486E-013  0.7246154E+02  0.7816164E-02  0.1226708E+00
        -11   -1    0    0    0    0  0.00000000000E+00  0.00000000000E+00  0.45593999997E+02  0.45594000000E+02  0.51100000000E-03 0.  1.
         11   -1    0    0    0    0 -0.00000000000E+00 -0.00000000000E+00 -0.45593999997E+02  0.45594000000E+02  0.51100000000E-03 0. -1.
    9900012    2    1    2    0    0 -0.12999714564E+02  0.43872967531E+01  0.12745176602E+02  0.72461535353E+02  0.69999954483E+02 0.  0.
         12    1    1    2    0    0  0.12999714564E+02 -0.43872967531E+01 -0.12745176602E+02  0.18726464647E+02  0.00000000000E+00 0. -1.
         11    1    3    3    0    0  0.76004462880E+01 -0.10859741029E+02  0.54203522779E+01  0.14320648661E+02  0.51100000000E-03 0. -1.
        -11    1    3    3    0    0  0.98746217166E+01 -0.81701383502E+01  0.14166802341E+02  0.19103863576E+02  0.51100000000E-03 0.  1.
         12    1    3    3    0    0 -0.30474782569E+02  0.23417176132E+02 -0.68419780165E+01  0.39037023116E+02  0.00000000000E+00 0. -1.
</event>
<event>
 7    1  0.3162486E-013  0.7246145E+02  0.7816164E-02  0.1226708E+00
        -11   -1    0    0    0    0  0.00000000000E+00  0.00000000000E+00  0.45593999997E+02  0.45594000000E+02  0.51100000000E-03 0. -1.
         11   -1    0    0    0    0 -0.00000000000E+00 -0.00000000000E+00 -0.45593999997E+02  0.45594000000E+02  0.51100000000E-03 0.  1.
    9900012    2    1    2    0    0  0.10672883878E+02 -0.15175646651E+02 -0.25442197664E+01  0.72461447841E+02  0.69999840481E+02 0.  0.
         12    1    1    2    0    0 -0.10672883878E+02  0.15175646651E+02  0.25442197664E+01  0.18726552159E+02  0.00000000000E+00 0. -1.
         11    1    3    3    0    0 -0.16214274591E+02 -0.34489729100E+01  0.15738752781E+00  0.16577782896E+02  0.51100000000E-03 0. -1.
        -11    1    3    3    0    0  0.67286675911E+01  0.53022303135E+01  0.19563601908E+02  0.21357039442E+02  0.51100000000E-03 0.  1.
        -12    1    3    3    0    0  0.20158490879E+02 -0.17028904054E+02 -0.22265209202E+02  0.34526625503E+02  0.00000000000E+00 0.  1.
</event>
<event>
 7    1  0.3162486E-013  0.7246108E+02  0.7816164E-02  0.1226709E+00
        -11   -1    0    0    0    0  0.00000000000E+00  0.00000000000E+00  0.45593999997E+02  0.45594000000E+02  0.51100000000E-03 0. -1.
         11   -1    0    0    0    0 -0.00000000000E+00 -0.00000000000E+00 -0.45593999997E+02  0.45594000000E+02  0.51100000000E-03 0.  1.
    9900012    2    1    2    0    0 -0.85699893218E+01 -0.83750565132E+01 -0.14391357620E+02  0.72461081868E+02  0.69999363731E+02 0.  0.
         12    1    1    2    0    0  0.85699893218E+01  0.83750565132E+01  0.14391357620E+02  0.18726918132E+02  0.00000000000E+00 0. -1.
         11    1    3    3    0    0 -0.30533087248E+01  0.89359542589E+01  0.16592291026E+02  0.19091309396E+02  0.51100000000E-03 0. -1.
        -11    1    3    3    0    0  0.11740094020E+02  0.10666419725E+01  0.18937784346E+01  0.11939595040E+02  0.51100000000E-03 0.  1.
        -12    1    3    3    0    0 -0.17256774617E+02 -0.18377652745E+02 -0.32877427081E+02  0.41430177432E+02  0.00000000000E+00 0.  1.
</event>
<event>
 7    1  0.3162486E-013  0.7246155E+02  0.7816164E-02  0.1226708E+00
        -11   -1    0    0    0    0  0.00000000000E+00  0.00000000000E+00  0.45593999997E+02  0.45594000000E+02  0.51100000000E-03 0. -1.
         11   -1    0    0    0    0 -0.00000000000E+00 -0.00000000000E+00 -0.45593999997E+02  0.45594000000E+02  0.51100000000E-03 0.  1.
    9900012    2    1    2    0    0  0.15694858352E+02 -0.92491070479E+01  0.43365157188E+01  0.72461550031E+02  0.69999973603E+02 0.  0.
         12    1    1    2    0    0 -0.15694858352E+02  0.92491070479E+01 -0.43365157188E+01  0.18726449969E+02  0.00000000000E+00 0. -1.
         11    1    3    3    0    0  0.15354435633E+02  0.36409668598E+01  0.19699734947E+02  0.25240738708E+02  0.51100000000E-03 0. -1.
        -11    1    3    3    0    0  0.15342742662E+02 -0.20316661403E+02 -0.15302915439E+01  0.25505063722E+02  0.51100000000E-03 0.  1.
         12    1    3    3    0    0 -0.15002319943E+02  0.74265874956E+01 -0.13832927685E+02  0.21715747600E+02  0.00000000000E+00 0. -1.
</event>
<event>
 7    1  0.3162486E-013  0.7246156E+02  0.7816164E-02  0.1226708E+00
        -11   -1    0    0    0    0  0.00000000000E+00  0.00000000000E+00  0.45593999997E+02  0.45594000000E+02  0.51100000000E-03 0.  1.
         11   -1    0    0    0    0 -0.00000000000E+00 -0.00000000000E+00 -0.45593999997E+02  0.45594000000E+02  0.51100000000E-03 0. -1.
    9900012    2    1    2    0    0 -0.12927037534E+02  0.90512395778E+01  0.10081986551E+02  0.72461556395E+02  0.69999981893E+02 0.  0.
         12    1    1    2    0    0  0.12927037534E+02 -0.90512395778E+01 -0.10081986551E+02  0.18726443605E+02  0.00000000000E+00 0. -1.
         11    1    3    3    0    0  0.97063434212E+01  0.60551153388E+01 -0.16267238552E+01  0.11555247948E+02  0.51100000000E-03 0.  1.
        -11    1    3    3    0    0 -0.55997590160E+01 -0.26478907596E+01 -0.21926035663E+02  0.22784197740E+02  0.51100000000E-03 0. -1.
        -12    1    3    3    0    0 -0.17033621939E+02  0.56440149986E+01  0.33634746069E+02  0.38122110707E+02  0.00000000000E+00 0.  1.
</event>
<event>
 7    1  0.3162486E-013  0.7246171E+02  0.7816164E-02  0.1226708E+00
        -11   -1    0    0    0    0  0.00000000000E+00  0.00000000000E+00  0.45593999997E+02  0.45594000000E+02  0.51100000000E-03 0. -1.
         11   -1    0    0    0    0 -0.00000000000E+00 -0.00000000000E+00 -0.45593999997E+02  0.45594000000E+02  0.51100000000E-03 0.  1.
    9900012    2    1    2    0    0  0.18322074098E+02 -0.29237356085E+01  0.25352073934E+01  0.72461710840E+02  0.70000183087E+02 0.  0.
         12    1    1    2    0    0 -0.18322074098E+02  0.29237356085E+01 -0.25352073934E+01  0.18726289160E+02  0.00000000000E+00 0. -1.
         11    1    3    3    0    0  0.15808911746E+02 -0.10720934297E+02  0.13707358760E+02  0.23510674325E+02  0.51100000000E-03 0.  1.
        -11    1    3    3    0    0  0.49567543204E+01 -0.92119872587E+01  0.14608905584E+02  0.17968033985E+02  0.51100000000E-03 0. -1.
        -12    1    3    3    0    0 -0.24435919679E+01  0.17009185947E+02 -0.25781056950E+02  0.30983002530E+02  0.00000000000E+00 0.  1.
</event>
<event>
 7    1  0.3162486E-013  0.7246154E+02  0.7816164E-02  0.1226708E+00
        -11   -1    0    0    0    0  0.00000000000E+00  0.00000000000E+00  0.45593999997E+02  0.45594000000E+02  0.51100000000E-03 0.  1.
         11   -1    0    0    0    0 -0.00000000000E+00 -0.00000000000E+00 -0.45593999997E+02  0.45594000000E+02  0.51100000000E-03 0. -1.
    9900012    2    1    2    0    0  0.26083062303E+01 -0.14569754186E+02  0.11471668790E+02  0.72461543227E+02  0.69999964740E+02 0.  0.
         12    1    1    2    0    0 -0.26083062303E+01  0.14569754186E+02 -0.11471668790E+02  0.18726456773E+02  0.00000000000E+00 0. -1.
         11    1    3    3    0    0  0.17474871372E+02 -0.36469651702E+02  0.44621345121E+01  0.40685590440E+02  0.51100000000E-03 0. -1.
        -11    1    3    3    0    0  0.10366715933E+01 -0.59872677869E+00  0.38639813190E+01  0.40451840061E+01  0.51100000000E-03 0.  1.
        -12    1    3    3    0    0 -0.15903236735E+02  0.22498624295E+02  0.31455529589E+01  0.27730768782E+02  0.00000000000E+00 0.  1.
</event>
<event>
 7    1  0.3162486E-013  0.7246158E+02  0.7816164E-02  0.1226708E+00
        -11   -1    0    0    0    0  0.00000000000E+00  0.00000000000E+00  0.45593999997E+02  0.45594000000E+02  0.51100000000E-03 0. -1.
         11   -1    0    0    0    0 -0.00000000000E+00 -0.00000000000E+00 -0.45593999997E+02  0.45594000000E+02  0.51100000000E-03 0.  1.
    9900012    2    1    2    0    0 -0.17330581540E+02  0.54512389251E+01 -0.45402244146E+01  0.72461582829E+02  0.70000016328E+02 0.  0.
         12    1    1    2    0    0  0.17330581540E+02 -0.54512389251E+01  0.45402244146E+01  0.18726417171E+02  0.00000000000E+00 0. -1.
         11    1    3    3    0    0 -0.12767304032E+02 -0.80838222625E+01  0.17567206618E+02  0.23172375434E+02  0.51100000000E-03 0. -1.
        -11    1    3    3    0    0 -0.12262858706E+02 -0.68587441699E+01  0.46280149412E+01  0.14793194307E+02  0.51100000000E-03 0.  1.
        -12    1    3    3    0    0  0.76995811977E+01  0.20393805357E+02 -0.26735445974E+02  0.34496013089E+02  0.00000000000E+00 0.  1.
</event>
<event>
 7    1  0.3162486E-013  0.7246157E+02  0.7816164E-02  0.1226708E+00
        -11   -1    0    0    0    0  0.00000000000E+00  0.00000000000E+00  0.45593999997E+02  0.45594000000E+02  0.51100000000E-03 0.  1.
         11   -1    0    0    0    0 -0.00000000000E+00 -0.00000000000E+00 -0.45593999997E+02  0.45594000000E+02  0.51100000000E-03 0. -1.
    9900012    2    1    2    0    0 -0.43204429386E+01  0.10574273731E+02  0.14839057854E+02  0.72461571347E+02  0.70000001371E+02 0.  0.
         12    1    1    2    0    0  0.43204429386E+01 -0.10574273731E+02 -0.14839057854E+02  0.18726428653E+02  0.00000000000E+00 0. -1.
         11    1    3    3    0    0  0.30819424233E+01 -0.20165869825E+02  0.13033467154E+02  0.24208096605E+02  0.51100000000E-03 0. -1.
        -11    1    3    3    0    0 -0.27720524319E+01 -0.62747016908E+01  0.78923323549E+01  0.10456819127E+02  0.51100000000E-03 0.  1.
        -12    1    3    3    0    0 -0.46303329300E+01  0.37014845247E+02 -0.60867416555E+01  0.37796655615E+02  0.00000000000E+00 0.  1.
</event>
<event>
 7    1  0.3162486E-013  0.7246172E+02  0.7816164E-02  0.1226708E+00
        -11   -1    0    0    0    0  0.00000000000E+00  0.00000000000E+00  0.45593999997E+02  0.45594000000E+02  0.51100000000E-03 0. -1.
         11   -1    0    0    0    0 -0.00000000000E+00 -0.00000000000E+00 -0.45593999997E+02  0.45594000000E+02  0.51100000000E-03 0.  1.
    9900012    2    1    2    0    0  0.11563499139E+02 -0.14201292666E+02 -0.39092810209E+01  0.72461716230E+02  0.70000190108E+02 0.  0.
         12    1    1    2    0    0 -0.11563499139E+02  0.14201292666E+02  0.39092810209E+01  0.18726283770E+02  0.00000000000E+00 0. -1.
         11    1    3    3    0    0 -0.35199960648E+01  0.14773675726E+02  0.17339818990E+02  0.23050405411E+02  0.51100000000E-03 0. -1.
        -11    1    3    3    0    0 -0.65792407663E+01 -0.43171173008E+00  0.17636385864E+01  0.68251890379E+01  0.51100000000E-03 0.  1.
        -12    1    3    3    0    0  0.21662735970E+02 -0.28543256662E+02 -0.23012738597E+02  0.42586121781E+02  0.00000000000E+00 0.  1.
</event>
<event>
 7    1  0.3162486E-013  0.7246156E+02  0.7816164E-02  0.1226708E+00
        -11   -1    0    0    0    0  0.00000000000E+00  0.00000000000E+00  0.45593999997E+02  0.45594000000E+02  0.51100000000E-03 0. -1.
         11   -1    0    0    0    0 -0.00000000000E+00 -0.00000000000E+00 -0.45593999997E+02  0.45594000000E+02  0.51100000000E-03 0.  1.
    9900012    2    1    2    0    0  0.60374541455E+01  0.61705941510E+01 -0.16617831910E+02  0.72461563550E+02  0.69999991214E+02 0.  0.
         12    1    1    2    0    0 -0.60374541455E+01 -0.61705941510E+01  0.16617831910E+02  0.18726436450E+02  0.00000000000E+00 0. -1.
         11    1    3    3    0    0 -0.48099336339E+01 -0.21775957248E+01  0.88058695296E+01  0.10267459430E+02  0.51100000000E-03 0. -1.
        -11    1    3    3    0    0  0.94436967410E+01  0.31846504849E+02 -0.14565270468E+02  0.36270241015E+02  0.51100000000E-03 0.  1.
         12    1    3    3    0    0  0.14036910384E+01 -0.23498314973E+02 -0.10858430972E+02  0.25923863105E+02  0.00000000000E+00 0. -1.
</event>
<event>
 7    1  0.3162486E-013  0.7246154E+02  0.7816164E-02  0.1226708E+00
        -11   -1    0    0    0    0  0.00000000000E+00  0.00000000000E+00  0.45593999997E+02  0.45594000000E+02  0.51100000000E-03 0.  1.
         11   -1    0    0    0    0 -0.00000000000E+00 -0.00000000000E+00 -0.45593999997E+02  0.45594000000E+02  0.51100000000E-03 0. -1.
    9900012    2    1    2    0    0 -0.15273079567E+02  0.66704477915E+01  0.85392361537E+01  0.72461537780E+02  0.69999957644E+02 0.  0.
         12    1    1    2    0    0  0.15273079567E+02 -0.66704477915E+01 -0.85392361537E+01  0.18726462220E+02  0.00000000000E+00 0. -1.
         11    1    3    3    0    0 -0.15642396770E+01  0.76891329958E-01  0.12875984426E+02  0.12970880203E+02  0.51100000000E-03 0. -1.
        -11    1    3    3    0    0  0.13809859388E+02 -0.41603520323E+01  0.17554072202E+02  0.22719291285E+02  0.51100000000E-03 0.  1.
         12    1    3    3    0    0 -0.27518699279E+02  0.10753908494E+02 -0.21890820474E+02  0.36771366291E+02  0.00000000000E+00 0. -1.
</event>
<event>
 7    1  0.3162486E-013  0.7246163E+02  0.7816164E-02  0.1226708E+00
        -11   -1    0    0    0    0  0.00000000000E+00  0.00000000000E+00  0.45593999997E+02  0.45594000000E+02  0.51100000000E-03 0. -1.
         11   -1    0    0    0    0 -0.00000000000E+00 -0.00000000000E+00 -0.45593999997E+02  0.45594000000E+02  0.51100000000E-03 0.  1.
    9900012    2    1    2    0    0  0.35837768547E+01  0.18183325158E+02  0.26833023169E+01  0.72461631380E+02  0.70000079576E+02 0.  0.
         12    1    1    2    0    0 -0.35837768547E+01 -0.18183325158E+02 -0.26833023169E+01  0.18726368620E+02  0.00000000000E+00 0. -1.
         11    1    3    3    0    0 -0.12971733674E+02 -0.15879124434E+02  0.53928791517E+01  0.21201311590E+02  0.51100000000E-03 0. -1.
        -11    1    3    3    0    0  0.14792322801E+02 -0.21262187575E+01 -0.13109178368E+01  0.15001737429E+02  0.51100000000E-03 0.  1.
        -12    1    3    3    0    0  0.17631877280E+01  0.36188668350E+02 -0.13986589981E+01  0.36258582362E+02  0.00000000000E+00 0.  1.
</event>
<event>
 7    1  0.3162486E-013  0.7246149E+02  0.7816164E-02  0.1226708E+00
        -11   -1    0    0    0    0  0.00000000000E+00  0.00000000000E+00  0.45593999997E+02  0.45594000000E+02  0.51100000000E-03 0. -1.
         11   -1    0    0    0    0 -0.00000000000E+00 -0.00000000000E+00 -0.45593999997E+02  0.45594000000E+02  0.51100000000E-03 0.  1.
    9900012    2    1    2    0    0  0.14345025080E+02  0.10327915566E+02  0.61835747223E+01  0.72461489892E+02  0.69999895261E+02 0.  0.
         12    1    1    2    0    0 -0.14345025080E+02 -0.10327915566E+02 -0.61835747223E+01  0.18726510108E+02  0.00000000000E+00 0. -1.
         11    1    3    3    0    0  0.29130442047E+02 -0.18352118506E+01 -0.37152427746E+01  0.29423692588E+02  0.51100000000E-03 0. -1.
        -11    1    3    3    0    0  0.16193127559E+01  0.20158749952E+02 -0.33325332662E+01  0.20496418020E+02  0.51100000000E-03 0.  1.
        -12    1    3    3    0    0 -0.16404729723E+02 -0.79956225346E+01  0.13231350763E+02  0.22541379284E+02  0.00000000000E+00 0.  1.
</event>
<event>
 7    1  0.3162486E-013  0.7246165E+02  0.7816164E-02  0.1226708E+00
        -11   -1    0    0    0    0  0.00000000000E+00  0.00000000000E+00  0.45593999997E+02  0.45594000000E+02  0.51100000000E-03 0.  1.
         11   -1    0    0    0    0 -0.00000000000E+00 -0.00000000000E+00 -0.45593999997E+02  0.45594000000E+02  0.51100000000E-03 0. -1.
    9900012    2    1    2    0    0 -0.14466690070E+00  0.18434391280E+02  0.32906909475E+01  0.72461645382E+02  0.70000097815E+02 0.  0.
         12    1    1    2    0    0  0.14466690070E+00 -0.18434391280E+02 -0.32906909475E+01  0.18726354618E+02  0.00000000000E+00 0. -1.
         11    1    3    3    0    0 -0.12243230845E+02 -0.49627595435E+01  0.69024484428E+01  0.14905350670E+02  0.51100000000E-03 0. -1.
        -11    1    3    3    0    0  0.25124196329E+02 -0.16847725895E+00  0.10412586360E+02  0.27196977419E+02  0.51100000000E-03 0.  1.
         12    1    3    3    0    0 -0.13025632384E+02  0.23565628083E+02 -0.14024343855E+02  0.30359317293E+02  0.00000000000E+00 0. -1.
</event>
<event>
 7    1  0.3162486E-013  0.7246146E+02  0.7816164E-02  0.1226708E+00
        -11   -1    0    0    0    0  0.00000000000E+00  0.00000000000E+00  0.45593999997E+02  0.45594000000E+02  0.51100000000E-03 0.  1.
         11   -1    0    0    0    0 -0.00000000000E+00 -0.00000000000E+00 -0.45593999997E+02  0.45594000000E+02  0.51100000000E-03 0. -1.
    9900012    2    1    2    0    0  0.99560774858E+01 -0.10852336036E+02  0.11566616948E+02  0.72461459904E+02  0.69999856196E+02 0.  0.
         12    1    1    2    0    0 -0.99560774858E+01  0.10852336036E+02 -0.11566616948E+02  0.18726540096E+02  0.00000000000E+00 0. -1.
         11    1    3    3    0    0 -0.15554777030E+02 -0.40784484205E+01 -0.14991073601E+02  0.21984474476E+02  0.51100000000E-03 0. -1.
        -11    1    3    3    0    0  0.26823360113E+02 -0.54415481524E+01  0.37880233925E+01  0.27630639072E+02  0.51100000000E-03 0.  1.
        -12    1    3    3    0    0 -0.13125055965E+01 -0.13323394633E+01  0.22769667157E+02  0.22846346356E+02  0.00000000000E+00 0.  1.
</event>
<event>
 7    1  0.3162486E-013  0.7246158E+02  0.7816164E-02  0.1226708E+00
        -11   -1    0    0    0    0  0.00000000000E+00  0.00000000000E+00  0.45593999997E+02  0.45594000000E+02  0.51100000000E-03 0.  1.
         11   -1    0    0    0    0 -0.00000000000E+00 -0.00000000000E+00 -0.45593999997E+02  0.45594000000E+02  0.51100000000E-03 0. -1.
    9900012    2    1    2    0    0 -0.20322741556E+01  0.16036417250E+01  0.18546620252E+02  0.72461576748E+02  0.70000008407E+02 0.  0.
         12    1    1    2    0    0  0.20322741556E+01 -0.16036417250E+01 -0.18546620252E+02  0.18726423252E+02  0.00000000000E+00 0. -1.
         11    1    3    3    0    0 -0.21750355671E+02 -0.65058183422E+00 -0.11456393124E+00  0.21760384962E+02  0.51100000000E-03 0. -1.
        -11    1    3    3    0    0 -0.65341474378E+00 -0.37898755527E+01  0.27441293229E+02  0.27709469173E+02  0.51100000000E-03 0.  1.
        -12    1    3    3    0    0  0.20371496259E+02  0.60440991119E+01 -0.87801090451E+01  0.22991722614E+02  0.00000000000E+00 0.  1.
</event>
<event>
 7    1  0.3162486E-013  0.7246167E+02  0.7816164E-02  0.1226708E+00
        -11   -1    0    0    0    0  0.00000000000E+00  0.00000000000E+00  0.45593999997E+02  0.45594000000E+02  0.51100000000E-03 0. -1.
         11   -1    0    0    0    0 -0.00000000000E+00 -0.00000000000E+00 -0.45593999997E+02  0.45594000000E+02  0.51100000000E-03 0.  1.
    9900012    2    1    2    0    0  0.12618710704E+02  0.13690537701E+02  0.20031526179E+01  0.72461673537E+02  0.70000134493E+02 0.  0.
         12    1    1    2    0    0 -0.12618710704E+02 -0.13690537701E+02 -0.20031526179E+01  0.18726326463E+02  0.00000000000E+00 0. -1.
         11    1    3    3    0    0  0.69896312527E+01 -0.47457205810E+01 -0.15847122876E+02  0.17958510868E+02  0.51100000000E-03 0. -1.
        -11    1    3    3    0    0 -0.11326176816E+02 -0.11588023299E+02  0.10314980918E+02  0.19208419946E+02  0.51100000000E-03 0.  1.
        -12    1    3    3    0    0  0.16955256267E+02  0.30024281581E+02  0.75352945767E+01  0.35294742723E+02  0.00000000000E+00 0.  1.
</event>
<event>
 7    1  0.3162486E-013  0.7246157E+02  0.7816164E-02  0.1226708E+00
        -11   -1    0    0    0    0  0.00000000000E+00  0.00000000000E+00  0.45593999997E+02  0.45594000000E+02  0.51100000000E-03 0.  1.
         11   -1    0    0    0    0 -0.00000000000E+00 -0.00000000000E+00 -0.45593999997E+02  0.45594000000E+02  0.51100000000E-03 0. -1.
    9900012    2    1    2    0    0  0.90732819531E+01  0.16418381908E+01  0.16299050849E+02  0.72461571173E+02  0.70000001145E+02 0.  0.
         12    1    1    2    0    0 -0.90732819531E+01 -0.16418381908E+01 -0.16299050849E+02  0.18726428827E+02  0.00000000000E+00 0. -1.
         11    1    3    3    0    0 -0.38978420120E+01  0.17105438250E+01  0.11073663883E+02  0.11863606727E+02  0.51100000000E-03 0. -1.
        -11    1    3    3    0    0 -0.17635939194E+02 -0.44366862106E+01  0.19396102800E+02  0.26587954789E+02  0.51100000000E-03 0.  1.
         12    1    3    3    0    0  0.30607063159E+02  0.43679805763E+01 -0.14170715835E+02  0.34010009656E+02  0.00000000000E+00 0. -1.
</event>
<event>
 7    1  0.3162486E-013  0.7246159E+02  0.7816164E-02  0.1226708E+00
        -11   -1    0    0    0    0  0.00000000000E+00  0.00000000000E+00  0.45593999997E+02  0.45594000000E+02  0.51100000000E-03 0.  1.
         11   -1    0    0    0    0 -0.00000000000E+00 -0.00000000000E+00 -0.45593999997E+02  0.45594000000E+02  0.51100000000E-03 0. -1.
    9900012    2    1    2    0    0 -0.44665673686E+01 -0.10647004715E+01  0.18154743644E+02  0.72461587425E+02  0.70000022316E+02 0.  0.
         12    1    1    2    0    0  0.44665673686E+01  0.10647004715E+01 -0.18154743644E+02  0.18726412575E+02  0.00000000000E+00 0. -1.
         11    1    3    3    0    0 -0.85592423157E+01  0.55618291010E+01  0.11582752465E+02  0.15438741105E+02  0.51100000000E-03 0. -1.
        -11    1    3    3    0    0 -0.65209895553E+01  0.17971914870E+02  0.19471667918E+02  0.27288438589E+02  0.51100000000E-03 0.  1.
         12    1    3    3    0    0  0.10613664502E+02 -0.24598444442E+02 -0.12899676739E+02  0.29734407731E+02  0.00000000000E+00 0. -1.
</event>
<event>
 7    1  0.3162486E-013  0.7246154E+02  0.7816164E-02  0.1226708E+00
        -11   -1    0    0    0    0  0.00000000000E+00  0.00000000000E+00  0.45593999997E+02  0.45594000000E+02  0.51100000000E-03 0.  1.
         11   -1    0    0    0    0 -0.00000000000E+00 -0.00000000000E+00 -0.45593999997E+02  0.45594000000E+02  0.51100000000E-03 0. -1.
    9900012    2    1    2    0    0  0.10947328737E+02  0.24428040451E+01  0.14995636720E+02  0.72461536940E+02  0.69999956550E+02 0.  0.
         12    1    1    2    0    0 -0.10947328737E+02 -0.24428040451E+01 -0.14995636720E+02  0.18726463060E+02  0.00000000000E+00 0. -1.
         11    1    3    3    0    0 -0.11316590231E+02  0.54534487751E+01  0.22771001889E+01  0.12766773419E+02  0.51100000000E-03 0. -1.
        -11    1    3    3    0    0  0.99697305358E+01  0.13288854936E+02  0.29107197766E+02  0.33514446952E+02  0.51100000000E-03 0.  1.
        -12    1    3    3    0    0  0.12294188433E+02 -0.16299499666E+02 -0.16388661235E+02  0.26180316569E+02  0.00000000000E+00 0.  1.
</event>
<event>
 7    1  0.3162486E-013  0.7246157E+02  0.7816164E-02  0.1226708E+00
        -11   -1    0    0    0    0  0.00000000000E+00  0.00000000000E+00  0.45593999997E+02  0.45594000000E+02  0.51100000000E-03 0. -1.
         11   -1    0    0    0    0 -0.00000000000E+00 -0.00000000000E+00 -0.45593999997E+02  0.45594000000E+02  0.51100000000E-03 0.  1.
    9900012    2    1    2    0    0  0.60054824149E+01 -0.89790781819E+01 -0.15296721632E+02  0.72461565296E+02  0.69999993489E+02 0.  0.
         12    1    1    2    0    0 -0.60054824149E+01  0.89790781819E+01  0.15296721632E+02  0.18726434704E+02  0.00000000000E+00 0. -1.
         11    1    3    3    0    0 -0.42602230678E-01 -0.88810227531E+00 -0.34335902703E+01  0.35468412717E+01  0.51100000000E-03 0. -1.
        -11    1    3    3    0    0 -0.65244621316E+00  0.12501100456E+02 -0.35032072333E+02  0.37201468934E+02  0.51100000000E-03 0.  1.
         12    1    3    3    0    0  0.67005308588E+01 -0.20592076362E+02  0.23168940971E+02  0.31713255090E+02  0.00000000000E+00 0. -1.
</event>
<event>
 7    1  0.3162486E-013  0.7246152E+02  0.7816164E-02  0.1226708E+00
        -11   -1    0    0    0    0  0.00000000000E+00  0.00000000000E+00  0.45593999997E+02  0.45594000000E+02  0.51100000000E-03 0. -1.
         11   -1    0    0    0    0 -0.00000000000E+00 -0.00000000000E+00 -0.45593999997E+02  0.45594000000E+02  0.51100000000E-03 0.  1.
    9900012    2    1    2    0    0 -0.11112248168E+02  0.10097346232E+02 -0.11191180438E+02  0.72461521957E+02  0.69999937032E+02 0.  0.
         12    1    1    2    0    0  0.11112248168E+02 -0.10097346232E+02  0.11191180438E+02  0.18726478043E+02  0.00000000000E+00 0. -1.
         11    1    3    3    0    0 -0.56421145818E+01 -0.39637549198E+01  0.54605781446E+01  0.87956082196E+01  0.51100000000E-03 0. -1.
        -11    1    3    3    0    0  0.19870118268E+02 -0.82925360934E+01  0.67483486660E+01  0.22563864137E+02  0.51100000000E-03 0.  1.
         12    1    3    3    0    0 -0.25340251854E+02  0.22353637245E+02 -0.23400107248E+02  0.41102049601E+02  0.00000000000E+00 0. -1.
</event>
<event>
 7    1  0.3162486E-013  0.7246158E+02  0.7816164E-02  0.1226708E+00
        -11   -1    0    0    0    0  0.00000000000E+00  0.00000000000E+00  0.45593999997E+02  0.45594000000E+02  0.51100000000E-03 0.  1.
         11   -1    0    0    0    0 -0.00000000000E+00 -0.00000000000E+00 -0.45593999997E+02  0.45594000000E+02  0.51100000000E-03 0. -1.
    9900012    2    1    2    0    0 -0.21244309825E+01  0.16463964785E+02  0.86662297123E+01  0.72461578001E+02  0.70000010040E+02 0.  0.
         12    1    1    2    0    0  0.21244309825E+01 -0.16463964785E+02 -0.86662297123E+01  0.18726421999E+02  0.00000000000E+00 0. -1.
         11    1    3    3    0    0 -0.55992279071E+00  0.94590977734E+01  0.77122639825E+01  0.12217489931E+02  0.51100000000E-03 0. -1.
        -11    1    3    3    0    0 -0.46374102680E+01 -0.18752591816E+02  0.20195369898E+02  0.27946703551E+02  0.51100000000E-03 0.  1.
         12    1    3    3    0    0  0.30729020763E+01  0.25757458828E+02 -0.19241404168E+02  0.32297384519E+02  0.00000000000E+00 0. -1.
</event>
<event>
 7    1  0.3162486E-013  0.7246150E+02  0.7816164E-02  0.1226708E+00
        -11   -1    0    0    0    0  0.00000000000E+00  0.00000000000E+00  0.45593999997E+02  0.45594000000E+02  0.51100000000E-03 0. -1.
         11   -1    0    0    0    0 -0.00000000000E+00 -0.00000000000E+00 -0.45593999997E+02  0.45594000000E+02  0.51100000000E-03 0.  1.
    9900012    2    1    2    0    0 -0.83874107450E+01 -0.32369148289E+01 -0.16427276302E+02  0.72461503175E+02  0.69999912565E+02 0.  0.
         12    1    1    2    0    0  0.83874107450E+01  0.32369148289E+01  0.16427276302E+02  0.18726496825E+02  0.00000000000E+00 0. -1.
         11    1    3    3    0    0 -0.11438290440E+02 -0.34737488492E+02 -0.14652993444E+02  0.39398449361E+02  0.51100000000E-03 0.  1.
        -11    1    3    3    0    0 -0.20375068092E+01  0.11237901879E+02 -0.38876074053E+01  0.12064632785E+02  0.51100000000E-03 0. -1.
        -12    1    3    3    0    0  0.50883865042E+01  0.20262671785E+02  0.21133245469E+01  0.20998421029E+02  0.00000000000E+00 0.  1.
</event>
<event>
 7    1  0.3162486E-013  0.7246154E+02  0.7816164E-02  0.1226708E+00
        -11   -1    0    0    0    0  0.00000000000E+00  0.00000000000E+00  0.45593999997E+02  0.45594000000E+02  0.51100000000E-03 0. -1.
         11   -1    0    0    0    0 -0.00000000000E+00 -0.00000000000E+00 -0.45593999997E+02  0.45594000000E+02  0.51100000000E-03 0.  1.
    9900012    2    1    2    0    0  0.71530050404E+01  0.58340651582E+01 -0.16293507451E+02  0.72461543249E+02  0.69999964768E+02 0.  0.
         12    1    1    2    0    0 -0.71530050404E+01 -0.58340651582E+01  0.16293507451E+02  0.18726456751E+02  0.00000000000E+00 0. -1.
         11    1    3    3    0    0  0.17519265145E+02 -0.24504962205E+01 -0.93649310241E+01  0.20015781681E+02  0.51100000000E-03 0.  1.
        -11    1    3    3    0    0  0.15102850205E+01  0.28222060515E+02 -0.12688956172E+00  0.28262727429E+02  0.51100000000E-03 0. -1.
        -12    1    3    3    0    0 -0.11876545126E+02 -0.19937499136E+02 -0.68016868656E+01  0.24183034138E+02  0.00000000000E+00 0.  1.
</event>
<event>
 7    1  0.3162486E-013  0.7246158E+02  0.7816164E-02  0.1226708E+00
        -11   -1    0    0    0    0  0.00000000000E+00  0.00000000000E+00  0.45593999997E+02  0.45594000000E+02  0.51100000000E-03 0. -1.
         11   -1    0    0    0    0 -0.00000000000E+00 -0.00000000000E+00 -0.45593999997E+02  0.45594000000E+02  0.51100000000E-03 0.  1.
    9900012    2    1    2    0    0 -0.65120253751E+01  0.17755881160E+01 -0.17467670767E+02  0.72461582573E+02  0.70000015995E+02 0.  0.
         12    1    1    2    0    0  0.65120253751E+01 -0.17755881160E+01  0.17467670767E+02  0.18726417427E+02  0.00000000000E+00 0. -1.
         11    1    3    3    0    0 -0.83347039863E+00  0.14142678081E+02  0.80374134035E+01  0.16288340329E+02  0.51100000000E-03 0. -1.
        -11    1    3    3    0    0 -0.17154940604E+02  0.13331780895E+02 -0.13470187360E+02  0.25563143718E+02  0.51100000000E-03 0.  1.
         12    1    3    3    0    0  0.11476385628E+02 -0.25698870860E+02 -0.12034896810E+02  0.30610098526E+02  0.00000000000E+00 0. -1.
</event>
<event>
 7    1  0.3162486E-013  0.7246167E+02  0.7816164E-02  0.1226708E+00
        -11   -1    0    0    0    0  0.00000000000E+00  0.00000000000E+00  0.45593999997E+02  0.45594000000E+02  0.51100000000E-03 0. -1.
         11   -1    0    0    0    0 -0.00000000000E+00 -0.00000000000E+00 -0.45593999997E+02  0.45594000000E+02  0.51100000000E-03 0.  1.
    9900012    2    1    2    0    0  0.17862745779E+02  0.82586643940E+00  0.55601907966E+01  0.72461669237E+02  0.70000128891E+02 0.  0.
         12    1    1    2    0    0 -0.17862745779E+02 -0.82586643940E+00 -0.55601907966E+01  0.18726330763E+02  0.00000000000E+00 0. -1.
         11    1    3    3    0    0  0.26929793624E+02  0.19873616550E+02 -0.19669965688E+01  0.33526757898E+02  0.51100000000E-03 0. -1.
        -11    1    3    3    0    0  0.85738466234E+01  0.17310527827E+01 -0.36461883330E+01  0.94763959013E+01  0.51100000000E-03 0.  1.
        -12    1    3    3    0    0 -0.17640894468E+02 -0.20778802893E+02  0.11173375698E+02  0.29458515438E+02  0.00000000000E+00 0.  1.
</event>
<event>
 7    1  0.3162486E-013  0.7246150E+02  0.7816164E-02  0.1226708E+00
        -11   -1    0    0    0    0  0.00000000000E+00  0.00000000000E+00  0.45593999997E+02  0.45594000000E+02  0.51100000000E-03 0.  1.
         11   -1    0    0    0    0 -0.00000000000E+00 -0.00000000000E+00 -0.45593999997E+02  0.45594000000E+02  0.51100000000E-03 0. -1.
    9900012    2    1    2    0    0 -0.11749423421E+02 -0.11871958068E+02  0.84669699314E+01  0.72461496885E+02  0.69999904371E+02 0.  0.
         12    1    1    2    0    0  0.11749423421E+02  0.11871958068E+02 -0.84669699314E+01  0.18726503115E+02  0.00000000000E+00 0. -1.
         11    1    3    3    0    0  0.14587205529E+02  0.15466907795E+02  0.89433824080E+01  0.23065036116E+02  0.51100000000E-03 0. -1.
        -11    1    3    3    0    0  0.46646418919E+01  0.13174328735E+01 -0.49685938328E+01  0.69412850606E+01  0.51100000000E-03 0.  1.
         12    1    3    3    0    0 -0.31001270842E+02 -0.28656298737E+02  0.44921813562E+01  0.42455175708E+02  0.00000000000E+00 0. -1.
</event>
<event>
 7    1  0.3162486E-013  0.7246160E+02  0.7816164E-02  0.1226708E+00
        -11   -1    0    0    0    0  0.00000000000E+00  0.00000000000E+00  0.45593999997E+02  0.45594000000E+02  0.51100000000E-03 0.  1.
         11   -1    0    0    0    0 -0.00000000000E+00 -0.00000000000E+00 -0.45593999997E+02  0.45594000000E+02  0.51100000000E-03 0. -1.
    9900012    2    1    2    0    0 -0.36152449059E+01 -0.57713444269E+00  0.18365046582E+02  0.72461601098E+02  0.70000040127E+02 0.  0.
         12    1    1    2    0    0  0.36152449059E+01  0.57713444269E+00 -0.18365046582E+02  0.18726398902E+02  0.00000000000E+00 0. -1.
         11    1    3    3    0    0  0.16257909591E+02 -0.18129758609E+02  0.13873437653E+02  0.28026416897E+02  0.51100000000E-03 0. -1.
        -11    1    3    3    0    0  0.93369772291E+01  0.95082970312E+01  0.47181787933E+01  0.14136762982E+02  0.51100000000E-03 0.  1.
        -12    1    3    3    0    0 -0.29210131726E+02  0.80443271353E+01 -0.22656986439E+00  0.30298421220E+02  0.00000000000E+00 0.  1.
</event>
<event>
 7    1  0.3162486E-013  0.7246158E+02  0.7816164E-02  0.1226708E+00
        -11   -1    0    0    0    0  0.00000000000E+00  0.00000000000E+00  0.45593999997E+02  0.45594000000E+02  0.51100000000E-03 0. -1.
         11   -1    0    0    0    0 -0.00000000000E+00 -0.00000000000E+00 -0.45593999997E+02  0.45594000000E+02  0.51100000000E-03 0.  1.
    9900012    2    1    2    0    0 -0.15013922358E+02  0.63102489796E+01 -0.92434627307E+01  0.72461582563E+02  0.70000015982E+02 0.  0.
         12    1    1    2    0    0  0.15013922358E+02 -0.63102489796E+01  0.92434627307E+01  0.18726417437E+02  0.00000000000E+00 0. -1.
         11    1    3    3    0    0  0.10593717315E+02  0.46094367670E+01  0.60626592789E+00  0.11568980616E+02  0.51100000000E-03 0. -1.
        -11    1    3    3    0    0  0.15099180586E+02  0.72899287058E+01 -0.10528216404E+02  0.19798274061E+02  0.51100000000E-03 0.  1.
        -12    1    3    3    0    0 -0.40706820259E+02 -0.55891164932E+01  0.67848774536E+00  0.41094327886E+02  0.00000000000E+00 0.  1.
</event>
<event>
 7    1  0.3162486E-013  0.7246155E+02  0.7816164E-02  0.1226708E+00
        -11   -1    0    0    0    0  0.00000000000E+00  0.00000000000E+00  0.45593999997E+02  0.45594000000E+02  0.51100000000E-03 0.  1.
         11   -1    0    0    0    0 -0.00000000000E+00 -0.00000000000E+00 -0.45593999997E+02  0.45594000000E+02  0.51100000000E-03 0. -1.
    9900012    2    1    2    0    0 -0.71870784099E+01  0.39384650970E+01  0.16837883390E+02  0.72461550244E+02  0.69999973881E+02 0.  0.
         12    1    1    2    0    0  0.71870784099E+01 -0.39384650970E+01 -0.16837883390E+02  0.18726449756E+02  0.00000000000E+00 0. -1.
         11    1    3    3    0    0  0.10030789000E+02  0.78297956421E+01  0.24318751570E+02  0.27446750371E+02  0.51100000000E-03 0. -1.
        -11    1    3    3    0    0  0.10407645004E+02  0.91075207862E+01 -0.15935813822E+01  0.13921404788E+02  0.51100000000E-03 0.  1.
        -12    1    3    3    0    0 -0.27625512414E+02 -0.12998851331E+02 -0.58872867971E+01  0.31093395085E+02  0.00000000000E+00 0.  1.
</event>
<event>
 7    1  0.3162486E-013  0.7246154E+02  0.7816164E-02  0.1226708E+00
        -11   -1    0    0    0    0  0.00000000000E+00  0.00000000000E+00  0.45593999997E+02  0.45594000000E+02  0.51100000000E-03 0.  1.
         11   -1    0    0    0    0 -0.00000000000E+00 -0.00000000000E+00 -0.45593999997E+02  0.45594000000E+02  0.51100000000E-03 0. -1.
    9900012    2    1    2    0    0  0.17312630988E+02  0.78229998583E+00  0.70951364353E+01  0.72461544222E+02  0.69999966035E+02 0.  0.
         12    1    1    2    0    0 -0.17312630988E+02 -0.78229998583E+00 -0.70951364353E+01  0.18726455778E+02  0.00000000000E+00 0. -1.
         11    1    3    3    0    0 -0.14578855020E+02  0.65154259566E+01 -0.11364642551E+02  0.19599716571E+02  0.51100000000E-03 0. -1.
        -11    1    3    3    0    0 -0.63595377182E+01 -0.86560897909E+01  0.70132847701E+01  0.12828007405E+02  0.51100000000E-03 0.  1.
        -12    1    3    3    0    0  0.38251023726E+02  0.29229638202E+01  0.11446494216E+02  0.40033820245E+02  0.00000000000E+00 0.  1.
</event>
<event>
 7    1  0.3162486E-013  0.7246156E+02  0.7816164E-02  0.1226708E+00
        -11   -1    0    0    0    0  0.00000000000E+00  0.00000000000E+00  0.45593999997E+02  0.45594000000E+02  0.51100000000E-03 0. -1.
         11   -1    0    0    0    0 -0.00000000000E+00 -0.00000000000E+00 -0.45593999997E+02  0.45594000000E+02  0.51100000000E-03 0.  1.
    9900012    2    1    2    0    0  0.14099571010E+02 -0.13264014427E+00 -0.12323307972E+02  0.72461563728E+02  0.69999991446E+02 0.  0.
         12    1    1    2    0    0 -0.14099571010E+02  0.13264014427E+00  0.12323307972E+02  0.18726436272E+02  0.00000000000E+00 0. -1.
         11    1    3    3    0    0  0.17248593449E+02 -0.15454884625E+02 -0.22434797072E+02  0.32244186370E+02  0.51100000000E-03 0. -1.
        -11    1    3    3    0    0 -0.10187846944E+02 -0.48547885158E+01 -0.66139423541E+01  0.13080727450E+02  0.51100000000E-03 0.  1.
        -12    1    3    3    0    0  0.70388245050E+01  0.20177032996E+02  0.16725431454E+02  0.27136649909E+02  0.00000000000E+00 0.  1.
</event>
<event>
 7    1  0.3162486E-013  0.7246157E+02  0.7816164E-02  0.1226708E+00
        -11   -1    0    0    0    0  0.00000000000E+00  0.00000000000E+00  0.45593999997E+02  0.45594000000E+02  0.51100000000E-03 0. -1.
         11   -1    0    0    0    0 -0.00000000000E+00 -0.00000000000E+00 -0.45593999997E+02  0.45594000000E+02  0.51100000000E-03 0.  1.
    9900012    2    1    2    0    0 -0.12329260077E+02  0.12240232462E+02 -0.69889288475E+01  0.72461572919E+02  0.70000003419E+02 0.  0.
         12    1    1    2    0    0  0.12329260077E+02 -0.12240232462E+02  0.69889288475E+01  0.18726427081E+02  0.00000000000E+00 0. -1.
         11    1    3    3    0    0 -0.24256398310E+02  0.33441082848E+01 -0.29489338170E+02  0.38329844575E+02  0.51100000000E-03 0. -1.
        -11    1    3    3    0    0  0.62498916307E+01  0.11533046674E+02  0.27362807884E+01  0.13399982977E+02  0.51100000000E-03 0.  1.
        -12    1    3    3    0    0  0.56772466020E+01 -0.26369224964E+01  0.19764128534E+02  0.20731745367E+02  0.00000000000E+00 0.  1.
</event>
<event>
 7    1  0.3162486E-013  0.7246132E+02  0.7816164E-02  0.1226709E+00
        -11   -1    0    0    0    0  0.00000000000E+00  0.00000000000E+00  0.45593999997E+02  0.45594000000E+02  0.51100000000E-03 0. -1.
         11   -1    0    0    0    0 -0.00000000000E+00 -0.00000000000E+00 -0.45593999997E+02  0.45594000000E+02  0.51100000000E-03 0.  1.
    9900012    2    1    2    0    0  0.59963915191E+01 -0.14491713605E+02 -0.10233372511E+02  0.72461324176E+02  0.69999679385E+02 0.  0.
         12    1    1    2    0    0 -0.59963915191E+01  0.14491713605E+02  0.10233372511E+02  0.18726675824E+02  0.00000000000E+00 0. -1.
         11    1    3    3    0    0  0.11528069912E+02 -0.14753960366E+02 -0.11035459646E+02  0.21733778140E+02  0.51100000000E-03 0. -1.
        -11    1    3    3    0    0  0.21695674437E+02 -0.49993370416E+01  0.46092765010E+01  0.22736338541E+02  0.51100000000E-03 0.  1.
        -12    1    3    3    0    0 -0.27227352829E+02  0.52615838030E+01 -0.38071893661E+01  0.27991207496E+02  0.00000000000E+00 0.  1.
</event>
<event>
 7    1  0.3162486E-013  0.7246155E+02  0.7816164E-02  0.1226708E+00
        -11   -1    0    0    0    0  0.00000000000E+00  0.00000000000E+00  0.45593999997E+02  0.45594000000E+02  0.51100000000E-03 0.  1.
         11   -1    0    0    0    0 -0.00000000000E+00 -0.00000000000E+00 -0.45593999997E+02  0.45594000000E+02  0.51100000000E-03 0. -1.
    9900012    2    1    2    0    0  0.17490448648E+02  0.10520569928E+01  0.66073618852E+01  0.72461552154E+02  0.69999976369E+02 0.  0.
         12    1    1    2    0    0 -0.17490448648E+02 -0.10520569928E+01 -0.66073618852E+01  0.18726447846E+02  0.00000000000E+00 0. -1.
         11    1    3    3    0    0 -0.60982557457E+01 -0.14442113195E+02  0.17733395925E+02  0.23669319551E+02  0.51100000000E-03 0. -1.
        -11    1    3    3    0    0  0.27317238570E+01 -0.12310391419E+02 -0.46274505700E+01  0.13432101517E+02  0.51100000000E-03 0.  1.
         12    1    3    3    0    0  0.20856980537E+02  0.27804561608E+02 -0.64985834699E+01  0.35360131086E+02  0.00000000000E+00 0. -1.
</event>
<event>
 7    1  0.3162486E-013  0.7246157E+02  0.7816164E-02  0.1226708E+00
        -11   -1    0    0    0    0  0.00000000000E+00  0.00000000000E+00  0.45593999997E+02  0.45594000000E+02  0.51100000000E-03 0. -1.
         11   -1    0    0    0    0 -0.00000000000E+00 -0.00000000000E+00 -0.45593999997E+02  0.45594000000E+02  0.51100000000E-03 0.  1.
    9900012    2    1    2    0    0  0.32716122353E+01  0.10728947377E+02 -0.14995510388E+02  0.72461572412E+02  0.70000002758E+02 0.  0.
         12    1    1    2    0    0 -0.32716122353E+01 -0.10728947377E+02  0.14995510388E+02  0.18726427588E+02  0.00000000000E+00 0. -1.
         11    1    3    3    0    0 -0.29028207912E+02 -0.25104649937E+01 -0.15552134012E+01  0.29178039311E+02  0.51100000000E-03 0. -1.
        -11    1    3    3    0    0  0.16265595078E+01 -0.21505836275E+01  0.39723379899E+01  0.48010597932E+01  0.51100000000E-03 0.  1.
        -12    1    3    3    0    0  0.30673260639E+02  0.15389995998E+02 -0.17412634976E+02  0.38482473308E+02  0.00000000000E+00 0.  1.
</event>
<event>
 7    1  0.3162486E-013  0.7246158E+02  0.7816164E-02  0.1226708E+00
        -11   -1    0    0    0    0  0.00000000000E+00  0.00000000000E+00  0.45593999997E+02  0.45594000000E+02  0.51100000000E-03 0. -1.
         11   -1    0    0    0    0 -0.00000000000E+00 -0.00000000000E+00 -0.45593999997E+02  0.45594000000E+02  0.51100000000E-03 0.  1.
    9900012    2    1    2    0    0  0.72453221455E+01 -0.10383443250E+02 -0.13797393196E+02  0.72461584280E+02  0.70000018219E+02 0.  0.
         12    1    1    2    0    0 -0.72453221455E+01  0.10383443250E+02  0.13797393196E+02  0.18726415720E+02  0.00000000000E+00 0. -1.
         11    1    3    3    0    0 -0.38038760167E+01 -0.46414531002E+01  0.92142647230E+01  0.10996146338E+02  0.51100000000E-03 0. -1.
        -11    1    3    3    0    0 -0.72048043738E+01 -0.14647607809E+02 -0.34474214207E+02  0.38143584861E+02  0.51100000000E-03 0.  1.
         12    1    3    3    0    0  0.18254002536E+02  0.89056176600E+01  0.11462556289E+02  0.23321853082E+02  0.00000000000E+00 0. -1.
</event>
<event>
 7    1  0.3162486E-013  0.7246150E+02  0.7816164E-02  0.1226708E+00
        -11   -1    0    0    0    0  0.00000000000E+00  0.00000000000E+00  0.45593999997E+02  0.45594000000E+02  0.51100000000E-03 0. -1.
         11   -1    0    0    0    0 -0.00000000000E+00 -0.00000000000E+00 -0.45593999997E+02  0.45594000000E+02  0.51100000000E-03 0.  1.
    9900012    2    1    2    0    0 -0.60815275393E+01  0.16652970762E+02 -0.60312093977E+01  0.72461497411E+02  0.69999905056E+02 0.  0.
         12    1    1    2    0    0  0.60815275393E+01 -0.16652970762E+02  0.60312093977E+01  0.18726502589E+02  0.00000000000E+00 0. -1.
         11    1    3    3    0    0 -0.33301190198E+01  0.37707734637E+02  0.11849018973E+02  0.39665629896E+02  0.51100000000E-03 0. -1.
        -11    1    3    3    0    0  0.42329697166E+01 -0.26431675284E+01  0.14552068853E+01  0.51982684179E+01  0.51100000000E-03 0.  1.
        -12    1    3    3    0    0 -0.69843782361E+01 -0.18411596347E+02 -0.19335435256E+02  0.27597599097E+02  0.00000000000E+00 0.  1.
</event>
<event>
 7    1  0.3162486E-013  0.7246150E+02  0.7816164E-02  0.1226708E+00
        -11   -1    0    0    0    0  0.00000000000E+00  0.00000000000E+00  0.45593999997E+02  0.45594000000E+02  0.51100000000E-03 0.  1.
         11   -1    0    0    0    0 -0.00000000000E+00 -0.00000000000E+00 -0.45593999997E+02  0.45594000000E+02  0.51100000000E-03 0. -1.
    9900012    2    1    2    0    0  0.13012292914E+02  0.13463570771E+02  0.30716839398E+00  0.72461498533E+02  0.69999906517E+02 0.  0.
         12    1    1    2    0    0 -0.13012292914E+02 -0.13463570771E+02 -0.30716839398E+00  0.18726501467E+02  0.00000000000E+00 0. -1.
         11    1    3    3    0    0 -0.16038414698E+02 -0.15731550912E+02  0.79205226506E+01  0.23821148575E+02  0.51100000000E-03 0. -1.
        -11    1    3    3    0    0  0.13805788015E+02  0.18975494051E+02  0.77420767213E+01  0.24710502006E+02  0.51100000000E-03 0.  1.
        -12    1    3    3    0    0  0.15244919597E+02  0.10219627632E+02 -0.15355430978E+02  0.23929847951E+02  0.00000000000E+00 0.  1.
</event>
<event>
 7    1  0.3162486E-013  0.7246167E+02  0.7816164E-02  0.1226708E+00
        -11   -1    0    0    0    0  0.00000000000E+00  0.00000000000E+00  0.45593999997E+02  0.45594000000E+02  0.51100000000E-03 0.  1.
         11   -1    0    0    0    0 -0.00000000000E+00 -0.00000000000E+00 -0.45593999997E+02  0.45594000000E+02  0.51100000000E-03 0. -1.
    9900012    2    1    2    0    0 -0.27854630420E+01  0.14162191652E+02  0.11931006534E+02  0.72461671111E+02  0.70000131332E+02 0.  0.
         12    1    1    2    0    0  0.27854630420E+01 -0.14162191652E+02 -0.11931006534E+02  0.18726328889E+02  0.00000000000E+00 0. -1.
         11    1    3    3    0    0 -0.16514518666E+02  0.32946299107E+01 -0.11549338362E+02  0.20419870957E+02  0.51100000000E-03 0. -1.
        -11    1    3    3    0    0  0.14533151457E+02  0.13724937440E+02 -0.71785541943E+01  0.21239539533E+02  0.51100000000E-03 0.  1.
        -12    1    3    3    0    0 -0.80409583225E+00 -0.28573756980E+01  0.30658899090E+02  0.30802260621E+02  0.00000000000E+00 0.  1.
</event>
<event>
 7    1  0.3162486E-013  0.7246155E+02  0.7816164E-02  0.1226708E+00
        -11   -1    0    0    0    0  0.00000000000E+00  0.00000000000E+00  0.45593999997E+02  0.45594000000E+02  0.51100000000E-03 0. -1.
         11   -1    0    0    0    0 -0.00000000000E+00 -0.00000000000E+00 -0.45593999997E+02  0.45594000000E+02  0.51100000000E-03 0.  1.
    9900012    2    1    2    0    0 -0.10177095488E+02  0.13437273410E+02  0.81575933155E+01  0.72461550311E+02  0.69999973968E+02 0.  0.
         12    1    1    2    0    0  0.10177095488E+02 -0.13437273410E+02 -0.81575933155E+01  0.18726449689E+02  0.00000000000E+00 0. -1.
         11    1    3    3    0    0  0.60505294671E+00 -0.25332993924E+01 -0.24357294295E+01  0.35660164042E+01  0.51100000000E-03 0. -1.
        -11    1    3    3    0    0 -0.89304817638E+01 -0.65522617166E+00 -0.26625035326E+02  0.28090484728E+02  0.51100000000E-03 0.  1.
         12    1    3    3    0    0 -0.18516666711E+01  0.16625798974E+02  0.37218358071E+02  0.40805049179E+02  0.00000000000E+00 0. -1.
</event>
<event>
 7    1  0.3162486E-013  0.7246156E+02  0.7816164E-02  0.1226708E+00
        -11   -1    0    0    0    0  0.00000000000E+00  0.00000000000E+00  0.45593999997E+02  0.45594000000E+02  0.51100000000E-03 0. -1.
         11   -1    0    0    0    0 -0.00000000000E+00 -0.00000000000E+00 -0.45593999997E+02  0.45594000000E+02  0.51100000000E-03 0.  1.
    9900012    2    1    2    0    0 -0.84954240754E+01 -0.97160731854E+01 -0.13568539795E+02  0.72461559320E+02  0.69999985704E+02 0.  0.
         12    1    1    2    0    0  0.84954240754E+01  0.97160731854E+01  0.13568539795E+02  0.18726440680E+02  0.00000000000E+00 0. -1.
         11    1    3    3    0    0  0.59302542841E+01  0.13049195495E+01 -0.19905491426E+02  0.20811038419E+02  0.51100000000E-03 0. -1.
        -11    1    3    3    0    0 -0.19878981479E+02 -0.17254473557E+02 -0.13912145915E+02  0.29773118187E+02  0.51100000000E-03 0.  1.
         12    1    3    3    0    0  0.54533031194E+01  0.62334808223E+01  0.20249097546E+02  0.21877402713E+02  0.00000000000E+00 0. -1.
</event>
<event>
 7    1  0.3162486E-013  0.7246158E+02  0.7816164E-02  0.1226708E+00
        -11   -1    0    0    0    0  0.00000000000E+00  0.00000000000E+00  0.45593999997E+02  0.45594000000E+02  0.51100000000E-03 0.  1.
         11   -1    0    0    0    0 -0.00000000000E+00 -0.00000000000E+00 -0.45593999997E+02  0.45594000000E+02  0.51100000000E-03 0. -1.
    9900012    2    1    2    0    0 -0.78644045879E+01 -0.59771272845E+00  0.16984478970E+02  0.72461584275E+02  0.70000018212E+02 0.  0.
         12    1    1    2    0    0  0.78644045879E+01  0.59771272845E+00 -0.16984478970E+02  0.18726415725E+02  0.00000000000E+00 0. -1.
         11    1    3    3    0    0 -0.53409269462E+01  0.54691345947E+00 -0.12293047504E+02  0.13414306996E+02  0.51100000000E-03 0. -1.
        -11    1    3    3    0    0 -0.21991410982E+01 -0.82116200380E+01 -0.13355380511E+02  0.15831396467E+02  0.51100000000E-03 0.  1.
        -12    1    3    3    0    0 -0.32433654354E+00  0.70669938501E+01  0.42632906986E+02  0.43215880812E+02  0.00000000000E+00 0.  1.
</event>
<event>
 7    1  0.3162486E-013  0.7246146E+02  0.7816164E-02  0.1226708E+00
        -11   -1    0    0    0    0  0.00000000000E+00  0.00000000000E+00  0.45593999997E+02  0.45594000000E+02  0.51100000000E-03 0.  1.
         11   -1    0    0    0    0 -0.00000000000E+00 -0.00000000000E+00 -0.45593999997E+02  0.45594000000E+02  0.51100000000E-03 0. -1.
    9900012    2    1    2    0    0 -0.14654538578E+02 -0.52129490602E+00  0.11647149203E+02  0.72461459105E+02  0.69999855155E+02 0.  0.
         12    1    1    2    0    0  0.14654538578E+02  0.52129490602E+00 -0.11647149203E+02  0.18726540895E+02  0.00000000000E+00 0. -1.
         11    1    3    3    0    0 -0.17289831129E+02 -0.80447042600E+01  0.29184667485E+02  0.34862592324E+02  0.51100000000E-03 0.  1.
        -11    1    3    3    0    0 -0.94014899748E+01  0.85277185958E+01  0.36526016186E+01  0.13208008822E+02  0.51100000000E-03 0. -1.
         12    1    3    3    0    0  0.12036782525E+02 -0.10043092419E+01 -0.21190119900E+02  0.24390857959E+02  0.00000000000E+00 0. -1.
</event>
<event>
 7    1  0.3162486E-013  0.7246157E+02  0.7816164E-02  0.1226708E+00
        -11   -1    0    0    0    0  0.00000000000E+00  0.00000000000E+00  0.45593999997E+02  0.45594000000E+02  0.51100000000E-03 0. -1.
         11   -1    0    0    0    0 -0.00000000000E+00 -0.00000000000E+00 -0.45593999997E+02  0.45594000000E+02  0.51100000000E-03 0.  1.
    9900012    2    1    2    0    0 -0.44785110195E+00 -0.32408633724E+01 -0.18438420342E+02  0.72461571864E+02  0.70000002045E+02 0.  0.
         12    1    1    2    0    0  0.44785110195E+00  0.32408633724E+01  0.18438420342E+02  0.18726428136E+02  0.00000000000E+00 0. -1.
         11    1    3    3    0    0 -0.14254638687E+02  0.46166544858E+01  0.25279708106E+01  0.15195356508E+02  0.51100000000E-03 0. -1.
        -11    1    3    3    0    0 -0.59532661757E+01 -0.83036971129E+01 -0.32714736785E+02  0.34273120183E+02  0.51100000000E-03 0.  1.
         12    1    3    3    0    0  0.19760053760E+02  0.44617925465E+00  0.11748345632E+02  0.22993095173E+02  0.00000000000E+00 0. -1.
</event>
<event>
 7    1  0.3162486E-013  0.7246157E+02  0.7816164E-02  0.1226708E+00
        -11   -1    0    0    0    0  0.00000000000E+00  0.00000000000E+00  0.45593999997E+02  0.45594000000E+02  0.51100000000E-03 0. -1.
         11   -1    0    0    0    0 -0.00000000000E+00 -0.00000000000E+00 -0.45593999997E+02  0.45594000000E+02  0.51100000000E-03 0.  1.
    9900012    2    1    2    0    0  0.15040936539E+02 -0.11149869090E+02 -0.36034463194E+00  0.72461569455E+02  0.69999998907E+02 0.  0.
         12    1    1    2    0    0 -0.15040936539E+02  0.11149869090E+02  0.36034463194E+00  0.18726430545E+02  0.00000000000E+00 0. -1.
         11    1    3    3    0    0 -0.13913177884E+02  0.96316675229E+01  0.50246927081E+01  0.17651999183E+02  0.51100000000E-03 0. -1.
        -11    1    3    3    0    0  0.17314968911E+02  0.30655522158E+01 -0.18229712241E+02  0.25328406334E+02  0.51100000000E-03 0.  1.
         12    1    3    3    0    0  0.11639145511E+02 -0.23847088829E+02  0.12844674901E+02  0.29481163938E+02  0.00000000000E+00 0. -1.
</event>
<event>
 7    1  0.3162486E-013  0.7246156E+02  0.7816164E-02  0.1226708E+00
        -11   -1    0    0    0    0  0.00000000000E+00  0.00000000000E+00  0.45593999997E+02  0.45594000000E+02  0.51100000000E-03 0.  1.
         11   -1    0    0    0    0 -0.00000000000E+00 -0.00000000000E+00 -0.45593999997E+02  0.45594000000E+02  0.51100000000E-03 0. -1.
    9900012    2    1    2    0    0 -0.57955728610E+01  0.31083531717E+01  0.17533653479E+02  0.72461560708E+02  0.69999987513E+02 0.  0.
         12    1    1    2    0    0  0.57955728610E+01 -0.31083531717E+01 -0.17533653479E+02  0.18726439292E+02  0.00000000000E+00 0. -1.
         11    1    3    3    0    0  0.10842937137E+01 -0.13330120430E+00  0.46656541691E+01  0.47918463201E+01  0.51100000000E-03 0. -1.
        -11    1    3    3    0    0  0.87918989457E+01 -0.65984781060E+01  0.36233352365E+02  0.37864141668E+02  0.51100000000E-03 0.  1.
         12    1    3    3    0    0 -0.15671765520E+02  0.98401324820E+01 -0.23365353055E+02  0.29805572720E+02  0.00000000000E+00 0. -1.
</event>
<event>
 7    1  0.3162486E-013  0.7246177E+02  0.7816164E-02  0.1226707E+00
        -11   -1    0    0    0    0  0.00000000000E+00  0.00000000000E+00  0.45593999997E+02  0.45594000000E+02  0.51100000000E-03 0.  1.
         11   -1    0    0    0    0 -0.00000000000E+00 -0.00000000000E+00 -0.45593999997E+02  0.45594000000E+02  0.51100000000E-03 0. -1.
    9900012    2    1    2    0    0  0.28294977784E+01 -0.17396529286E+02  0.63266510523E+01  0.72461766998E+02  0.70000256243E+02 0.  0.
         12    1    1    2    0    0 -0.28294977784E+01  0.17396529286E+02 -0.63266510523E+01  0.18726233002E+02  0.00000000000E+00 0. -1.
         11    1    3    3    0    0  0.68011299473E+01  0.14900406147E+02 -0.91660534443E+01  0.18769496741E+02  0.51100000000E-03 0. -1.
        -11    1    3    3    0    0  0.53651660572E+01 -0.18286049130E+01 -0.10919267089E+02  0.12302812555E+02  0.51100000000E-03 0.  1.
        -12    1    3    3    0    0 -0.93367982261E+01 -0.30468330521E+02  0.26411971586E+02  0.41389457702E+02  0.00000000000E+00 0.  1.
</event>
<event>
 7    1  0.3162486E-013  0.7246156E+02  0.7816164E-02  0.1226708E+00
        -11   -1    0    0    0    0  0.00000000000E+00  0.00000000000E+00  0.45593999997E+02  0.45594000000E+02  0.51100000000E-03 0.  1.
         11   -1    0    0    0    0 -0.00000000000E+00 -0.00000000000E+00 -0.45593999997E+02  0.45594000000E+02  0.51100000000E-03 0. -1.
    9900012    2    1    2    0    0 -0.15075502627E+02 -0.46938106093E+01 -0.10068606128E+02  0.72461562356E+02  0.69999989658E+02 0.  0.
         12    1    1    2    0    0  0.15075502627E+02  0.46938106093E+01  0.10068606128E+02  0.18726437644E+02  0.00000000000E+00 0. -1.
         11    1    3    3    0    0  0.15420443788E+02 -0.26257125766E+01 -0.29559883318E+00  0.15645185588E+02  0.51100000000E-03 0. -1.
        -11    1    3    3    0    0 -0.37599651893E+01  0.10032991855E+02 -0.22428929597E+02  0.24856692196E+02  0.51100000000E-03 0.  1.
        -12    1    3    3    0    0 -0.26735981226E+02 -0.12101089888E+02  0.12655922303E+02  0.31959684572E+02  0.00000000000E+00 0.  1.
</event>
<event>
 7    1  0.3162486E-013  0.7246151E+02  0.7816164E-02  0.1226708E+00
        -11   -1    0    0    0    0  0.00000000000E+00  0.00000000000E+00  0.45593999997E+02  0.45594000000E+02  0.51100000000E-03 0.  1.
         11   -1    0    0    0    0 -0.00000000000E+00 -0.00000000000E+00 -0.45593999997E+02  0.45594000000E+02  0.51100000000E-03 0. -1.
    9900012    2    1    2    0    0  0.16762228823E+02  0.83489766420E+01 -0.61698548568E-01  0.72461507195E+02  0.69999917801E+02 0.  0.
         12    1    1    2    0    0 -0.16762228823E+02 -0.83489766420E+01  0.61698548568E-01  0.18726492805E+02  0.00000000000E+00 0. -1.
         11    1    3    3    0    0 -0.41676122339E+01 -0.26947371092E+02  0.13165987978E+01  0.27299509760E+02  0.51100000000E-03 0. -1.
        -11    1    3    3    0    0 -0.25907216106E+01  0.16641459838E+01  0.24613903044E+01  0.39420379007E+01  0.51100000000E-03 0.  1.
        -12    1    3    3    0    0  0.23520562667E+02  0.33632201750E+02 -0.38396876508E+01  0.41219959534E+02  0.00000000000E+00 0.  1.
</event>
<event>
 7    1  0.3162486E-013  0.7246154E+02  0.7816164E-02  0.1226708E+00
        -11   -1    0    0    0    0  0.00000000000E+00  0.00000000000E+00  0.45593999997E+02  0.45594000000E+02  0.51100000000E-03 0.  1.
         11   -1    0    0    0    0 -0.00000000000E+00 -0.00000000000E+00 -0.45593999997E+02  0.45594000000E+02  0.51100000000E-03 0. -1.
    9900012    2    1    2    0    0 -0.58564866980E+01 -0.17554989288E+02  0.28642689511E+01  0.72461544864E+02  0.69999966872E+02 0.  0.
         12    1    1    2    0    0  0.58564866980E+01  0.17554989288E+02 -0.28642689511E+01  0.18726455136E+02  0.00000000000E+00 0. -1.
         11    1    3    3    0    0 -0.19710416804E+01 -0.20238989825E+02  0.14486842581E+02  0.24967385179E+02  0.51100000000E-03 0. -1.
        -11    1    3    3    0    0 -0.13532841022E+02  0.13620408380E+02  0.98172361687E+01  0.21564587564E+02  0.51100000000E-03 0.  1.
         12    1    3    3    0    0  0.96473960043E+01 -0.10936407843E+02 -0.21439809799E+02  0.25929572121E+02  0.00000000000E+00 0. -1.
</event>
<event>
 7    1  0.3162486E-013  0.7246158E+02  0.7816164E-02  0.1226708E+00
        -11   -1    0    0    0    0  0.00000000000E+00  0.00000000000E+00  0.45593999997E+02  0.45594000000E+02  0.51100000000E-03 0. -1.
         11   -1    0    0    0    0 -0.00000000000E+00 -0.00000000000E+00 -0.45593999997E+02  0.45594000000E+02  0.51100000000E-03 0.  1.
    9900012    2    1    2    0    0 -0.42841460422E+01 -0.17583463746E+02 -0.48111085447E+01  0.72461578290E+02  0.70000010416E+02 0.  0.
         12    1    1    2    0    0  0.42841460422E+01  0.17583463746E+02  0.48111085447E+01  0.18726421710E+02  0.00000000000E+00 0. -1.
         11    1    3    3    0    0 -0.16614636703E+01  0.12499033007E+02 -0.26269038196E+02  0.29138439485E+02  0.51100000000E-03 0. -1.
        -11    1    3    3    0    0 -0.54439752248E+01  0.10794783756E+01  0.31274089701E+00  0.55587720714E+01  0.51100000000E-03 0.  1.
        -12    1    3    3    0    0  0.28212928529E+01 -0.31161975129E+02  0.21145188754E+02  0.37764366733E+02  0.00000000000E+00 0.  1.
</event>
<event>
 7    1  0.3162486E-013  0.7246156E+02  0.7816164E-02  0.1226708E+00
        -11   -1    0    0    0    0  0.00000000000E+00  0.00000000000E+00  0.45593999997E+02  0.45594000000E+02  0.51100000000E-03 0.  1.
         11   -1    0    0    0    0 -0.00000000000E+00 -0.00000000000E+00 -0.45593999997E+02  0.45594000000E+02  0.51100000000E-03 0. -1.
    9900012    2    1    2    0    0  0.11629800523E+02 -0.18103635638E+01  0.14565363782E+02  0.72461561510E+02  0.69999988556E+02 0.  0.
         12    1    1    2    0    0 -0.11629800523E+02  0.18103635638E+01 -0.14565363782E+02  0.18726438490E+02  0.00000000000E+00 0. -1.
         11    1    3    3    0    0  0.14030452226E+02 -0.64676369795E+01  0.84985867336E+01  0.17632637196E+02  0.51100000000E-03 0. -1.
        -11    1    3    3    0    0 -0.12815617437E+02 -0.13508319640E+01  0.27434645210E+02  0.30310469402E+02  0.51100000000E-03 0.  1.
         12    1    3    3    0    0  0.10414965734E+02  0.60081053796E+01 -0.21367868162E+02  0.24518454912E+02  0.00000000000E+00 0. -1.
</event>
<event>
 7    1  0.3162486E-013  0.7246157E+02  0.7816164E-02  0.1226708E+00
        -11   -1    0    0    0    0  0.00000000000E+00  0.00000000000E+00  0.45593999997E+02  0.45594000000E+02  0.51100000000E-03 0.  1.
         11   -1    0    0    0    0 -0.00000000000E+00 -0.00000000000E+00 -0.45593999997E+02  0.45594000000E+02  0.51100000000E-03 0. -1.
    9900012    2    1    2    0    0  0.62091133249E+01 -0.13994447892E+02  0.10783394310E+02  0.72461568067E+02  0.69999997099E+02 0.  0.
         12    1    1    2    0    0 -0.62091133249E+01  0.13994447892E+02 -0.10783394310E+02  0.18726431933E+02  0.00000000000E+00 0. -1.
         11    1    3    3    0    0  0.11639401484E+02 -0.49412114814E+01 -0.17858628039E+02  0.21881997932E+02  0.51100000000E-03 0. -1.
        -11    1    3    3    0    0  0.14008017329E+02  0.77368795683E+01  0.10933995959E+02  0.19381334393E+02  0.51100000000E-03 0.  1.
         12    1    3    3    0    0 -0.19438305488E+02 -0.16790115979E+02  0.17708026389E+02  0.31198235743E+02  0.00000000000E+00 0. -1.
</event>
<event>
 7    1  0.3162486E-013  0.7246152E+02  0.7816164E-02  0.1226708E+00
        -11   -1    0    0    0    0  0.00000000000E+00  0.00000000000E+00  0.45593999997E+02  0.45594000000E+02  0.51100000000E-03 0.  1.
         11   -1    0    0    0    0 -0.00000000000E+00 -0.00000000000E+00 -0.45593999997E+02  0.45594000000E+02  0.51100000000E-03 0. -1.
    9900012    2    1    2    0    0  0.63950228922E+01  0.53658217737E+01  0.16762835979E+02  0.72461520588E+02  0.69999935249E+02 0.  0.
         12    1    1    2    0    0 -0.63950228922E+01 -0.53658217737E+01 -0.16762835979E+02  0.18726479412E+02  0.00000000000E+00 0. -1.
         11    1    3    3    0    0  0.79868297967E+01  0.78398191404E+00 -0.18154180156E+02  0.19848887506E+02  0.51100000000E-03 0. -1.
        -11    1    3    3    0    0 -0.85288104482E+01  0.18676410077E+02  0.92483454643E+01  0.22518454546E+02  0.51100000000E-03 0.  1.
         12    1    3    3    0    0  0.69370035436E+01 -0.14094570218E+02  0.25668670670E+02  0.30094178536E+02  0.00000000000E+00 0. -1.
</event>
<event>
 7    1  0.3162486E-013  0.7246159E+02  0.7816164E-02  0.1226708E+00
        -11   -1    0    0    0    0  0.00000000000E+00  0.00000000000E+00  0.45593999997E+02  0.45594000000E+02  0.51100000000E-03 0. -1.
         11   -1    0    0    0    0 -0.00000000000E+00 -0.00000000000E+00 -0.45593999997E+02  0.45594000000E+02  0.51100000000E-03 0.  1.
    9900012    2    1    2    0    0 -0.52957510514E+01  0.66834278019E+01 -0.16672295241E+02  0.72461585101E+02  0.70000019288E+02 0.  0.
         12    1    1    2    0    0  0.52957510514E+01 -0.66834278019E+01  0.16672295241E+02  0.18726414899E+02  0.00000000000E+00 0. -1.
         11    1    3    3    0    0  0.12966414265E+01 -0.20994827233E+02 -0.47033572887E+01  0.21554248295E+02  0.51100000000E-03 0. -1.
        -11    1    3    3    0    0  0.27777454224E+01 -0.99815251002E+01 -0.23224442156E+00  0.10363428520E+02  0.51100000000E-03 0.  1.
         12    1    3    3    0    0 -0.93701379004E+01  0.37659780135E+02 -0.11736693530E+02  0.40543908286E+02  0.00000000000E+00 0. -1.
</event>
<event>
 7    1  0.3162486E-013  0.7246163E+02  0.7816164E-02  0.1226708E+00
        -11   -1    0    0    0    0  0.00000000000E+00  0.00000000000E+00  0.45593999997E+02  0.45594000000E+02  0.51100000000E-03 0. -1.
         11   -1    0    0    0    0 -0.00000000000E+00 -0.00000000000E+00 -0.45593999997E+02  0.45594000000E+02  0.51100000000E-03 0.  1.
    9900012    2    1    2    0    0 -0.12958507135E+02 -0.13240550582E+02  0.27279598630E+01  0.72461632176E+02  0.70000080612E+02 0.  0.
         12    1    1    2    0    0  0.12958507135E+02  0.13240550582E+02 -0.27279598630E+01  0.18726367824E+02  0.00000000000E+00 0. -1.
         11    1    3    3    0    0  0.30888456679E+01 -0.95492028993E+00  0.91819045033E+01  0.97344856509E+01  0.51100000000E-03 0. -1.
        -11    1    3    3    0    0 -0.21854646945E+02 -0.15511929481E+02  0.21272180423E+02  0.34216241896E+02  0.51100000000E-03 0.  1.
         12    1    3    3    0    0  0.58072941426E+01  0.32262991886E+01 -0.27726125063E+02  0.28510904628E+02  0.00000000000E+00 0. -1.
</event>
<event>
 7    1  0.3162486E-013  0.7246157E+02  0.7816164E-02  0.1226708E+00
        -11   -1    0    0    0    0  0.00000000000E+00  0.00000000000E+00  0.45593999997E+02  0.45594000000E+02  0.51100000000E-03 0.  1.
         11   -1    0    0    0    0 -0.00000000000E+00 -0.00000000000E+00 -0.45593999997E+02  0.45594000000E+02  0.51100000000E-03 0. -1.
    9900012    2    1    2    0    0  0.10865887386E+02  0.12151030761E+01  0.15203130473E+02  0.72461570539E+02  0.70000000319E+02 0.  0.
         12    1    1    2    0    0 -0.10865887386E+02 -0.12151030761E+01 -0.15203130473E+02  0.18726429461E+02  0.00000000000E+00 0. -1.
         11    1    3    3    0    0 -0.60969071833E+01 -0.98432982249E+01 -0.82807146560E+01  0.14234922993E+02  0.51100000000E-03 0. -1.
        -11    1    3    3    0    0  0.84095778862E+01  0.37502803658E+01  0.38431058094E+02  0.39518752885E+02  0.51100000000E-03 0.  1.
         12    1    3    3    0    0  0.85532166830E+01  0.73081209352E+01 -0.14947212965E+02  0.18707894661E+02  0.00000000000E+00 0. -1.
</event>
<event>
 7    1  0.3162486E-013  0.7246149E+02  0.7816164E-02  0.1226708E+00
        -11   -1    0    0    0    0  0.00000000000E+00  0.00000000000E+00  0.45593999997E+02  0.45594000000E+02  0.51100000000E-03 0.  1.
         11   -1    0    0    0    0 -0.00000000000E+00 -0.00000000000E+00 -0.45593999997E+02  0.45594000000E+02  0.51100000000E-03 0. -1.
    9900012    2    1    2    0    0  0.17351181253E+02  0.46217100972E+01 -0.53158593403E+01  0.72461493235E+02  0.69999899616E+02 0.  0.
         12    1    1    2    0    0 -0.17351181253E+02 -0.46217100972E+01  0.53158593403E+01  0.18726506765E+02  0.00000000000E+00 0. -1.
         11    1    3    3    0    0  0.11615309048E+02  0.22398975909E+02  0.16694538669E+02  0.30254539291E+02  0.51100000000E-03 0. -1.
        -11    1    3    3    0    0  0.13481091918E+02  0.88230825907E+00 -0.17983891883E+01  0.13629105294E+02  0.51100000000E-03 0.  1.
         12    1    3    3    0    0 -0.77452197139E+01 -0.18659574071E+02 -0.20212008821E+02  0.28577848651E+02  0.00000000000E+00 0. -1.
</event>
<event>
 7    1  0.3162486E-013  0.7246157E+02  0.7816164E-02  0.1226708E+00
        -11   -1    0    0    0    0  0.00000000000E+00  0.00000000000E+00  0.45593999997E+02  0.45594000000E+02  0.51100000000E-03 0.  1.
         11   -1    0    0    0    0 -0.00000000000E+00 -0.00000000000E+00 -0.45593999997E+02  0.45594000000E+02  0.51100000000E-03 0. -1.
    9900012    2    1    2    0    0 -0.14684657481E+02 -0.77666116466E+01 -0.86440588760E+01  0.72461570131E+02  0.69999999787E+02 0.  0.
         12    1    1    2    0    0  0.14684657481E+02  0.77666116466E+01  0.86440588760E+01  0.18726429869E+02  0.00000000000E+00 0. -1.
         11    1    3    3    0    0 -0.24346901827E+02 -0.10359696298E+01  0.11914495938E+02  0.27125635023E+02  0.51100000000E-03 0. -1.
        -11    1    3    3    0    0  0.48173495506E+01 -0.34590649542E+01  0.11398243970E+02  0.12848811342E+02  0.51100000000E-03 0.  1.
         12    1    3    3    0    0  0.48448947958E+01 -0.32715770626E+01 -0.31956798784E+02  0.32487123766E+02  0.00000000000E+00 0. -1.
</event>
<event>
 7    1  0.3162486E-013  0.7246160E+02  0.7816164E-02  0.1226708E+00
        -11   -1    0    0    0    0  0.00000000000E+00  0.00000000000E+00  0.45593999997E+02  0.45594000000E+02  0.51100000000E-03 0. -1.
         11   -1    0    0    0    0 -0.00000000000E+00 -0.00000000000E+00 -0.45593999997E+02  0.45594000000E+02  0.51100000000E-03 0.  1.
    9900012    2    1    2    0    0 -0.13089270251E+02 -0.11599012189E+02  0.66941741289E+01  0.72461600273E+02  0.70000039053E+02 0.  0.
         12    1    1    2    0    0  0.13089270251E+02  0.11599012189E+02 -0.66941741289E+01  0.18726399727E+02  0.00000000000E+00 0. -1.
         11    1    3    3    0    0  0.14114736754E+02 -0.15226187256E+01  0.23306691850E+01  0.14386666763E+02  0.51100000000E-03 0. -1.
        -11    1    3    3    0    0 -0.51818759039E+01 -0.28612412834E+02  0.10080232375E+01  0.29095328099E+02  0.51100000000E-03 0.  1.
         12    1    3    3    0    0 -0.22022131101E+02  0.18536019370E+02  0.33554817064E+01  0.28979605412E+02  0.00000000000E+00 0. -1.
</event>
<event>
 7    1  0.3162486E-013  0.7246146E+02  0.7816164E-02  0.1226708E+00
        -11   -1    0    0    0    0  0.00000000000E+00  0.00000000000E+00  0.45593999997E+02  0.45594000000E+02  0.51100000000E-03 0.  1.
         11   -1    0    0    0    0 -0.00000000000E+00 -0.00000000000E+00 -0.45593999997E+02  0.45594000000E+02  0.51100000000E-03 0. -1.
    9900012    2    1    2    0    0 -0.71877922872E+01 -0.34541877994E+01  0.16943656097E+02  0.72461461258E+02  0.69999857960E+02 0.  0.
         12    1    1    2    0    0  0.71877922872E+01  0.34541877994E+01 -0.16943656097E+02  0.18726538742E+02  0.00000000000E+00 0. -1.
         11    1    3    3    0    0 -0.10067109788E+02 -0.76702535723E+01  0.26735953207E+02  0.29580241437E+02  0.51100000000E-03 0. -1.
        -11    1    3    3    0    0 -0.17592447930E+02 -0.60135018185E+01 -0.19696884141E+01  0.18695884600E+02  0.51100000000E-03 0.  1.
        -12    1    3    3    0    0  0.20471765430E+02  0.10229567591E+02 -0.78226086952E+01  0.24185335221E+02  0.00000000000E+00 0.  1.
</event>
<event>
 7    1  0.3162486E-013  0.7246158E+02  0.7816164E-02  0.1226708E+00
        -11   -1    0    0    0    0  0.00000000000E+00  0.00000000000E+00  0.45593999997E+02  0.45594000000E+02  0.51100000000E-03 0.  1.
         11   -1    0    0    0    0 -0.00000000000E+00 -0.00000000000E+00 -0.45593999997E+02  0.45594000000E+02  0.51100000000E-03 0. -1.
    9900012    2    1    2    0    0  0.14739310738E+02  0.11516548896E+02  0.89485248445E+00  0.72461576410E+02  0.70000007967E+02 0.  0.
         12    1    1    2    0    0 -0.14739310738E+02 -0.11516548896E+02 -0.89485248445E+00  0.18726423590E+02  0.00000000000E+00 0. -1.
         11    1    3    3    0    0 -0.51409100872E+01  0.10702691335E+02 -0.37445823288E+01  0.12449837565E+02  0.51100000000E-03 0. -1.
        -11    1    3    3    0    0 -0.14732664248E+02  0.11504787986E+02  0.13080827823E+02  0.22814898624E+02  0.51100000000E-03 0.  1.
         12    1    3    3    0    0  0.34612885073E+02 -0.10690930424E+02 -0.84413930097E+01  0.37196840220E+02  0.00000000000E+00 0. -1.
</event>
<event>
 7    1  0.3162486E-013  0.7246154E+02  0.7816164E-02  0.1226708E+00
        -11   -1    0    0    0    0  0.00000000000E+00  0.00000000000E+00  0.45593999997E+02  0.45594000000E+02  0.51100000000E-03 0. -1.
         11   -1    0    0    0    0 -0.00000000000E+00 -0.00000000000E+00 -0.45593999997E+02  0.45594000000E+02  0.51100000000E-03 0.  1.
    9900012    2    1    2    0    0 -0.73002469632E+01  0.13490447350E+02  0.10742188905E+02  0.72461537496E+02  0.69999957274E+02 0.  0.
         12    1    1    2    0    0  0.73002469632E+01 -0.13490447350E+02 -0.10742188905E+02  0.18726462504E+02  0.00000000000E+00 0. -1.
         11    1    3    3    0    0 -0.36898243563E-01  0.63687936345E+01 -0.17148218734E+02  0.18292738993E+02  0.51100000000E-03 0. -1.
        -11    1    3    3    0    0  0.42423988428E+01 -0.12569282746E+02 -0.49729168767E+01  0.14167382229E+02  0.51100000000E-03 0.  1.
         12    1    3    3    0    0 -0.11505747562E+02  0.19690936462E+02  0.32863324516E+02  0.40001416275E+02  0.00000000000E+00 0. -1.
</event>
<event>
 7    1  0.3162486E-013  0.7246187E+02  0.7816164E-02  0.1226707E+00
        -11   -1    0    0    0    0  0.00000000000E+00  0.00000000000E+00  0.45593999997E+02  0.45594000000E+02  0.51100000000E-03 0.  1.
         11   -1    0    0    0    0 -0.00000000000E+00 -0.00000000000E+00 -0.45593999997E+02  0.45594000000E+02  0.51100000000E-03 0. -1.
    9900012    2    1    2    0    0  0.37467935600E+01 -0.10378482575E+01  0.18318086633E+02  0.72461871492E+02  0.70000392365E+02 0.  0.
         12    1    1    2    0    0 -0.37467935600E+01  0.10378482575E+01 -0.18318086633E+02  0.18726128508E+02  0.00000000000E+00 0. -1.
         11    1    3    3    0    0  0.92854241410E+01  0.22465179186E+01 -0.20845573165E+02  0.22930413539E+02  0.51100000000E-03 0. -1.
        -11    1    3    3    0    0 -0.10671299641E+02  0.47601064728E+01  0.29082765600E+01  0.12041317307E+02  0.51100000000E-03 0.  1.
         12    1    3    3    0    0  0.51326690604E+01 -0.80444726489E+01  0.36255383239E+02  0.37490140646E+02  0.00000000000E+00 0. -1.
</event>
<event>
 7    1  0.3162486E-013  0.7246187E+02  0.7816164E-02  0.1226707E+00
        -11   -1    0    0    0    0  0.00000000000E+00  0.00000000000E+00  0.45593999997E+02  0.45594000000E+02  0.51100000000E-03 0. -1.
         11   -1    0    0    0    0 -0.00000000000E+00 -0.00000000000E+00 -0.45593999997E+02  0.45594000000E+02  0.51100000000E-03 0.  1.
    9900012    2    1    2    0    0 -0.13589545822E+01 -0.18100624177E+02 -0.46031174060E+01  0.72461867377E+02  0.70000387004E+02 0.  0.
         12    1    1    2    0    0  0.13589545822E+01  0.18100624177E+02  0.46031174060E+01  0.18726132623E+02  0.00000000000E+00 0. -1.
         11    1    3    3    0    0  0.11469490675E+01 -0.26239555620E+00 -0.83999308483E+00  0.14456597923E+01  0.51100000000E-03 0. -1.
        -11    1    3    3    0    0 -0.78244800087E+01 -0.26562813145E+02 -0.31213166978E+02  0.41726098819E+02  0.51100000000E-03 0.  1.
         12    1    3    3    0    0  0.53185763590E+01  0.87245845239E+01  0.27450042657E+02  0.29290108765E+02  0.00000000000E+00 0. -1.
</event>
<event>
 7    1  0.3162486E-013  0.7246165E+02  0.7816164E-02  0.1226708E+00
        -11   -1    0    0    0    0  0.00000000000E+00  0.00000000000E+00  0.45593999997E+02  0.45594000000E+02  0.51100000000E-03 0. -1.
         11   -1    0    0    0    0 -0.00000000000E+00 -0.00000000000E+00 -0.45593999997E+02  0.45594000000E+02  0.51100000000E-03 0.  1.
    9900012    2    1    2    0    0 -0.15159785059E+02  0.10531225324E+02  0.31544319180E+01  0.72461648765E+02  0.70000102222E+02 0.  0.
         12    1    1    2    0    0  0.15159785059E+02 -0.10531225324E+02 -0.31544319180E+01  0.18726351235E+02  0.00000000000E+00 0. -1.
         11    1    3    3    0    0 -0.25755708385E+01 -0.23062430268E+02 -0.58411246781E+01  0.23929646734E+02  0.51100000000E-03 0. -1.
        -11    1    3    3    0    0  0.34376720293E+01 -0.33368972837E-01 -0.71507372298E+01  0.79342136132E+01  0.51100000000E-03 0.  1.
         12    1    3    3    0    0 -0.16021886250E+02  0.33627024565E+02  0.16146293826E+02  0.40597788418E+02  0.00000000000E+00 0. -1.
</event>
<event>
 7    1  0.3162486E-013  0.7246154E+02  0.7816164E-02  0.1226708E+00
        -11   -1    0    0    0    0  0.00000000000E+00  0.00000000000E+00  0.45593999997E+02  0.45594000000E+02  0.51100000000E-03 0.  1.
         11   -1    0    0    0    0 -0.00000000000E+00 -0.00000000000E+00 -0.45593999997E+02  0.45594000000E+02  0.51100000000E-03 0. -1.
    9900012    2    1    2    0    0  0.28008647914E+01 -0.77198207932E+01  0.16829728058E+02  0.72461542162E+02  0.69999963352E+02 0.  0.
         12    1    1    2    0    0 -0.28008647914E+01  0.77198207932E+01 -0.16829728058E+02  0.18726457838E+02  0.00000000000E+00 0. -1.
         11    1    3    3    0    0  0.51678266094E+01  0.61010576494E+01  0.37714078951E+01  0.88404102891E+01  0.51100000000E-03 0. -1.
        -11    1    3    3    0    0  0.26880147091E+02 -0.68344527469E+01  0.18117575835E+02  0.33128516513E+02  0.51100000000E-03 0.  1.
         12    1    3    3    0    0 -0.29247108909E+02 -0.69864256957E+01 -0.50592556717E+01  0.30492615360E+02  0.00000000000E+00 0. -1.
</event>
<event>
 7    1  0.3162486E-013  0.7246162E+02  0.7816164E-02  0.1226708E+00
        -11   -1    0    0    0    0  0.00000000000E+00  0.00000000000E+00  0.45593999997E+02  0.45594000000E+02  0.51100000000E-03 0.  1.
         11   -1    0    0    0    0 -0.00000000000E+00 -0.00000000000E+00 -0.45593999997E+02  0.45594000000E+02  0.51100000000E-03 0. -1.
    9900012    2    1    2    0    0  0.51172022361E+01 -0.11197544018E+02  0.14110506292E+02  0.72461624521E+02  0.70000070640E+02 0.  0.
         12    1    1    2    0    0 -0.51172022361E+01  0.11197544018E+02 -0.14110506292E+02  0.18726375479E+02  0.00000000000E+00 0. -1.
         11    1    3    3    0    0 -0.27562183424E+01  0.18769601926E+02 -0.51016951466E+01  0.19644897293E+02  0.51100000000E-03 0. -1.
        -11    1    3    3    0    0  0.23218491141E+01 -0.21560220484E+02 -0.85297160783E+01  0.23302148984E+02  0.51100000000E-03 0.  1.
        -12    1    3    3    0    0  0.55515714644E+01 -0.84069254606E+01  0.27741917517E+02  0.29514578244E+02  0.00000000000E+00 0.  1.
</event>
<event>
 7    1  0.3162486E-013  0.7246149E+02  0.7816164E-02  0.1226708E+00
        -11   -1    0    0    0    0  0.00000000000E+00  0.00000000000E+00  0.45593999997E+02  0.45594000000E+02  0.51100000000E-03 0.  1.
         11   -1    0    0    0    0 -0.00000000000E+00 -0.00000000000E+00 -0.45593999997E+02  0.45594000000E+02  0.51100000000E-03 0. -1.
    9900012    2    1    2    0    0 -0.12133917965E+02  0.11945741470E+02  0.77942057245E+01  0.72461485446E+02  0.69999889470E+02 0.  0.
         12    1    1    2    0    0  0.12133917965E+02 -0.11945741470E+02 -0.77942057245E+01  0.18726514554E+02  0.00000000000E+00 0. -1.
         11    1    3    3    0    0 -0.53940746730E+01 -0.44552603744E+01  0.58126956025E+01  0.90957581877E+01  0.51100000000E-03 0. -1.
        -11    1    3    3    0    0  0.61541221874E+00  0.95506033286E+00  0.30278160994E+02  0.30299470389E+02  0.51100000000E-03 0.  1.
         12    1    3    3    0    0 -0.73552555107E+01  0.15445941512E+02 -0.28296650872E+02  0.33066256870E+02  0.00000000000E+00 0. -1.
</event>
<event>
 7    1  0.3162486E-013  0.7246152E+02  0.7816164E-02  0.1226708E+00
        -11   -1    0    0    0    0  0.00000000000E+00  0.00000000000E+00  0.45593999997E+02  0.45594000000E+02  0.51100000000E-03 0. -1.
         11   -1    0    0    0    0 -0.00000000000E+00 -0.00000000000E+00 -0.45593999997E+02  0.45594000000E+02  0.51100000000E-03 0.  1.
    9900012    2    1    2    0    0 -0.58324231801E+01  0.35380306656E+01 -0.17439789267E+02  0.72461519529E+02  0.69999933869E+02 0.  0.
         12    1    1    2    0    0  0.58324231801E+01 -0.35380306656E+01  0.17439789267E+02  0.18726480471E+02  0.00000000000E+00 0. -1.
         11    1    3    3    0    0 -0.22636120860E+01 -0.18276823759E+00 -0.11529670189E+02  0.11751197336E+02  0.51100000000E-03 0. -1.
        -11    1    3    3    0    0  0.17154773794E+02  0.19154636280E+02 -0.18781848389E+02  0.31842490231E+02  0.51100000000E-03 0.  1.
         12    1    3    3    0    0 -0.20723584888E+02 -0.15433837376E+02  0.12871729310E+02  0.28867831963E+02  0.00000000000E+00 0. -1.
</event>
<event>
 7    1  0.3162486E-013  0.7246159E+02  0.7816164E-02  0.1226708E+00
        -11   -1    0    0    0    0  0.00000000000E+00  0.00000000000E+00  0.45593999997E+02  0.45594000000E+02  0.51100000000E-03 0.  1.
         11   -1    0    0    0    0 -0.00000000000E+00 -0.00000000000E+00 -0.45593999997E+02  0.45594000000E+02  0.51100000000E-03 0. -1.
    9900012    2    1    2    0    0 -0.38238454589E+01 -0.72366559302E-01  0.18331709530E+02  0.72461585359E+02  0.70000019624E+02 0.  0.
         12    1    1    2    0    0  0.38238454589E+01  0.72366559302E-01 -0.18331709530E+02  0.18726414641E+02  0.00000000000E+00 0. -1.
         11    1    3    3    0    0  0.13551750683E+01 -0.14039853929E+02 -0.42874035950E+01  0.14742314190E+02  0.51100000000E-03 0. -1.
        -11    1    3    3    0    0 -0.98929478761E+01 -0.15472346153E+02  0.20947097683E+02  0.27857580920E+02  0.51100000000E-03 0.  1.
        -12    1    3    3    0    0  0.47139273488E+01  0.29439833523E+02  0.16720154425E+01  0.29861690249E+02  0.00000000000E+00 0.  1.
</event>
<event>
 7    1  0.3162486E-013  0.7246147E+02  0.7816164E-02  0.1226708E+00
        -11   -1    0    0    0    0  0.00000000000E+00  0.00000000000E+00  0.45593999997E+02  0.45594000000E+02  0.51100000000E-03 0. -1.
         11   -1    0    0    0    0 -0.00000000000E+00 -0.00000000000E+00 -0.45593999997E+02  0.45594000000E+02  0.51100000000E-03 0.  1.
    9900012    2    1    2    0    0 -0.47561412969E+01 -0.11200288313E+02 -0.14234313519E+02  0.72461467495E+02  0.69999866084E+02 0.  0.
         12    1    1    2    0    0  0.47561412969E+01  0.11200288313E+02  0.14234313519E+02  0.18726532505E+02  0.00000000000E+00 0. -1.
         11    1    3    3    0    0  0.12524678050E+02  0.45202121644E+01 -0.48765957776E+01  0.14180305529E+02  0.51100000000E-03 0. -1.
        -11    1    3    3    0    0  0.86743231828E+01  0.57994046832E+01 -0.20307666619E+02  0.22831519904E+02  0.51100000000E-03 0.  1.
        -12    1    3    3    0    0 -0.25955142529E+02 -0.21519905161E+02  0.10949948878E+02  0.35449642061E+02  0.00000000000E+00 0.  1.
</event>
<event>
 7    1  0.3162486E-013  0.7246153E+02  0.7816164E-02  0.1226708E+00
        -11   -1    0    0    0    0  0.00000000000E+00  0.00000000000E+00  0.45593999997E+02  0.45594000000E+02  0.51100000000E-03 0.  1.
         11   -1    0    0    0    0 -0.00000000000E+00 -0.00000000000E+00 -0.45593999997E+02  0.45594000000E+02  0.51100000000E-03 0. -1.
    9900012    2    1    2    0    0 -0.10187835199E+02 -0.97439637946E+01 -0.12326550307E+02  0.72461530527E+02  0.69999948195E+02 0.  0.
         12    1    1    2    0    0  0.10187835199E+02  0.97439637946E+01  0.12326550307E+02  0.18726469473E+02  0.00000000000E+00 0. -1.
         11    1    3    3    0    0  0.95521648114E+01  0.16928023118E+02 -0.22771766587E+02  0.29939191255E+02  0.51100000000E-03 0. -1.
        -11    1    3    3    0    0  0.48919254356E+00  0.30331951616E+01  0.54246149345E+01  0.62342625612E+01  0.51100000000E-03 0.  1.
        -12    1    3    3    0    0 -0.20229192554E+02 -0.29705182075E+02  0.50206013449E+01  0.36288076710E+02  0.00000000000E+00 0.  1.
</event>
<event>
 7    1  0.3162486E-013  0.7246158E+02  0.7816164E-02  0.1226708E+00
        -11   -1    0    0    0    0  0.00000000000E+00  0.00000000000E+00  0.45593999997E+02  0.45594000000E+02  0.51100000000E-03 0. -1.
         11   -1    0    0    0    0 -0.00000000000E+00 -0.00000000000E+00 -0.45593999997E+02  0.45594000000E+02  0.51100000000E-03 0.  1.
    9900012    2    1    2    0    0 -0.58857530730E+01  0.16509275405E+02 -0.65939637685E+01  0.72461584918E+02  0.70000019050E+02 0.  0.
         12    1    1    2    0    0  0.58857530730E+01 -0.16509275405E+02  0.65939637685E+01  0.18726415082E+02  0.00000000000E+00 0. -1.
         11    1    3    3    0    0 -0.10745064341E+02  0.45140370731E+01  0.12737448628E+02  0.17264864211E+02  0.51100000000E-03 0. -1.
        -11    1    3    3    0    0 -0.55526622100E+01  0.29515960696E+02 -0.17435320809E+02  0.34727718114E+02  0.51100000000E-03 0.  1.
         12    1    3    3    0    0  0.10411973478E+02 -0.17520722364E+02 -0.18960915877E+01  0.20469002593E+02  0.00000000000E+00 0. -1.
</event>
<event>
 7    1  0.3162486E-013  0.7246152E+02  0.7816164E-02  0.1226708E+00
        -11   -1    0    0    0    0  0.00000000000E+00  0.00000000000E+00  0.45593999997E+02  0.45594000000E+02  0.51100000000E-03 0. -1.
         11   -1    0    0    0    0 -0.00000000000E+00 -0.00000000000E+00 -0.45593999997E+02  0.45594000000E+02  0.51100000000E-03 0.  1.
    9900012    2    1    2    0    0  0.22005298148E+01 -0.16234011700E+02 -0.90716977958E+01  0.72461516928E+02  0.69999930481E+02 0.  0.
         12    1    1    2    0    0 -0.22005298148E+01  0.16234011700E+02  0.90716977958E+01  0.18726483072E+02  0.00000000000E+00 0. -1.
         11    1    3    3    0    0 -0.31914622753E+01 -0.30052468969E+02 -0.18376615607E+02  0.35369991858E+02  0.51100000000E-03 0. -1.
        -11    1    3    3    0    0 -0.12717740514E+01 -0.90472607797E+01 -0.38141514750E+01  0.99004085062E+01  0.51100000000E-03 0.  1.
         12    1    3    3    0    0  0.66637661415E+01  0.22865718049E+02  0.13119069286E+02  0.27191116564E+02  0.00000000000E+00 0. -1.
</event>
<event>
 7    1  0.3162486E-013  0.7246160E+02  0.7816164E-02  0.1226708E+00
        -11   -1    0    0    0    0  0.00000000000E+00  0.00000000000E+00  0.45593999997E+02  0.45594000000E+02  0.51100000000E-03 0.  1.
         11   -1    0    0    0    0 -0.00000000000E+00 -0.00000000000E+00 -0.45593999997E+02  0.45594000000E+02  0.51100000000E-03 0. -1.
    9900012    2    1    2    0    0  0.18272509075E+02 -0.19279071784E+01 -0.36161793282E+01  0.72461597064E+02  0.70000034872E+02 0.  0.
         12    1    1    2    0    0 -0.18272509075E+02  0.19279071784E+01  0.36161793282E+01  0.18726402936E+02  0.00000000000E+00 0. -1.
         11    1    3    3    0    0 -0.87774732857E+01 -0.22911566698E+01  0.69072229658E+01  0.11401893068E+02  0.51100000000E-03 0. -1.
        -11    1    3    3    0    0  0.43596593687E+02  0.12645584161E+00 -0.77813228643E+01  0.44285753442E+02  0.51100000000E-03 0.  1.
         12    1    3    3    0    0 -0.16546611325E+02  0.23679364985E+00 -0.27420794297E+01  0.16773950554E+02  0.00000000000E+00 0. -1.
</event>
<event>
 7    1  0.3162486E-013  0.7246160E+02  0.7816164E-02  0.1226708E+00
        -11   -1    0    0    0    0  0.00000000000E+00  0.00000000000E+00  0.45593999997E+02  0.45594000000E+02  0.51100000000E-03 0.  1.
         11   -1    0    0    0    0 -0.00000000000E+00 -0.00000000000E+00 -0.45593999997E+02  0.45594000000E+02  0.51100000000E-03 0. -1.
    9900012    2    1    2    0    0  0.86675615892E+01 -0.65736080026E+01  0.15242676607E+02  0.72461597883E+02  0.70000035940E+02 0.  0.
         12    1    1    2    0    0 -0.86675615892E+01  0.65736080026E+01 -0.15242676607E+02  0.18726402117E+02  0.00000000000E+00 0. -1.
         11    1    3    3    0    0  0.45953621196E+01  0.33143331486E+01  0.93746843332E+01  0.10953851553E+02  0.51100000000E-03 0.  1.
        -11    1    3    3    0    0 -0.26011148621E+02 -0.15507872584E+02  0.61560747070E+01  0.30902608639E+02  0.51100000000E-03 0. -1.
         12    1    3    3    0    0  0.30083348090E+02  0.56199314326E+01 -0.28808243286E+00  0.30605137692E+02  0.00000000000E+00 0. -1.
</event>
<event>
 7    1  0.3162486E-013  0.7246165E+02  0.7816164E-02  0.1226708E+00
        -11   -1    0    0    0    0  0.00000000000E+00  0.00000000000E+00  0.45593999997E+02  0.45594000000E+02  0.51100000000E-03 0.  1.
         11   -1    0    0    0    0 -0.00000000000E+00 -0.00000000000E+00 -0.45593999997E+02  0.45594000000E+02  0.51100000000E-03 0. -1.
    9900012    2    1    2    0    0  0.18128831881E+02 -0.41529377907E+01  0.21851081837E+01  0.72461651305E+02  0.70000105532E+02 0.  0.
         12    1    1    2    0    0 -0.18128831881E+02  0.41529377907E+01 -0.21851081837E+01  0.18726348695E+02  0.00000000000E+00 0. -1.
         11    1    3    3    0    0 -0.33063379123E+01  0.24342293206E+02 -0.70074616667E+01  0.25545716436E+02  0.51100000000E-03 0. -1.
        -11    1    3    3    0    0  0.24572254873E+02 -0.90393498333E+01  0.68982421261E+01  0.27075658804E+02  0.51100000000E-03 0.  1.
        -12    1    3    3    0    0 -0.31370850802E+01 -0.19455881164E+02  0.22943277242E+01  0.19840276066E+02  0.00000000000E+00 0.  1.
</event>
<event>
 7    1  0.3162486E-013  0.7246154E+02  0.7816164E-02  0.1226708E+00
        -11   -1    0    0    0    0  0.00000000000E+00  0.00000000000E+00  0.45593999997E+02  0.45594000000E+02  0.51100000000E-03 0.  1.
         11   -1    0    0    0    0 -0.00000000000E+00 -0.00000000000E+00 -0.45593999997E+02  0.45594000000E+02  0.51100000000E-03 0. -1.
    9900012    2    1    2    0    0  0.43247962088E+01  0.17854547324E+02 -0.36320470613E+01  0.72461535084E+02  0.69999954132E+02 0.  0.
         12    1    1    2    0    0 -0.43247962088E+01 -0.17854547324E+02  0.36320470613E+01  0.18726464916E+02  0.00000000000E+00 0. -1.
         11    1    3    3    0    0 -0.17952923727E+02  0.12531364681E+02 -0.28279642681E+02  0.35764238585E+02  0.51100000000E-03 0. -1.
        -11    1    3    3    0    0  0.83117506829E+00  0.53378150812E+01  0.74749281471E+01  0.92226716791E+01  0.51100000000E-03 0.  1.
        -12    1    3    3    0    0  0.21446544868E+02 -0.14632437684E-01  0.17172667473E+02  0.27474624820E+02  0.00000000000E+00 0.  1.
</event>
<event>
 7    1  0.3162486E-013  0.7246152E+02  0.7816164E-02  0.1226708E+00
        -11   -1    0    0    0    0  0.00000000000E+00  0.00000000000E+00  0.45593999997E+02  0.45594000000E+02  0.51100000000E-03 0. -1.
         11   -1    0    0    0    0 -0.00000000000E+00 -0.00000000000E+00 -0.45593999997E+02  0.45594000000E+02  0.51100000000E-03 0.  1.
    9900012    2    1    2    0    0  0.17357018195E+02  0.64247342537E+01 -0.28526663969E+01  0.72461521515E+02  0.69999936456E+02 0.  0.
         12    1    1    2    0    0 -0.17357018195E+02 -0.64247342537E+01  0.28526663969E+01  0.18726478485E+02  0.00000000000E+00 0. -1.
         11    1    3    3    0    0  0.19659385185E+02 -0.12528865053E+00  0.98467906516E+01  0.21987869599E+02  0.51100000000E-03 0. -1.
        -11    1    3    3    0    0  0.17000681785E+02 -0.21810750251E+01  0.96571603465E+01  0.19673358016E+02  0.51100000000E-03 0.  1.
        -12    1    3    3    0    0 -0.19303048774E+02  0.87310979293E+01 -0.22356617395E+02  0.30800293901E+02  0.00000000000E+00 0.  1.
</event>
<event>
 7    1  0.3162486E-013  0.7246160E+02  0.7816164E-02  0.1226708E+00
        -11   -1    0    0    0    0  0.00000000000E+00  0.00000000000E+00  0.45593999997E+02  0.45594000000E+02  0.51100000000E-03 0.  1.
         11   -1    0    0    0    0 -0.00000000000E+00 -0.00000000000E+00 -0.45593999997E+02  0.45594000000E+02  0.51100000000E-03 0. -1.
    9900012    2    1    2    0    0 -0.24685086550E+00  0.80036174472E+01  0.16928061354E+02  0.72461599150E+02  0.70000037590E+02 0.  0.
         12    1    1    2    0    0  0.24685086550E+00 -0.80036174472E+01 -0.16928061354E+02  0.18726400850E+02  0.00000000000E+00 0. -1.
         11    1    3    3    0    0 -0.73981958263E+00 -0.10481341014E+02  0.13512300810E+02  0.17116895626E+02  0.51100000000E-03 0. -1.
        -11    1    3    3    0    0 -0.20012102278E+02  0.16215173072E+02  0.16801433091E+02  0.30752304459E+02  0.51100000000E-03 0.  1.
        -12    1    3    3    0    0  0.20505070996E+02  0.22697853886E+01 -0.13385672547E+02  0.24592399065E+02  0.00000000000E+00 0.  1.
</event>
<event>
 7    1  0.3162486E-013  0.7246157E+02  0.7816164E-02  0.1226708E+00
        -11   -1    0    0    0    0  0.00000000000E+00  0.00000000000E+00  0.45593999997E+02  0.45594000000E+02  0.51100000000E-03 0. -1.
         11   -1    0    0    0    0 -0.00000000000E+00 -0.00000000000E+00 -0.45593999997E+02  0.45594000000E+02  0.51100000000E-03 0.  1.
    9900012    2    1    2    0    0  0.73052522017E+01 -0.10300458128E+02 -0.13827983295E+02  0.72461567628E+02  0.69999996527E+02 0.  0.
         12    1    1    2    0    0 -0.73052522017E+01  0.10300458128E+02  0.13827983295E+02  0.18726432372E+02  0.00000000000E+00 0. -1.
         11    1    3    3    0    0 -0.29630294278E+01  0.20053886133E+01  0.50903626592E-01  0.35782283774E+01  0.51100000000E-03 0. -1.
        -11    1    3    3    0    0 -0.35435302821E+01  0.26189068027E+02 -0.76603626993E+01  0.27515541934E+02  0.51100000000E-03 0.  1.
        -12    1    3    3    0    0  0.13811811911E+02 -0.38494914769E+02 -0.62185242218E+01  0.41367797317E+02  0.00000000000E+00 0.  1.
</event>
<event>
 7    1  0.3162486E-013  0.7246161E+02  0.7816164E-02  0.1226708E+00
        -11   -1    0    0    0    0  0.00000000000E+00  0.00000000000E+00  0.45593999997E+02  0.45594000000E+02  0.51100000000E-03 0. -1.
         11   -1    0    0    0    0 -0.00000000000E+00 -0.00000000000E+00 -0.45593999997E+02  0.45594000000E+02  0.51100000000E-03 0.  1.
    9900012    2    1    2    0    0 -0.16467715479E+02  0.81267196214E+01 -0.36672372988E+01  0.72461605411E+02  0.70000045746E+02 0.  0.
         12    1    1    2    0    0  0.16467715479E+02 -0.81267196214E+01  0.36672372988E+01  0.18726394589E+02  0.00000000000E+00 0. -1.
         11    1    3    3    0    0  0.20344159829E+02  0.41388029806E+01 -0.25699115498E+01  0.20919344514E+02  0.51100000000E-03 0. -1.
        -11    1    3    3    0    0 -0.12765603516E+02  0.12613307699E+02  0.13190200990E+02  0.22271900832E+02  0.51100000000E-03 0.  1.
        -12    1    3    3    0    0 -0.24046271792E+02 -0.86253910581E+01 -0.14287526739E+02  0.29270360065E+02  0.00000000000E+00 0.  1.
</event>
<event>
 7    1  0.3162486E-013  0.7246154E+02  0.7816164E-02  0.1226708E+00
        -11   -1    0    0    0    0  0.00000000000E+00  0.00000000000E+00  0.45593999997E+02  0.45594000000E+02  0.51100000000E-03 0. -1.
         11   -1    0    0    0    0 -0.00000000000E+00 -0.00000000000E+00 -0.45593999997E+02  0.45594000000E+02  0.51100000000E-03 0.  1.
    9900012    2    1    2    0    0 -0.98206463321E+01  0.58820810464E+01  0.14820129700E+02  0.72461542349E+02  0.69999963596E+02 0.  0.
         12    1    1    2    0    0  0.98206463321E+01 -0.58820810464E+01 -0.14820129700E+02  0.18726457651E+02  0.00000000000E+00 0. -1.
         11    1    3    3    0    0  0.29368563553E+01  0.57576414243E+00  0.10879442647E+01  0.31843763257E+01  0.51100000000E-03 0. -1.
        -11    1    3    3    0    0  0.15727885342E+02 -0.19030199069E+02  0.19382362994E+02  0.31387749990E+02  0.51100000000E-03 0.  1.
        -12    1    3    3    0    0 -0.28485388029E+02  0.24336515973E+02 -0.56501775586E+01  0.37889416033E+02  0.00000000000E+00 0.  1.
</event>
<event>
 7    1  0.3162486E-013  0.7246151E+02  0.7816164E-02  0.1226708E+00
        -11   -1    0    0    0    0  0.00000000000E+00  0.00000000000E+00  0.45593999997E+02  0.45594000000E+02  0.51100000000E-03 0. -1.
         11   -1    0    0    0    0 -0.00000000000E+00 -0.00000000000E+00 -0.45593999997E+02  0.45594000000E+02  0.51100000000E-03 0.  1.
    9900012    2    1    2    0    0 -0.33046913345E+01 -0.10781621743E+02 -0.14950489454E+02  0.72461508413E+02  0.69999919388E+02 0.  0.
         12    1    1    2    0    0  0.33046913345E+01  0.10781621743E+02  0.14950489454E+02  0.18726491587E+02  0.00000000000E+00 0. -1.
         11    1    3    3    0    0 -0.23062209288E+01 -0.14837837784E+02 -0.18190413027E+02  0.23587522367E+02  0.51100000000E-03 0. -1.
        -11    1    3    3    0    0 -0.97641104649E+01 -0.18994044407E+02 -0.65537537215E+01  0.22339723906E+02  0.51100000000E-03 0.  1.
         12    1    3    3    0    0  0.87656400592E+01  0.23050260447E+02  0.97936772949E+01  0.26534262140E+02  0.00000000000E+00 0. -1.
</event>
<event>
 7    1  0.3162486E-013  0.7246140E+02  0.7816164E-02  0.1226708E+00
        -11   -1    0    0    0    0  0.00000000000E+00  0.00000000000E+00  0.45593999997E+02  0.45594000000E+02  0.51100000000E-03 0.  1.
         11   -1    0    0    0    0 -0.00000000000E+00 -0.00000000000E+00 -0.45593999997E+02  0.45594000000E+02  0.51100000000E-03 0. -1.
    9900012    2    1    2    0    0  0.14584657589E+02  0.10904609554E+02  0.43661084333E+01  0.72461397282E+02  0.69999774618E+02 0.  0.
         12    1    1    2    0    0 -0.14584657589E+02 -0.10904609554E+02 -0.43661084333E+01  0.18726602718E+02  0.00000000000E+00 0. -1.
         11    1    3    3    0    0 -0.11212300105E+01  0.15566459121E+01 -0.16773275304E+02  0.16882626215E+02  0.51100000000E-03 0. -1.
        -11    1    3    3    0    0  0.18918679485E+02  0.22194541512E+02 -0.16621075207E+01  0.29210900500E+02  0.51100000000E-03 0.  1.
        -12    1    3    3    0    0 -0.32127918852E+01 -0.12846577870E+02  0.22801491258E+02  0.26367870567E+02  0.00000000000E+00 0.  1.
</event>
<event>
 7    1  0.3162486E-013  0.7246158E+02  0.7816164E-02  0.1226708E+00
        -11   -1    0    0    0    0  0.00000000000E+00  0.00000000000E+00  0.45593999997E+02  0.45594000000E+02  0.51100000000E-03 0.  1.
         11   -1    0    0    0    0 -0.00000000000E+00 -0.00000000000E+00 -0.45593999997E+02  0.45594000000E+02  0.51100000000E-03 0. -1.
    9900012    2    1    2    0    0  0.21620636254E+01 -0.11454447283E+02  0.14656050393E+02  0.72461582970E+02  0.70000016512E+02 0.  0.
         12    1    1    2    0    0 -0.21620636254E+01  0.11454447283E+02 -0.14656050393E+02  0.18726417030E+02  0.00000000000E+00 0. -1.
         11    1    3    3    0    0 -0.11574900940E+02 -0.42689076110E+01 -0.37807918893E+01  0.12903344200E+02  0.51100000000E-03 0. -1.
        -11    1    3    3    0    0 -0.17649738452E+02 -0.95848464737E+01 -0.45339702925E+01  0.20589789611E+02  0.51100000000E-03 0.  1.
        -12    1    3    3    0    0  0.31386703018E+02  0.23993068019E+01  0.22970812575E+02  0.38968449159E+02  0.00000000000E+00 0.  1.
</event>
<event>
 7    1  0.3162486E-013  0.7246160E+02  0.7816164E-02  0.1226708E+00
        -11   -1    0    0    0    0  0.00000000000E+00  0.00000000000E+00  0.45593999997E+02  0.45594000000E+02  0.51100000000E-03 0.  1.
         11   -1    0    0    0    0 -0.00000000000E+00 -0.00000000000E+00 -0.45593999997E+02  0.45594000000E+02  0.51100000000E-03 0. -1.
    9900012    2    1    2    0    0  0.11274408961E+02 -0.11047434957E+02 -0.10075716194E+02  0.72461596891E+02  0.70000034648E+02 0.  0.
         12    1    1    2    0    0 -0.11274408961E+02  0.11047434957E+02  0.10075716194E+02  0.18726403109E+02  0.00000000000E+00 0. -1.
         11    1    3    3    0    0 -0.83510017642E+01  0.96478422543E+01  0.43085087414E+01  0.13467863174E+02  0.51100000000E-03 0. -1.
        -11    1    3    3    0    0 -0.16071929712E+02 -0.17859984286E+01 -0.81857231201E+01  0.18124645605E+02  0.51100000000E-03 0.  1.
        -12    1    3    3    0    0  0.35697340438E+02 -0.18909278783E+02 -0.61985018150E+01  0.40869088113E+02  0.00000000000E+00 0.  1.
</event>
<event>
 7    1  0.3162486E-013  0.7246156E+02  0.7816164E-02  0.1226708E+00
        -11   -1    0    0    0    0  0.00000000000E+00  0.00000000000E+00  0.45593999997E+02  0.45594000000E+02  0.51100000000E-03 0. -1.
         11   -1    0    0    0    0 -0.00000000000E+00 -0.00000000000E+00 -0.45593999997E+02  0.45594000000E+02  0.51100000000E-03 0.  1.
    9900012    2    1    2    0    0  0.12436510530E+02 -0.10040693382E+02 -0.97569164369E+01  0.72461555166E+02  0.69999980293E+02 0.  0.
         12    1    1    2    0    0 -0.12436510530E+02  0.10040693382E+02  0.97569164369E+01  0.18726444834E+02  0.00000000000E+00 0. -1.
         11    1    3    3    0    0 -0.11907203245E+01  0.28766544883E+02 -0.62403797899E+01  0.29459705694E+02  0.51100000000E-03 0. -1.
        -11    1    3    3    0    0  0.66395637729E+01 -0.76023364011E+01  0.26486418316E+01  0.10435258965E+02  0.51100000000E-03 0.  1.
        -12    1    3    3    0    0  0.69876670820E+01 -0.31204901864E+02 -0.61651784787E+01  0.32566590507E+02  0.00000000000E+00 0.  1.
</event>
<event>
 7    1  0.3205378E-013  0.7246160E+02  0.7816164E-02  0.1226708E+00
        -11   -1    0    0    0    0  0.00000000000E+00  0.00000000000E+00  0.45593999997E+02  0.45594000000E+02  0.51100000000E-03 0.  1.
         11   -1    0    0    0    0 -0.00000000000E+00 -0.00000000000E+00 -0.45593999997E+02  0.45594000000E+02  0.51100000000E-03 0. -1.
    9900012    2    1    2    0    0 -0.12396701180E+02  0.81396419684E+01  0.11434423600E+02  0.72461601132E+02  0.70000040172E+02 0.  0.
         12    1    1    2    0    0  0.12396701180E+02 -0.81396419684E+01 -0.11434423600E+02  0.18726398868E+02  0.00000000000E+00 0. -1.
         11    1    3    3    0    0 -0.38830374921E+01 -0.12495127853E+02 -0.15661541328E+02  0.20408088526E+02  0.51100000000E-03 0. -1.
        -11    1    3    3    0    0  0.64019328737E+01  0.19866928591E+01 -0.74729794366E+01  0.10038780551E+02  0.51100000000E-03 0.  1.
        -12    1    3    3    0    0 -0.14915596561E+02  0.18648076963E+02  0.34568944364E+02  0.42014732055E+02  0.00000000000E+00 0.  1.
</event>
<event>
 7    1  0.3162486E-013  0.7246163E+02  0.7816164E-02  0.1226708E+00
        -11   -1    0    0    0    0  0.00000000000E+00  0.00000000000E+00  0.45593999997E+02  0.45594000000E+02  0.51100000000E-03 0.  1.
         11   -1    0    0    0    0 -0.00000000000E+00 -0.00000000000E+00 -0.45593999997E+02  0.45594000000E+02  0.51100000000E-03 0. -1.
    9900012    2    1    2    0    0 -0.17075934272E+02  0.23494667524E+01  0.73191134979E+01  0.72461629619E+02  0.70000077281E+02 0.  0.
         12    1    1    2    0    0  0.17075934272E+02 -0.23494667524E+01 -0.73191134979E+01  0.18726370381E+02  0.00000000000E+00 0. -1.
         11    1    3    3    0    0 -0.11368450501E+01  0.82493887210E+01 -0.10619495403E+02  0.13495129263E+02  0.51100000000E-03 0. -1.
        -11    1    3    3    0    0 -0.12313990360E+02 -0.16174896475E+02 -0.14353718061E+02  0.24885555188E+02  0.51100000000E-03 0.  1.
        -12    1    3    3    0    0 -0.36250988610E+01  0.10274974507E+02  0.32292326962E+02  0.34080945168E+02  0.00000000000E+00 0.  1.
</event>
<event>
 7    1  0.3162486E-013  0.7246146E+02  0.7816164E-02  0.1226708E+00
        -11   -1    0    0    0    0  0.00000000000E+00  0.00000000000E+00  0.45593999997E+02  0.45594000000E+02  0.51100000000E-03 0. -1.
         11   -1    0    0    0    0 -0.00000000000E+00 -0.00000000000E+00 -0.45593999997E+02  0.45594000000E+02  0.51100000000E-03 0.  1.
    9900012    2    1    2    0    0  0.89560117083E+01  0.81724617335E+01 -0.14271796195E+02  0.72461456188E+02  0.69999851355E+02 0.  0.
         12    1    1    2    0    0 -0.89560117083E+01 -0.81724617335E+01  0.14271796195E+02  0.18726543812E+02  0.00000000000E+00 0. -1.
         11    1    3    3    0    0 -0.65922744246E+01  0.17324641870E+02  0.10069654652E+02  0.21095005169E+02  0.51100000000E-03 0. -1.
        -11    1    3    3    0    0 -0.12269205454E+02  0.58776225763E+01 -0.78260682959E+01  0.15694814266E+02  0.51100000000E-03 0.  1.
        -12    1    3    3    0    0  0.27817491587E+02 -0.15029802713E+02 -0.16515382552E+02  0.35671636752E+02  0.00000000000E+00 0.  1.
</event>
<event>
 7    1  0.3162486E-013  0.7246179E+02  0.7816164E-02  0.1226707E+00
        -11   -1    0    0    0    0  0.00000000000E+00  0.00000000000E+00  0.45593999997E+02  0.45594000000E+02  0.51100000000E-03 0. -1.
         11   -1    0    0    0    0 -0.00000000000E+00 -0.00000000000E+00 -0.45593999997E+02  0.45594000000E+02  0.51100000000E-03 0.  1.
    9900012    2    1    2    0    0  0.64797433742E+01 -0.17026856150E+02 -0.43324538380E+01  0.72461786800E+02  0.70000282039E+02 0.  0.
         12    1    1    2    0    0 -0.64797433742E+01  0.17026856150E+02  0.43324538380E+01  0.18726213200E+02  0.00000000000E+00 0. -1.
         11    1    3    3    0    0  0.14772698554E+02 -0.11584800721E+02 -0.15840133949E+02  0.24563185341E+02  0.51100000000E-03 0. -1.
        -11    1    3    3    0    0  0.64354649575E+01 -0.92376506500E+01 -0.14143452740E+02  0.18077241339E+02  0.51100000000E-03 0.  1.
         12    1    3    3    0    0 -0.14728420138E+02  0.37955952214E+01  0.25651132851E+02  0.29821360120E+02  0.00000000000E+00 0. -1.
</event>
<event>
 7    1  0.3162486E-013  0.7246167E+02  0.7816164E-02  0.1226708E+00
        -11   -1    0    0    0    0  0.00000000000E+00  0.00000000000E+00  0.45593999997E+02  0.45594000000E+02  0.51100000000E-03 0.  1.
         11   -1    0    0    0    0 -0.00000000000E+00 -0.00000000000E+00 -0.45593999997E+02  0.45594000000E+02  0.51100000000E-03 0. -1.
    9900012    2    1    2    0    0  0.10149008794E+02  0.12232909872E+02  0.99009622662E+01  0.72461667811E+02  0.70000127033E+02 0.  0.
         12    1    1    2    0    0 -0.10149008794E+02 -0.12232909872E+02 -0.99009622662E+01  0.18726332189E+02  0.00000000000E+00 0. -1.
         11    1    3    3    0    0  0.12230792465E+02  0.13305609070E+02 -0.14854899490E+02  0.23394434299E+02  0.51100000000E-03 0. -1.
        -11    1    3    3    0    0  0.17375967732E+02  0.56085140588E+01  0.21551717731E+02  0.28246348825E+02  0.51100000000E-03 0.  1.
         12    1    3    3    0    0 -0.19457751402E+02 -0.66812132561E+01  0.32041440256E+01  0.20820884687E+02  0.00000000000E+00 0. -1.
</event>
<event>
 7    1  0.3162486E-013  0.7246153E+02  0.7816164E-02  0.1226708E+00
        -11   -1    0    0    0    0  0.00000000000E+00  0.00000000000E+00  0.45593999997E+02  0.45594000000E+02  0.51100000000E-03 0. -1.
         11   -1    0    0    0    0 -0.00000000000E+00 -0.00000000000E+00 -0.45593999997E+02  0.45594000000E+02  0.51100000000E-03 0.  1.
    9900012    2    1    2    0    0 -0.16366543946E+02 -0.89465052449E+01  0.16664352948E+01  0.72461528805E+02  0.69999945952E+02 0.  0.
         12    1    1    2    0    0  0.16366543946E+02  0.89465052449E+01 -0.16664352948E+01  0.18726471195E+02  0.00000000000E+00 0. -1.
         11    1    3    3    0    0 -0.74635218828E+01 -0.18476891711E+02 -0.40189827720E+01  0.20328598303E+02  0.51100000000E-03 0. -1.
        -11    1    3    3    0    0 -0.22463834087E+02 -0.93411920282E+01 -0.74438232315E+01  0.25441938113E+02  0.51100000000E-03 0.  1.
        -12    1    3    3    0    0  0.13560812024E+02  0.18871578494E+02  0.13129241298E+02  0.26690992388E+02  0.00000000000E+00 0.  1.
</event>
<event>
 7    1  0.3162486E-013  0.7246160E+02  0.7816164E-02  0.1226708E+00
        -11   -1    0    0    0    0  0.00000000000E+00  0.00000000000E+00  0.45593999997E+02  0.45594000000E+02  0.51100000000E-03 0. -1.
         11   -1    0    0    0    0 -0.00000000000E+00 -0.00000000000E+00 -0.45593999997E+02  0.45594000000E+02  0.51100000000E-03 0.  1.
    9900012    2    1    2    0    0  0.10439433206E+02 -0.13314891724E+02  0.80255920395E+01  0.72461595249E+02  0.70000032508E+02 0.  0.
         12    1    1    2    0    0 -0.10439433206E+02  0.13314891724E+02 -0.80255920395E+01  0.18726404751E+02  0.00000000000E+00 0. -1.
         11    1    3    3    0    0  0.12974737949E+01  0.17382274126E+02  0.17322324385E+02  0.24574169659E+02  0.51100000000E-03 0. -1.
        -11    1    3    3    0    0  0.93843583663E+00  0.54563074014E+01 -0.92903341950E+01  0.10814909246E+02  0.51100000000E-03 0.  1.
         12    1    3    3    0    0  0.82035235748E+01 -0.36153473252E+02 -0.63981508493E-02  0.37072516345E+02  0.00000000000E+00 0. -1.
</event>
<event>
 7    1  0.3162486E-013  0.7246155E+02  0.7816164E-02  0.1226708E+00
        -11   -1    0    0    0    0  0.00000000000E+00  0.00000000000E+00  0.45593999997E+02  0.45594000000E+02  0.51100000000E-03 0.  1.
         11   -1    0    0    0    0 -0.00000000000E+00 -0.00000000000E+00 -0.45593999997E+02  0.45594000000E+02  0.51100000000E-03 0. -1.
    9900012    2    1    2    0    0  0.17169028376E+02 -0.17048795736E+01 -0.72799472102E+01  0.72461553964E+02  0.69999978727E+02 0.  0.
         12    1    1    2    0    0 -0.17169028376E+02  0.17048795736E+01  0.72799472102E+01  0.18726446036E+02  0.00000000000E+00 0. -1.
         11    1    3    3    0    0  0.27982086910E+02 -0.64011767184E+01 -0.33526552719E+00  0.28706874690E+02  0.51100000000E-03 0. -1.
        -11    1    3    3    0    0  0.14137360406E+02  0.69600712383E+01 -0.97734227422E+01  0.18542581893E+02  0.51100000000E-03 0.  1.
        -12    1    3    3    0    0 -0.24950418940E+02 -0.22637740935E+01  0.28287410593E+01  0.25212097382E+02  0.00000000000E+00 0.  1.
</event>
<event>
 7    1  0.3162486E-013  0.7246157E+02  0.7816164E-02  0.1226708E+00
        -11   -1    0    0    0    0  0.00000000000E+00  0.00000000000E+00  0.45593999997E+02  0.45594000000E+02  0.51100000000E-03 0. -1.
         11   -1    0    0    0    0 -0.00000000000E+00 -0.00000000000E+00 -0.45593999997E+02  0.45594000000E+02  0.51100000000E-03 0.  1.
    9900012    2    1    2    0    0  0.10354848237E+02 -0.13441450697E+01 -0.15545080857E+02  0.72461570901E+02  0.70000000790E+02 0.  0.
         12    1    1    2    0    0 -0.10354848237E+02  0.13441450697E+01  0.15545080857E+02  0.18726429099E+02  0.00000000000E+00 0. -1.
         11    1    3    3    0    0 -0.51920139073E+01 -0.11840357554E+01  0.11664905928E+02  0.12822986378E+02  0.51100000000E-03 0. -1.
        -11    1    3    3    0    0 -0.52080664428E+01  0.17480076526E+02 -0.26774125088E+02  0.32396462862E+02  0.51100000000E-03 0.  1.
        -12    1    3    3    0    0  0.20754928587E+02 -0.17640185841E+02 -0.43586169644E+00  0.27242121661E+02  0.00000000000E+00 0.  1.
</event>
<event>
 7    1  0.3162486E-013  0.7246155E+02  0.7816164E-02  0.1226708E+00
        -11   -1    0    0    0    0  0.00000000000E+00  0.00000000000E+00  0.45593999997E+02  0.45594000000E+02  0.51100000000E-03 0.  1.
         11   -1    0    0    0    0 -0.00000000000E+00 -0.00000000000E+00 -0.45593999997E+02  0.45594000000E+02  0.51100000000E-03 0. -1.
    9900012    2    1    2    0    0  0.13940012695E+02 -0.42389714228E+01  0.11763799895E+02  0.72461552910E+02  0.69999977354E+02 0.  0.
         12    1    1    2    0    0 -0.13940012695E+02  0.42389714228E+01 -0.11763799895E+02  0.18726447090E+02  0.00000000000E+00 0. -1.
         11    1    3    3    0    0 -0.49567502906E+01 -0.51221166989E+01  0.24014938470E+01  0.75214776393E+01  0.51100000000E-03 0. -1.
        -11    1    3    3    0    0 -0.10318859701E+02 -0.23147457645E+02  0.96272602117E+01  0.27110289567E+02  0.51100000000E-03 0.  1.
         12    1    3    3    0    0  0.29215622686E+02  0.24030602921E+02 -0.26495416404E+00  0.37829785704E+02  0.00000000000E+00 0. -1.
</event>
<event>
 7    1  0.3162486E-013  0.7246195E+02  0.7816164E-02  0.1226707E+00
        -11   -1    0    0    0    0  0.00000000000E+00  0.00000000000E+00  0.45593999997E+02  0.45594000000E+02  0.51100000000E-03 0. -1.
         11   -1    0    0    0    0 -0.00000000000E+00 -0.00000000000E+00 -0.45593999997E+02  0.45594000000E+02  0.51100000000E-03 0.  1.
    9900012    2    1    2    0    0  0.15994994019E+02 -0.74035367564E+01 -0.63255641244E+01  0.72461949918E+02  0.70000494529E+02 0.  0.
         12    1    1    2    0    0 -0.15994994019E+02  0.74035367564E+01  0.63255641244E+01  0.18726050082E+02  0.00000000000E+00 0. -1.
         11    1    3    3    0    0  0.33004993641E+01  0.10877766794E+01 -0.10205462748E+02  0.10780910180E+02  0.51100000000E-03 0. -1.
        -11    1    3    3    0    0  0.86522021862E+01  0.12716859851E+01 -0.27348845621E+02  0.28713013513E+02  0.51100000000E-03 0.  1.
         12    1    3    3    0    0  0.40422924691E+01 -0.97629994209E+01  0.31228744244E+02  0.32968026225E+02  0.00000000000E+00 0. -1.
</event>
<event>
 7    1  0.3162486E-013  0.7246156E+02  0.7816164E-02  0.1226708E+00
        -11   -1    0    0    0    0  0.00000000000E+00  0.00000000000E+00  0.45593999997E+02  0.45594000000E+02  0.51100000000E-03 0. -1.
         11   -1    0    0    0    0 -0.00000000000E+00 -0.00000000000E+00 -0.45593999997E+02  0.45594000000E+02  0.51100000000E-03 0.  1.
    9900012    2    1    2    0    0 -0.66361064339E+01  0.98077039888E+01 -0.14506915469E+02  0.72461559800E+02  0.69999986329E+02 0.  0.
         12    1    1    2    0    0  0.66361064339E+01 -0.98077039888E+01  0.14506915469E+02  0.18726440200E+02  0.00000000000E+00 0. -1.
         11    1    3    3    0    0  0.22066125389E+02 -0.65852209465E+01  0.51347703433E+01  0.23593323024E+02  0.51100000000E-03 0. -1.
        -11    1    3    3    0    0  0.15750735787E+01  0.14218661081E+02 -0.48896459724E+01  0.15118194922E+02  0.51100000000E-03 0.  1.
         12    1    3    3    0    0 -0.30277305402E+02  0.21742638547E+01 -0.14752039840E+02  0.33750041854E+02  0.00000000000E+00 0. -1.
</event>
<event>
 7    1  0.3162486E-013  0.7246157E+02  0.7816164E-02  0.1226708E+00
        -11   -1    0    0    0    0  0.00000000000E+00  0.00000000000E+00  0.45593999997E+02  0.45594000000E+02  0.51100000000E-03 0.  1.
         11   -1    0    0    0    0 -0.00000000000E+00 -0.00000000000E+00 -0.45593999997E+02  0.45594000000E+02  0.51100000000E-03 0. -1.
    9900012    2    1    2    0    0 -0.92039764978E+01 -0.98512145644E+01  0.12996907331E+02  0.72461569162E+02  0.69999998525E+02 0.  0.
         12    1    1    2    0    0  0.92039764978E+01  0.98512145644E+01 -0.12996907331E+02  0.18726430838E+02  0.00000000000E+00 0. -1.
         11    1    3    3    0    0 -0.12799769127E+02  0.14742470146E+02  0.12251278025E+02  0.23049258757E+02  0.51100000000E-03 0. -1.
        -11    1    3    3    0    0 -0.12297147720E+02  0.58958523678E+01  0.54946510707E+01  0.14702792519E+02  0.51100000000E-03 0.  1.
         12    1    3    3    0    0  0.15892940350E+02 -0.30489537078E+02 -0.47490217654E+01  0.34709517887E+02  0.00000000000E+00 0. -1.
</event>
<event>
 7    1  0.3162486E-013  0.7246139E+02  0.7816164E-02  0.1226708E+00
        -11   -1    0    0    0    0  0.00000000000E+00  0.00000000000E+00  0.45593999997E+02  0.45594000000E+02  0.51100000000E-03 0.  1.
         11   -1    0    0    0    0 -0.00000000000E+00 -0.00000000000E+00 -0.45593999997E+02  0.45594000000E+02  0.51100000000E-03 0. -1.
    9900012    2    1    2    0    0 -0.63998891971E+01  0.12008119511E+02  0.12865932961E+02  0.72461394678E+02  0.69999771227E+02 0.  0.
         12    1    1    2    0    0  0.63998891971E+01 -0.12008119511E+02 -0.12865932961E+02  0.18726605322E+02  0.00000000000E+00 0. -1.
         11    1    3    3    0    0 -0.31068806684E+01 -0.22969859351E+02  0.31752313879E+01  0.23395496163E+02  0.51100000000E-03 0.  1.
        -11    1    3    3    0    0 -0.37785216092E+01  0.12923766824E+02  0.20479488010E+02  0.24509394197E+02  0.51100000000E-03 0. -1.
         12    1    3    3    0    0  0.48551308053E+00  0.22054212038E+02 -0.10788786437E+02  0.24556504319E+02  0.00000000000E+00 0. -1.
</event>
<event>
 7    1  0.3162486E-013  0.7246157E+02  0.7816164E-02  0.1226708E+00
        -11   -1    0    0    0    0  0.00000000000E+00  0.00000000000E+00  0.45593999997E+02  0.45594000000E+02  0.51100000000E-03 0. -1.
         11   -1    0    0    0    0 -0.00000000000E+00 -0.00000000000E+00 -0.45593999997E+02  0.45594000000E+02  0.51100000000E-03 0.  1.
    9900012    2    1    2    0    0  0.52671789203E+01 -0.64287035304E+00 -0.17958922143E+02  0.72461565727E+02  0.69999994050E+02 0.  0.
         12    1    1    2    0    0 -0.52671789203E+01  0.64287035304E+00  0.17958922143E+02  0.18726434273E+02  0.00000000000E+00 0. -1.
         11    1    3    3    0    0  0.20702755168E+01 -0.41938504738E+01 -0.57438134794E+01  0.74071462831E+01  0.51100000000E-03 0. -1.
        -11    1    3    3    0    0 -0.20664281674E+02 -0.15786981106E+02 -0.20647117322E+02  0.33204589495E+02  0.51100000000E-03 0.  1.
         12    1    3    3    0    0  0.23861185078E+02  0.19337961227E+02  0.84320086591E+01  0.31849829949E+02  0.00000000000E+00 0. -1.
</event>
<event>
 7    1  0.3162486E-013  0.7246160E+02  0.7816164E-02  0.1226708E+00
        -11   -1    0    0    0    0  0.00000000000E+00  0.00000000000E+00  0.45593999997E+02  0.45594000000E+02  0.51100000000E-03 0.  1.
         11   -1    0    0    0    0 -0.00000000000E+00 -0.00000000000E+00 -0.45593999997E+02  0.45594000000E+02  0.51100000000E-03 0. -1.
    9900012    2    1    2    0    0  0.19235262253E+01  0.32770607982E+01  0.18336816398E+02  0.72461603757E+02  0.70000043591E+02 0.  0.
         12    1    1    2    0    0 -0.19235262253E+01 -0.32770607982E+01 -0.18336816398E+02  0.18726396243E+02  0.00000000000E+00 0. -1.
         11    1    3    3    0    0  0.15563591091E+02  0.54468839809E+01  0.12366445513E+02  0.20611232075E+02  0.51100000000E-03 0. -1.
        -11    1    3    3    0    0 -0.18092612394E+02  0.13038311385E+02 -0.14019254101E+02  0.26341595867E+02  0.51100000000E-03 0.  1.
         12    1    3    3    0    0  0.44525475278E+01 -0.15208134568E+02  0.19989624986E+02  0.25508775815E+02  0.00000000000E+00 0. -1.
</event>
<event>
 7    1  0.3162486E-013  0.7246158E+02  0.7816164E-02  0.1226708E+00
        -11   -1    0    0    0    0  0.00000000000E+00  0.00000000000E+00  0.45593999997E+02  0.45594000000E+02  0.51100000000E-03 0.  1.
         11   -1    0    0    0    0 -0.00000000000E+00 -0.00000000000E+00 -0.45593999997E+02  0.45594000000E+02  0.51100000000E-03 0. -1.
    9900012    2    1    2    0    0  0.16831867868E+00  0.74611756398E+01  0.17175017239E+02  0.72461583091E+02  0.70000016670E+02 0.  0.
         12    1    1    2    0    0 -0.16831867868E+00 -0.74611756398E+01 -0.17175017239E+02  0.18726416909E+02  0.00000000000E+00 0. -1.
         11    1    3    3    0    0  0.84798258537E+00 -0.34592619546E+01  0.25679996905E+01  0.43909213620E+01  0.51100000000E-03 0. -1.
        -11    1    3    3    0    0 -0.11338396949E+02 -0.92138684962E+01  0.34727755933E+02  0.37675876239E+02  0.51100000000E-03 0.  1.
         12    1    3    3    0    0  0.10658733042E+02  0.20134306091E+02 -0.20120738384E+02  0.30394785489E+02  0.00000000000E+00 0. -1.
</event>
<event>
 7    1  0.3162486E-013  0.7246154E+02  0.7816164E-02  0.1226708E+00
        -11   -1    0    0    0    0  0.00000000000E+00  0.00000000000E+00  0.45593999997E+02  0.45594000000E+02  0.51100000000E-03 0.  1.
         11   -1    0    0    0    0 -0.00000000000E+00 -0.00000000000E+00 -0.45593999997E+02  0.45594000000E+02  0.51100000000E-03 0. -1.
    9900012    2    1    2    0    0  0.11496038104E+02 -0.14344457308E+02 -0.35718329331E+01  0.72461539095E+02  0.69999959356E+02 0.  0.
         12    1    1    2    0    0 -0.11496038104E+02  0.14344457308E+02  0.35718329331E+01  0.18726460905E+02  0.00000000000E+00 0. -1.
         11    1    3    3    0    0  0.10223763969E+02 -0.23196373641E+02  0.20694925117E+02  0.32724257450E+02  0.51100000000E-03 0. -1.
        -11    1    3    3    0    0 -0.36578628144E+01  0.97282236386E+01  0.39209913826E+01  0.11108216293E+02  0.51100000000E-03 0.  1.
         12    1    3    3    0    0  0.49301369499E+01 -0.87630730526E+00 -0.28187749433E+02  0.28629065352E+02  0.00000000000E+00 0. -1.
</event>
<event>
 7    1  0.3162486E-013  0.7246157E+02  0.7816164E-02  0.1226708E+00
        -11   -1    0    0    0    0  0.00000000000E+00  0.00000000000E+00  0.45593999997E+02  0.45594000000E+02  0.51100000000E-03 0. -1.
         11   -1    0    0    0    0 -0.00000000000E+00 -0.00000000000E+00 -0.45593999997E+02  0.45594000000E+02  0.51100000000E-03 0.  1.
    9900012    2    1    2    0    0  0.85930820342E+01  0.74300704746E+01 -0.14887309769E+02  0.72461574867E+02  0.70000005957E+02 0.  0.
         12    1    1    2    0    0 -0.85930820342E+01 -0.74300704746E+01  0.14887309769E+02  0.18726425133E+02  0.00000000000E+00 0. -1.
         11    1    3    3    0    0  0.65166884009E+01  0.24892671830E+02  0.76055249234E+01  0.26832002314E+02  0.51100000000E-03 0. -1.
        -11    1    3    3    0    0  0.11481070090E+02  0.12173505598E+01 -0.21841937914E+02  0.24705609988E+02  0.51100000000E-03 0.  1.
        -12    1    3    3    0    0 -0.94046764563E+01 -0.18679951915E+02 -0.65089677823E+00  0.20923962565E+02  0.00000000000E+00 0.  1.
</event>
<event>
 7    1  0.3162486E-013  0.7246158E+02  0.7816164E-02  0.1226708E+00
        -11   -1    0    0    0    0  0.00000000000E+00  0.00000000000E+00  0.45593999997E+02  0.45594000000E+02  0.51100000000E-03 0. -1.
         11   -1    0    0    0    0 -0.00000000000E+00 -0.00000000000E+00 -0.45593999997E+02  0.45594000000E+02  0.51100000000E-03 0.  1.
    9900012    2    1    2    0    0  0.13280381821E+02 -0.11696977211E+02  0.61229905731E+01  0.72461579340E+02  0.70000011784E+02 0.  0.
         12    1    1    2    0    0 -0.13280381821E+02  0.11696977211E+02 -0.61229905731E+01  0.18726420660E+02  0.00000000000E+00 0. -1.
         11    1    3    3    0    0  0.14224126277E+02 -0.19540092905E+02  0.39296735979E+01  0.24486390791E+02  0.51100000000E-03 0. -1.
        -11    1    3    3    0    0  0.11639992145E+02 -0.16440529214E+02 -0.22386451115E+01  0.20268003112E+02  0.51100000000E-03 0.  1.
         12    1    3    3    0    0 -0.12583736602E+02  0.24283644908E+02  0.44319620867E+01  0.27707185437E+02  0.00000000000E+00 0. -1.
</event>
<event>
 7    1  0.3162486E-013  0.7246148E+02  0.7816164E-02  0.1226708E+00
        -11   -1    0    0    0    0  0.00000000000E+00  0.00000000000E+00  0.45593999997E+02  0.45594000000E+02  0.51100000000E-03 0.  1.
         11   -1    0    0    0    0 -0.00000000000E+00 -0.00000000000E+00 -0.45593999997E+02  0.45594000000E+02  0.51100000000E-03 0. -1.
    9900012    2    1    2    0    0  0.34758795789E+01 -0.17410631561E+02  0.59557416823E+01  0.72461476319E+02  0.69999877580E+02 0.  0.
         12    1    1    2    0    0 -0.34758795789E+01  0.17410631561E+02 -0.59557416823E+01  0.18726523681E+02  0.00000000000E+00 0. -1.
         11    1    3    3    0    0 -0.30757666325E+01 -0.35745576991E+02 -0.60439666587E+01  0.36383184963E+02  0.51100000000E-03 0. -1.
        -11    1    3    3    0    0 -0.66478181181E+01 -0.20960248351E+01 -0.29045077857E+01  0.75513556120E+01  0.51100000000E-03 0.  1.
        -12    1    3    3    0    0  0.13199464329E+02  0.20430970266E+02  0.14904216127E+02  0.28526935744E+02  0.00000000000E+00 0.  1.
</event>
<event>
 7    1  0.3162486E-013  0.7246154E+02  0.7816164E-02  0.1226708E+00
        -11   -1    0    0    0    0  0.00000000000E+00  0.00000000000E+00  0.45593999997E+02  0.45594000000E+02  0.51100000000E-03 0. -1.
         11   -1    0    0    0    0 -0.00000000000E+00 -0.00000000000E+00 -0.45593999997E+02  0.45594000000E+02  0.51100000000E-03 0.  1.
    9900012    2    1    2    0    0  0.28299533769E+01  0.18212616434E+02 -0.33124497458E+01  0.72461538594E+02  0.69999958704E+02 0.  0.
         12    1    1    2    0    0 -0.28299533769E+01 -0.18212616434E+02  0.33124497458E+01  0.18726461406E+02  0.00000000000E+00 0. -1.
         11    1    3    3    0    0  0.38794664349E+01  0.76707689866E+01 -0.10523270411E+02  0.13587868747E+02  0.51100000000E-03 0. -1.
        -11    1    3    3    0    0  0.36409389477E+01  0.11411349527E+02 -0.24253334304E+02  0.27049945649E+02  0.51100000000E-03 0.  1.
         12    1    3    3    0    0 -0.46904520057E+01 -0.86950207951E+00  0.31464154970E+02  0.31823724198E+02  0.00000000000E+00 0. -1.
</event>
<event>
 7    1  0.3162486E-013  0.7246156E+02  0.7816164E-02  0.1226708E+00
        -11   -1    0    0    0    0  0.00000000000E+00  0.00000000000E+00  0.45593999997E+02  0.45594000000E+02  0.51100000000E-03 0. -1.
         11   -1    0    0    0    0 -0.00000000000E+00 -0.00000000000E+00 -0.45593999997E+02  0.45594000000E+02  0.51100000000E-03 0.  1.
    9900012    2    1    2    0    0  0.93688296096E+01 -0.21877422371E+01 -0.16066060710E+02  0.72461561708E+02  0.69999988815E+02 0.  0.
         12    1    1    2    0    0 -0.93688296096E+01  0.21877422371E+01  0.16066060710E+02  0.18726438292E+02  0.00000000000E+00 0. -1.
         11    1    3    3    0    0  0.58309453363E+01 -0.51877243384E+01 -0.59010335602E+01  0.97844061989E+01  0.51100000000E-03 0. -1.
        -11    1    3    3    0    0  0.29435675650E+02  0.96938606034E+01  0.57960745225E+01  0.31528152729E+02  0.51100000000E-03 0.  1.
         12    1    3    3    0    0 -0.25897791377E+02 -0.66938785021E+01 -0.15961101673E+02  0.31149002780E+02  0.00000000000E+00 0. -1.
</event>
<event>
 7    1  0.3162486E-013  0.7246156E+02  0.7816164E-02  0.1226708E+00
        -11   -1    0    0    0    0  0.00000000000E+00  0.00000000000E+00  0.45593999997E+02  0.45594000000E+02  0.51100000000E-03 0.  1.
         11   -1    0    0    0    0 -0.00000000000E+00 -0.00000000000E+00 -0.45593999997E+02  0.45594000000E+02  0.51100000000E-03 0. -1.
    9900012    2    1    2    0    0 -0.73258584056E+01 -0.10546214470E+02  0.13630432425E+02  0.72461560693E+02  0.69999987492E+02 0.  0.
         12    1    1    2    0    0  0.73258584056E+01  0.10546214470E+02 -0.13630432425E+02  0.18726439307E+02  0.00000000000E+00 0. -1.
         11    1    3    3    0    0 -0.32762010587E+02  0.73791169172E+01 -0.18267816364E+01  0.33632392653E+02  0.51100000000E-03 0. -1.
        -11    1    3    3    0    0 -0.15140123504E+01  0.16934309483E+01  0.12537461617E+01  0.25945753936E+01  0.51100000000E-03 0.  1.
        -12    1    3    3    0    0  0.26950164531E+02 -0.19618762336E+02  0.14203467900E+02  0.36234592646E+02  0.00000000000E+00 0.  1.
</event>
<event>
 7    1  0.3162486E-013  0.7246152E+02  0.7816164E-02  0.1226708E+00
        -11   -1    0    0    0    0  0.00000000000E+00  0.00000000000E+00  0.45593999997E+02  0.45594000000E+02  0.51100000000E-03 0.  1.
         11   -1    0    0    0    0 -0.00000000000E+00 -0.00000000000E+00 -0.45593999997E+02  0.45594000000E+02  0.51100000000E-03 0. -1.
    9900012    2    1    2    0    0  0.51615357649E+01  0.13580904840E+02  0.11815190031E+02  0.72461517597E+02  0.69999931352E+02 0.  0.
         12    1    1    2    0    0 -0.51615357649E+01 -0.13580904840E+02 -0.11815190031E+02  0.18726482403E+02  0.00000000000E+00 0. -1.
         11    1    3    3    0    0  0.10032024141E+02  0.19188663771E+02 -0.22808655187E+02  0.31449659416E+02  0.51100000000E-03 0. -1.
        -11    1    3    3    0    0 -0.11848983744E+02 -0.59857421640E+01  0.14262528406E+02  0.19484538532E+02  0.51100000000E-03 0.  1.
        -12    1    3    3    0    0  0.69784953677E+01  0.37798323210E+00  0.20361316812E+02  0.21527319648E+02  0.00000000000E+00 0.  1.
</event>
<event>
 7    1  0.3162486E-013  0.7246156E+02  0.7816164E-02  0.1226708E+00
        -11   -1    0    0    0    0  0.00000000000E+00  0.00000000000E+00  0.45593999997E+02  0.45594000000E+02  0.51100000000E-03 0.  1.
         11   -1    0    0    0    0 -0.00000000000E+00 -0.00000000000E+00 -0.45593999997E+02  0.45594000000E+02  0.51100000000E-03 0. -1.
    9900012    2    1    2    0    0  0.14634154777E+02  0.89549933398E+01  0.75052831618E+01  0.72461557009E+02  0.69999982693E+02 0.  0.
         12    1    1    2    0    0 -0.14634154777E+02 -0.89549933398E+01 -0.75052831618E+01  0.18726442991E+02  0.00000000000E+00 0. -1.
         11    1    3    3    0    0 -0.59289196484E+01 -0.65282247243E+01 -0.17456303317E+02  0.19557411179E+02  0.51100000000E-03 0. -1.
        -11    1    3    3    0    0 -0.10185810485E+02  0.10572039973E+02  0.12792209869E+02  0.19472015767E+02  0.51100000000E-03 0.  1.
        -12    1    3    3    0    0  0.30748884911E+02  0.49111780909E+01  0.12169376610E+02  0.33432130063E+02  0.00000000000E+00 0.  1.
</event>
<event>
 7    1  0.3162486E-013  0.7246155E+02  0.7816164E-02  0.1226708E+00
        -11   -1    0    0    0    0  0.00000000000E+00  0.00000000000E+00  0.45593999997E+02  0.45594000000E+02  0.51100000000E-03 0. -1.
         11   -1    0    0    0    0 -0.00000000000E+00 -0.00000000000E+00 -0.45593999997E+02  0.45594000000E+02  0.51100000000E-03 0.  1.
    9900012    2    1    2    0    0 -0.14692561221E+02 -0.52791387392E+01 -0.10341153494E+02  0.72461545006E+02  0.69999967057E+02 0.  0.
         12    1    1    2    0    0  0.14692561221E+02  0.52791387392E+01  0.10341153494E+02  0.18726454994E+02  0.00000000000E+00 0. -1.
         11    1    3    3    0    0 -0.17403026729E+02 -0.82701328527E+01  0.16621431688E+02  0.25446658491E+02  0.51100000000E-03 0. -1.
        -11    1    3    3    0    0 -0.48669240632E+01  0.11942294215E+01  0.89555076248E+01  0.10262273180E+02  0.51100000000E-03 0.  1.
        -12    1    3    3    0    0  0.75773895712E+01  0.17967646920E+01 -0.35918092806E+02  0.36752613334E+02  0.00000000000E+00 0.  1.
</event>
<event>
 7    1  0.3162486E-013  0.7246151E+02  0.7816164E-02  0.1226708E+00
        -11   -1    0    0    0    0  0.00000000000E+00  0.00000000000E+00  0.45593999997E+02  0.45594000000E+02  0.51100000000E-03 0.  1.
         11   -1    0    0    0    0 -0.00000000000E+00 -0.00000000000E+00 -0.45593999997E+02  0.45594000000E+02  0.51100000000E-03 0. -1.
    9900012    2    1    2    0    0  0.18280651383E+02  0.33526430810E+01 -0.22932143550E+01  0.72461514407E+02  0.69999927196E+02 0.  0.
         12    1    1    2    0    0 -0.18280651383E+02 -0.33526430810E+01  0.22932143550E+01  0.18726485593E+02  0.00000000000E+00 0. -1.
         11    1    3    3    0    0  0.12781195680E+02 -0.18549519701E+02 -0.17265813368E+02  0.28382247192E+02  0.51100000000E-03 0. -1.
        -11    1    3    3    0    0  0.15609746300E+02  0.24916164138E+02  0.55234744520E+01  0.29916353140E+02  0.51100000000E-03 0.  1.
         12    1    3    3    0    0 -0.10110290597E+02 -0.30140013562E+01  0.94491245608E+01  0.14162914075E+02  0.00000000000E+00 0. -1.
</event>
<event>
 7    1  0.3162486E-013  0.7246140E+02  0.7816164E-02  0.1226708E+00
        -11   -1    0    0    0    0  0.00000000000E+00  0.00000000000E+00  0.45593999997E+02  0.45594000000E+02  0.51100000000E-03 0.  1.
         11   -1    0    0    0    0 -0.00000000000E+00 -0.00000000000E+00 -0.45593999997E+02  0.45594000000E+02  0.51100000000E-03 0. -1.
    9900012    2    1    2    0    0 -0.17926034481E+01  0.17588700445E+02  0.61732966283E+01  0.72461403893E+02  0.69999783231E+02 0.  0.
         12    1    1    2    0    0  0.17926034481E+01 -0.17588700445E+02 -0.61732966283E+01  0.18726596107E+02  0.00000000000E+00 0. -1.
         11    1    3    3    0    0  0.84845432221E+01  0.11252898635E+02  0.11274230297E+02  0.18047810682E+02  0.51100000000E-03 0. -1.
        -11    1    3    3    0    0 -0.75371877232E+00  0.19247714346E+02 -0.23247895471E+02  0.30191178242E+02  0.51100000000E-03 0.  1.
         12    1    3    3    0    0 -0.95234278979E+01 -0.12911912536E+02  0.18146961803E+02  0.24222414969E+02  0.00000000000E+00 0. -1.
</event>
<event>
 7    1  0.3162486E-013  0.7246153E+02  0.7816164E-02  0.1226708E+00
        -11   -1    0    0    0    0  0.00000000000E+00  0.00000000000E+00  0.45593999997E+02  0.45594000000E+02  0.51100000000E-03 0. -1.
         11   -1    0    0    0    0 -0.00000000000E+00 -0.00000000000E+00 -0.45593999997E+02  0.45594000000E+02  0.51100000000E-03 0.  1.
    9900012    2    1    2    0    0  0.63332600517E+01  0.92998430447E+01 -0.14969410218E+02  0.72461534615E+02  0.69999953521E+02 0.  0.
         12    1    1    2    0    0 -0.63332600517E+01 -0.92998430447E+01  0.14969410218E+02  0.18726465385E+02  0.00000000000E+00 0. -1.
         11    1    3    3    0    0  0.14565100683E+02 -0.38380394024E+01  0.15977141434E+01  0.15146794879E+02  0.51100000000E-03 0. -1.
        -11    1    3    3    0    0 -0.16044102327E+01 -0.13777788240E+02  0.11387702023E+02  0.17946624713E+02  0.51100000000E-03 0.  1.
        -12    1    3    3    0    0 -0.66274303988E+01  0.26915670687E+02 -0.27954826385E+02  0.39368115022E+02  0.00000000000E+00 0.  1.
</event>
<event>
 7    1  0.3162486E-013  0.7246157E+02  0.7816164E-02  0.1226708E+00
        -11   -1    0    0    0    0  0.00000000000E+00  0.00000000000E+00  0.45593999997E+02  0.45594000000E+02  0.51100000000E-03 0.  1.
         11   -1    0    0    0    0 -0.00000000000E+00 -0.00000000000E+00 -0.45593999997E+02  0.45594000000E+02  0.51100000000E-03 0. -1.
    9900012    2    1    2    0    0  0.16529853120E+01  0.57853137699E+01  0.17733501544E+02  0.72461567001E+02  0.69999995710E+02 0.  0.
         12    1    1    2    0    0 -0.16529853120E+01 -0.57853137699E+01 -0.17733501544E+02  0.18726432999E+02  0.00000000000E+00 0. -1.
         11    1    3    3    0    0 -0.54498168315E+01 -0.42348913230E+01 -0.80240917260E+01  0.10583990566E+02  0.51100000000E-03 0. -1.
        -11    1    3    3    0    0 -0.17122814071E+02 -0.53100906901E+01 -0.61776789084E+01  0.18961844367E+02  0.51100000000E-03 0.  1.
         12    1    3    3    0    0  0.24225616215E+02  0.15330295783E+02  0.31935272179E+02  0.42915732067E+02  0.00000000000E+00 0. -1.
</event>
<event>
 7    1  0.3162486E-013  0.7246148E+02  0.7816164E-02  0.1226708E+00
        -11   -1    0    0    0    0  0.00000000000E+00  0.00000000000E+00  0.45593999997E+02  0.45594000000E+02  0.51100000000E-03 0.  1.
         11   -1    0    0    0    0 -0.00000000000E+00 -0.00000000000E+00 -0.45593999997E+02  0.45594000000E+02  0.51100000000E-03 0. -1.
    9900012    2    1    2    0    0  0.18631153687E+02  0.17468228548E+01  0.71496725292E+00  0.72461482545E+02  0.69999885691E+02 0.  0.
         12    1    1    2    0    0 -0.18631153687E+02 -0.17468228548E+01 -0.71496725292E+00  0.18726517455E+02  0.00000000000E+00 0. -1.
         11    1    3    3    0    0 -0.35990411190E+01 -0.59267688390E+01  0.88864588946E+00  0.69906636041E+01  0.51100000000E-03 0. -1.
        -11    1    3    3    0    0  0.35707023673E+02 -0.94298674742E+01  0.13992685234E+02  0.39493153590E+02  0.51100000000E-03 0.  1.
         12    1    3    3    0    0 -0.13476828866E+02  0.17103459168E+02 -0.14166363871E+02  0.25977665352E+02  0.00000000000E+00 0. -1.
</event>
<event>
 7    1  0.3162486E-013  0.7246151E+02  0.7816164E-02  0.1226708E+00
        -11   -1    0    0    0    0  0.00000000000E+00  0.00000000000E+00  0.45593999997E+02  0.45594000000E+02  0.51100000000E-03 0. -1.
         11   -1    0    0    0    0 -0.00000000000E+00 -0.00000000000E+00 -0.45593999997E+02  0.45594000000E+02  0.51100000000E-03 0.  1.
    9900012    2    1    2    0    0 -0.13459153260E+02  0.95512717685E+01 -0.88490558710E+01  0.72461511042E+02  0.69999922813E+02 0.  0.
         12    1    1    2    0    0  0.13459153260E+02 -0.95512717685E+01  0.88490558710E+01  0.18726488958E+02  0.00000000000E+00 0. -1.
         11    1    3    3    0    0 -0.17448250896E+02  0.15283334486E+02 -0.26689834262E+02  0.35360557483E+02  0.51100000000E-03 0. -1.
        -11    1    3    3    0    0 -0.91114003009E+01 -0.98714755175E+01 -0.13476346297E+01  0.13501102314E+02  0.51100000000E-03 0.  1.
         12    1    3    3    0    0  0.13100497938E+02  0.41394128003E+01  0.19188413021E+02  0.23599851245E+02  0.00000000000E+00 0. -1.
</event>
<event>
 7    1  0.3162486E-013  0.7246155E+02  0.7816164E-02  0.1226708E+00
        -11   -1    0    0    0    0  0.00000000000E+00  0.00000000000E+00  0.45593999997E+02  0.45594000000E+02  0.51100000000E-03 0. -1.
         11   -1    0    0    0    0 -0.00000000000E+00 -0.00000000000E+00 -0.45593999997E+02  0.45594000000E+02  0.51100000000E-03 0.  1.
    9900012    2    1    2    0    0  0.72176734727E+01 -0.13021291590E+02 -0.11359189560E+02  0.72461547253E+02  0.69999969984E+02 0.  0.
         12    1    1    2    0    0 -0.72176734727E+01  0.13021291590E+02  0.11359189560E+02  0.18726452747E+02  0.00000000000E+00 0. -1.
         11    1    3    3    0    0 -0.44587303689E+01  0.11399391350E+02 -0.67080057474E+01  0.13957927533E+02  0.51100000000E-03 0.  1.
        -11    1    3    3    0    0 -0.15853680482E+02 -0.24914628256E+02  0.36239442727E+01  0.29752493312E+02  0.51100000000E-03 0. -1.
         12    1    3    3    0    0  0.27530084324E+02  0.49394531515E+00 -0.82751280856E+01  0.28751126407E+02  0.00000000000E+00 0. -1.
</event>
<event>
 7    1  0.3162486E-013  0.7246142E+02  0.7816164E-02  0.1226708E+00
        -11   -1    0    0    0    0  0.00000000000E+00  0.00000000000E+00  0.45593999997E+02  0.45594000000E+02  0.51100000000E-03 0. -1.
         11   -1    0    0    0    0 -0.00000000000E+00 -0.00000000000E+00 -0.45593999997E+02  0.45594000000E+02  0.51100000000E-03 0.  1.
    9900012    2    1    2    0    0  0.18484488185E+02 -0.27444496370E+01  0.12150724173E+01  0.72461422409E+02  0.69999807352E+02 0.  0.
         12    1    1    2    0    0 -0.18484488185E+02  0.27444496370E+01 -0.12150724173E+01  0.18726577591E+02  0.00000000000E+00 0. -1.
         11    1    3    3    0    0 -0.13629895462E+02 -0.23687713571E+02  0.19174653414E+01  0.27396322712E+02  0.51100000000E-03 0. -1.
        -11    1    3    3    0    0  0.79473068901E-01 -0.94973116166E-01  0.61334975570E+01  0.61347476235E+01  0.51100000000E-03 0.  1.
        -12    1    3    3    0    0  0.32034910578E+02  0.21038237050E+02 -0.68358904811E+01  0.38930352074E+02  0.00000000000E+00 0.  1.
</event>
<event>
 7    1  0.3162486E-013  0.7246157E+02  0.7816164E-02  0.1226708E+00
        -11   -1    0    0    0    0  0.00000000000E+00  0.00000000000E+00  0.45593999997E+02  0.45594000000E+02  0.51100000000E-03 0.  1.
         11   -1    0    0    0    0 -0.00000000000E+00 -0.00000000000E+00 -0.45593999997E+02  0.45594000000E+02  0.51100000000E-03 0. -1.
    9900012    2    1    2    0    0 -0.16218279156E+01 -0.20713831075E+01  0.18540720101E+02  0.72461567995E+02  0.69999997005E+02 0.  0.
         12    1    1    2    0    0  0.16218279156E+01  0.20713831075E+01 -0.18540720101E+02  0.18726432005E+02  0.00000000000E+00 0. -1.
         11    1    3    3    0    0 -0.20042503244E+01 -0.96128397766E+01  0.14045662134E+02  0.17137804205E+02  0.51100000000E-03 0. -1.
        -11    1    3    3    0    0  0.22864038420E+02 -0.11574916228E+02  0.24017831102E+01  0.25739298765E+02  0.51100000000E-03 0.  1.
         12    1    3    3    0    0 -0.22481616011E+02  0.19116372897E+02  0.20932748566E+01  0.29584465025E+02  0.00000000000E+00 0. -1.
</event>
<event>
 7    1  0.3162486E-013  0.7246161E+02  0.7816164E-02  0.1226708E+00
        -11   -1    0    0    0    0  0.00000000000E+00  0.00000000000E+00  0.45593999997E+02  0.45594000000E+02  0.51100000000E-03 0.  1.
         11   -1    0    0    0    0 -0.00000000000E+00 -0.00000000000E+00 -0.45593999997E+02  0.45594000000E+02  0.51100000000E-03 0. -1.
    9900012    2    1    2    0    0 -0.10677457371E+02  0.14174314884E+02  0.59798388219E+01  0.72461607644E+02  0.70000048655E+02 0.  0.
         12    1    1    2    0    0  0.10677457371E+02 -0.14174314884E+02 -0.59798388219E+01  0.18726392356E+02  0.00000000000E+00 0. -1.
         11    1    3    3    0    0 -0.33838086693E+02 -0.23007224918E+01 -0.47488470956E+01  0.34247058035E+02  0.51100000000E-03 0. -1.
        -11    1    3    3    0    0  0.63348778572E+01  0.15703681569E+02  0.12824048746E+02  0.21241292776E+02  0.51100000000E-03 0.  1.
        -12    1    3    3    0    0  0.16825751465E+02  0.77135580704E+00 -0.20953628290E+01  0.16973256833E+02  0.00000000000E+00 0.  1.
</event>
<event>
 7    1  0.3162486E-013  0.7246151E+02  0.7816164E-02  0.1226708E+00
        -11   -1    0    0    0    0  0.00000000000E+00  0.00000000000E+00  0.45593999997E+02  0.45594000000E+02  0.51100000000E-03 0.  1.
         11   -1    0    0    0    0 -0.00000000000E+00 -0.00000000000E+00 -0.45593999997E+02  0.45594000000E+02  0.51100000000E-03 0. -1.
    9900012    2    1    2    0    0  0.11540305078E+01 -0.18009230675E+02  0.50017139380E+01  0.72461512923E+02  0.69999925264E+02 0.  0.
         12    1    1    2    0    0 -0.11540305078E+01  0.18009230675E+02 -0.50017139380E+01  0.18726487077E+02  0.00000000000E+00 0. -1.
         11    1    3    3    0    0 -0.22290324281E+02 -0.96177200267E+01 -0.16998019876E+01  0.24336154629E+02  0.51100000000E-03 0. -1.
        -11    1    3    3    0    0 -0.14783619776E+01  0.18415251025E+01 -0.13969268096E+02  0.14167470496E+02  0.51100000000E-03 0.  1.
        -12    1    3    3    0    0  0.24922716766E+02 -0.10233035751E+02  0.20670784022E+02  0.33957887799E+02  0.00000000000E+00 0.  1.
</event>
<event>
 7    1  0.3162486E-013  0.7246157E+02  0.7816164E-02  0.1226708E+00
        -11   -1    0    0    0    0  0.00000000000E+00  0.00000000000E+00  0.45593999997E+02  0.45594000000E+02  0.51100000000E-03 0.  1.
         11   -1    0    0    0    0 -0.00000000000E+00 -0.00000000000E+00 -0.45593999997E+02  0.45594000000E+02  0.51100000000E-03 0. -1.
    9900012    2    1    2    0    0 -0.22598694386E+01 -0.11179953483E+02  0.14851969306E+02  0.72461565154E+02  0.69999993304E+02 0.  0.
         12    1    1    2    0    0  0.22598694386E+01  0.11179953483E+02 -0.14851969306E+02  0.18726434846E+02  0.00000000000E+00 0. -1.
         11    1    3    3    0    0  0.83359844095E+01 -0.30858668662E+02  0.13013398714E+02  0.34512238612E+02  0.51100000000E-03 0. -1.
        -11    1    3    3    0    0  0.90009759476E+01  0.54929318981E+01 -0.64683255748E+01  0.12370493315E+02  0.51100000000E-03 0.  1.
        -12    1    3    3    0    0 -0.19596829796E+02  0.14185783282E+02  0.83068961671E+01  0.25578833227E+02  0.00000000000E+00 0.  1.
</event>
<event>
 7    1  0.3162486E-013  0.7246156E+02  0.7816164E-02  0.1226708E+00
        -11   -1    0    0    0    0  0.00000000000E+00  0.00000000000E+00  0.45593999997E+02  0.45594000000E+02  0.51100000000E-03 0. -1.
         11   -1    0    0    0    0 -0.00000000000E+00 -0.00000000000E+00 -0.45593999997E+02  0.45594000000E+02  0.51100000000E-03 0.  1.
    9900012    2    1    2    0    0  0.91765620144E+01  0.46285034334E+01  0.15653981493E+02  0.72461562244E+02  0.69999989513E+02 0.  0.
         12    1    1    2    0    0 -0.91765620144E+01 -0.46285034334E+01 -0.15653981493E+02  0.18726437756E+02  0.00000000000E+00 0. -1.
         11    1    3    3    0    0  0.41172228623E+01 -0.41432942103E+01 -0.12071215851E+02  0.13410170148E+02  0.51100000000E-03 0.  1.
        -11    1    3    3    0    0 -0.17937412876E+02  0.17897404909E+02  0.22227965473E+02  0.33706829167E+02  0.51100000000E-03 0. -1.
         12    1    3    3    0    0  0.22996752028E+02 -0.91256072653E+01  0.54972318714E+01  0.25344562929E+02  0.00000000000E+00 0. -1.
</event>
<event>
 7    1  0.3162486E-013  0.7246158E+02  0.7816164E-02  0.1226708E+00
        -11   -1    0    0    0    0  0.00000000000E+00  0.00000000000E+00  0.45593999997E+02  0.45594000000E+02  0.51100000000E-03 0.  1.
         11   -1    0    0    0    0 -0.00000000000E+00 -0.00000000000E+00 -0.45593999997E+02  0.45594000000E+02  0.51100000000E-03 0. -1.
    9900012    2    1    2    0    0  0.24907899712E+01  0.63318659905E+01  0.17446556039E+02  0.72461578045E+02  0.70000010097E+02 0.  0.
         12    1    1    2    0    0 -0.24907899712E+01 -0.63318659905E+01 -0.17446556039E+02  0.18726421955E+02  0.00000000000E+00 0. -1.
         11    1    3    3    0    0  0.99418372649E+00 -0.30971683413E+01  0.29580847590E+01  0.43967168113E+01  0.51100000000E-03 0. -1.
        -11    1    3    3    0    0 -0.22450949116E+02  0.27021723271E+02  0.15347091666E+02  0.38337342991E+02  0.51100000000E-03 0.  1.
         12    1    3    3    0    0  0.23947555361E+02 -0.17592688940E+02 -0.85862038538E+00  0.29727518242E+02  0.00000000000E+00 0. -1.
</event>
<event>
 7    1  0.3162486E-013  0.7246129E+02  0.7816164E-02  0.1226709E+00
        -11   -1    0    0    0    0  0.00000000000E+00  0.00000000000E+00  0.45593999997E+02  0.45594000000E+02  0.51100000000E-03 0.  1.
         11   -1    0    0    0    0 -0.00000000000E+00 -0.00000000000E+00 -0.45593999997E+02  0.45594000000E+02  0.51100000000E-03 0. -1.
    9900012    2    1    2    0    0  0.12361756991E+02  0.22258155304E+01  0.13889647972E+02  0.72461291494E+02  0.69999636810E+02 0.  0.
         12    1    1    2    0    0 -0.12361756991E+02 -0.22258155304E+01 -0.13889647972E+02  0.18726708506E+02  0.00000000000E+00 0. -1.
         11    1    3    3    0    0 -0.30076526698E+01  0.30815616492E+01  0.25068522987E+00  0.43133328327E+01  0.51100000000E-03 0. -1.
        -11    1    3    3    0    0 -0.95115624940E+01 -0.16414198987E+02  0.29284763038E+02  0.34892593712E+02  0.51100000000E-03 0.  1.
         12    1    3    3    0    0  0.24880972155E+02  0.15558452869E+02 -0.15645800296E+02  0.33255364950E+02  0.00000000000E+00 0. -1.
</event>
<event>
 7    1  0.3162486E-013  0.7246156E+02  0.7816164E-02  0.1226708E+00
        -11   -1    0    0    0    0  0.00000000000E+00  0.00000000000E+00  0.45593999997E+02  0.45594000000E+02  0.51100000000E-03 0. -1.
         11   -1    0    0    0    0 -0.00000000000E+00 -0.00000000000E+00 -0.45593999997E+02  0.45594000000E+02  0.51100000000E-03 0.  1.
    9900012    2    1    2    0    0  0.49709744353E+01  0.13491637580E+02 -0.11997690117E+02  0.72461563084E+02  0.69999990607E+02 0.  0.
         12    1    1    2    0    0 -0.49709744353E+01 -0.13491637580E+02  0.11997690117E+02  0.18726436916E+02  0.00000000000E+00 0. -1.
         11    1    3    3    0    0  0.27330703120E+02  0.13987656377E+02 -0.14056100725E+02  0.33766785927E+02  0.51100000000E-03 0. -1.
        -11    1    3    3    0    0 -0.47946791633E+01  0.14039854596E+02 -0.34658749461E+01  0.15235444029E+02  0.51100000000E-03 0.  1.
        -12    1    3    3    0    0 -0.17565049521E+02 -0.14535873392E+02  0.55242855545E+01  0.23459333129E+02  0.00000000000E+00 0.  1.
</event>
<event>
 7    1  0.3162486E-013  0.7246157E+02  0.7816164E-02  0.1226708E+00
        -11   -1    0    0    0    0  0.00000000000E+00  0.00000000000E+00  0.45593999997E+02  0.45594000000E+02  0.51100000000E-03 0. -1.
         11   -1    0    0    0    0 -0.00000000000E+00 -0.00000000000E+00 -0.45593999997E+02  0.45594000000E+02  0.51100000000E-03 0.  1.
    9900012    2    1    2    0    0 -0.78922398098E+01  0.16179123424E+02 -0.51601953330E+01  0.72461572154E+02  0.70000002423E+02 0.  0.
         12    1    1    2    0    0  0.78922398098E+01 -0.16179123424E+02  0.51601953330E+01  0.18726427846E+02  0.00000000000E+00 0. -1.
         11    1    3    3    0    0 -0.19777689421E+02  0.18799395083E+02  0.99941157328E+01  0.29059535507E+02  0.51100000000E-03 0. -1.
        -11    1    3    3    0    0 -0.42890231361E+00  0.15767729724E+02  0.12966368543E+01  0.15826766102E+02  0.51100000000E-03 0.  1.
        -12    1    3    3    0    0  0.12314351925E+02 -0.18388001383E+02 -0.16450947920E+02  0.27575270546E+02  0.00000000000E+00 0.  1.
</event>
<event>
 7    1  0.3162486E-013  0.7246161E+02  0.7816164E-02  0.1226708E+00
        -11   -1    0    0    0    0  0.00000000000E+00  0.00000000000E+00  0.45593999997E+02  0.45594000000E+02  0.51100000000E-03 0.  1.
         11   -1    0    0    0    0 -0.00000000000E+00 -0.00000000000E+00 -0.45593999997E+02  0.45594000000E+02  0.51100000000E-03 0. -1.
    9900012    2    1    2    0    0  0.12927041973E+02 -0.13002990133E+02 -0.38067753277E+01  0.72461609398E+02  0.70000050940E+02 0.  0.
         12    1    1    2    0    0 -0.12927041973E+02  0.13002990133E+02  0.38067753277E+01  0.18726390602E+02  0.00000000000E+00 0. -1.
         11    1    3    3    0    0  0.28565440900E+02 -0.53553680101E+01  0.10550832336E+02  0.30918998101E+02  0.51100000000E-03 0. -1.
        -11    1    3    3    0    0  0.97863018629E+01 -0.73060111354E+01 -0.99142783147E+01  0.15730302528E+02  0.51100000000E-03 0.  1.
         12    1    3    3    0    0 -0.25424700789E+02 -0.34161098763E+00 -0.44433293485E+01  0.25812308769E+02  0.00000000000E+00 0. -1.
</event>
<event>
 7    1  0.3162486E-013  0.7246175E+02  0.7816164E-02  0.1226708E+00
        -11   -1    0    0    0    0  0.00000000000E+00  0.00000000000E+00  0.45593999997E+02  0.45594000000E+02  0.51100000000E-03 0. -1.
         11   -1    0    0    0    0 -0.00000000000E+00 -0.00000000000E+00 -0.45593999997E+02  0.45594000000E+02  0.51100000000E-03 0.  1.
    9900012    2    1    2    0    0 -0.27107698313E+01 -0.16942000064E+02 -0.75028524072E+01  0.72461750149E+02  0.70000234293E+02 0.  0.
         12    1    1    2    0    0  0.27107698313E+01  0.16942000064E+02  0.75028524072E+01  0.18726249851E+02  0.00000000000E+00 0. -1.
         11    1    3    3    0    0 -0.45978902408E+01 -0.13482330388E+00  0.16921231500E+02  0.17535302898E+02  0.51100000000E-03 0. -1.
        -11    1    3    3    0    0 -0.15781177167E+02 -0.25088724887E+02 -0.13572491464E+02  0.32599113393E+02  0.51100000000E-03 0.  1.
         12    1    3    3    0    0  0.17668297577E+02  0.82815481268E+01 -0.10851592443E+02  0.22327333857E+02  0.00000000000E+00 0. -1.
</event>
<event>
 7    1  0.3162486E-013  0.7246154E+02  0.7816164E-02  0.1226708E+00
        -11   -1    0    0    0    0  0.00000000000E+00  0.00000000000E+00  0.45593999997E+02  0.45594000000E+02  0.51100000000E-03 0.  1.
         11   -1    0    0    0    0 -0.00000000000E+00 -0.00000000000E+00 -0.45593999997E+02  0.45594000000E+02  0.51100000000E-03 0. -1.
    9900012    2    1    2    0    0 -0.15902049199E+02  0.37376567878E+01  0.91561575384E+01  0.72461535628E+02  0.69999954841E+02 0.  0.
         12    1    1    2    0    0  0.15902049199E+02 -0.37376567878E+01 -0.91561575384E+01  0.18726464372E+02  0.00000000000E+00 0. -1.
         11    1    3    3    0    0 -0.11885634070E+02 -0.13858730939E+02 -0.16437858707E+01  0.18331250714E+02  0.51100000000E-03 0. -1.
        -11    1    3    3    0    0 -0.21373434243E+02 -0.41868788545E+01  0.14305691544E+02  0.26057752334E+02  0.51100000000E-03 0.  1.
        -12    1    3    3    0    0  0.17357019114E+02  0.21783266581E+02 -0.35057481349E+01  0.28072532580E+02  0.00000000000E+00 0.  1.
</event>
<event>
 7    1  0.3162486E-013  0.7246158E+02  0.7816164E-02  0.1226708E+00
        -11   -1    0    0    0    0  0.00000000000E+00  0.00000000000E+00  0.45593999997E+02  0.45594000000E+02  0.51100000000E-03 0.  1.
         11   -1    0    0    0    0 -0.00000000000E+00 -0.00000000000E+00 -0.45593999997E+02  0.45594000000E+02  0.51100000000E-03 0. -1.
    9900012    2    1    2    0    0  0.11629894137E+02  0.92496901636E+01  0.11395941135E+02  0.72461583361E+02  0.70000017022E+02 0.  0.
         12    1    1    2    0    0 -0.11629894137E+02 -0.92496901636E+01 -0.11395941135E+02  0.18726416639E+02  0.00000000000E+00 0. -1.
         11    1    3    3    0    0  0.27068186876E+02  0.26394562390E+02  0.57629507745E+01  0.38243578107E+02  0.51100000000E-03 0. -1.
        -11    1    3    3    0    0  0.52480369339E+01 -0.10971188246E+02  0.21827966164E+01  0.12356110413E+02  0.51100000000E-03 0.  1.
        -12    1    3    3    0    0 -0.20686329673E+02 -0.61736839797E+01  0.34501937446E+01  0.21861894842E+02  0.00000000000E+00 0.  1.
</event>
<event>
 7    1  0.3162486E-013  0.7246143E+02  0.7816164E-02  0.1226708E+00
        -11   -1    0    0    0    0  0.00000000000E+00  0.00000000000E+00  0.45593999997E+02  0.45594000000E+02  0.51100000000E-03 0.  1.
         11   -1    0    0    0    0 -0.00000000000E+00 -0.00000000000E+00 -0.45593999997E+02  0.45594000000E+02  0.51100000000E-03 0. -1.
    9900012    2    1    2    0    0 -0.16309960495E+02  0.74525638377E+00  0.91713768759E+01  0.72461431381E+02  0.69999819039E+02 0.  0.
         12    1    1    2    0    0  0.16309960495E+02 -0.74525638377E+00 -0.91713768759E+01  0.18726568619E+02  0.00000000000E+00 0. -1.
         11    1    3    3    0    0 -0.99438722319E+01  0.12809873883E+02 -0.17070777326E+02  0.23545379645E+02  0.51100000000E-03 0. -1.
        -11    1    3    3    0    0 -0.19064731392E+02  0.46380205117E+01  0.82816296501E+01  0.21296962395E+02  0.51100000000E-03 0.  1.
        -12    1    3    3    0    0  0.12698643129E+02 -0.16702638011E+02  0.17960524552E+02  0.27619089341E+02  0.00000000000E+00 0.  1.
</event>
<event>
 7    1  0.3162486E-013  0.7246155E+02  0.7816164E-02  0.1226708E+00
        -11   -1    0    0    0    0  0.00000000000E+00  0.00000000000E+00  0.45593999997E+02  0.45594000000E+02  0.51100000000E-03 0. -1.
         11   -1    0    0    0    0 -0.00000000000E+00 -0.00000000000E+00 -0.45593999997E+02  0.45594000000E+02  0.51100000000E-03 0.  1.
    9900012    2    1    2    0    0  0.16226168246E+02 -0.33117708872E+01 -0.87420559230E+01  0.72461550680E+02  0.69999974449E+02 0.  0.
         12    1    1    2    0    0 -0.16226168246E+02  0.33117708872E+01  0.87420559230E+01  0.18726449320E+02  0.00000000000E+00 0. -1.
         11    1    3    3    0    0  0.51508112906E+01  0.22864263619E+01 -0.34075490961E+02  0.34538350959E+02  0.51100000000E-03 0. -1.
        -11    1    3    3    0    0  0.25039782587E+01 -0.63564289127E+01 -0.36105330715E+01  0.77272275082E+01  0.51100000000E-03 0.  1.
         12    1    3    3    0    0  0.85713786967E+01  0.75823166361E+00  0.28943968109E+02  0.30195972214E+02  0.00000000000E+00 0. -1.
</event>
<event>
 7    1  0.3162486E-013  0.7246110E+02  0.7816164E-02  0.1226709E+00
        -11   -1    0    0    0    0  0.00000000000E+00  0.00000000000E+00  0.45593999997E+02  0.45594000000E+02  0.51100000000E-03 0.  1.
         11   -1    0    0    0    0 -0.00000000000E+00 -0.00000000000E+00 -0.45593999997E+02  0.45594000000E+02  0.51100000000E-03 0. -1.
    9900012    2    1    2    0    0  0.19417321031E+01  0.18320616319E+02 -0.33587797596E+01  0.72461102037E+02  0.69999390005E+02 0.  0.
         12    1    1    2    0    0 -0.19417321031E+01 -0.18320616319E+02  0.33587797596E+01  0.18726897963E+02  0.00000000000E+00 0. -1.
         11    1    3    3    0    0 -0.79664259641E+01 -0.11120606705E+02  0.23150010528E+01  0.13874114973E+02  0.51100000000E-03 0. -1.
        -11    1    3    3    0    0 -0.16074308093E+02  0.11528582019E+02 -0.15935954286E+02  0.25401697252E+02  0.51100000000E-03 0.  1.
        -12    1    3    3    0    0  0.25982466160E+02  0.17912641005E+02  0.10262173473E+02  0.33185289812E+02  0.00000000000E+00 0.  1.
</event>
<event>
 7    1  0.3162486E-013  0.7246153E+02  0.7816164E-02  0.1226708E+00
        -11   -1    0    0    0    0  0.00000000000E+00  0.00000000000E+00  0.45593999997E+02  0.45594000000E+02  0.51100000000E-03 0. -1.
         11   -1    0    0    0    0 -0.00000000000E+00 -0.00000000000E+00 -0.45593999997E+02  0.45594000000E+02  0.51100000000E-03 0.  1.
    9900012    2    1    2    0    0 -0.15214013240E+02  0.74706631625E+01 -0.79626319135E+01  0.72461534398E+02  0.69999953239E+02 0.  0.
         12    1    1    2    0    0  0.15214013240E+02 -0.74706631625E+01  0.79626319135E+01  0.18726465602E+02  0.00000000000E+00 0. -1.
         11    1    3    3    0    0 -0.69036749775E+01 -0.11315211528E+02  0.59115182974E+01  0.14513469226E+02  0.51100000000E-03 0. -1.
        -11    1    3    3    0    0  0.99082440709E+01  0.21067732458E+02  0.12022874508E+02  0.26202522077E+02  0.51100000000E-03 0.  1.
         12    1    3    3    0    0 -0.18218582333E+02 -0.22818577673E+01 -0.25897024719E+02  0.31745543095E+02  0.00000000000E+00 0. -1.
</event>
<event>
 7    1  0.3162486E-013  0.7246156E+02  0.7816164E-02  0.1226708E+00
        -11   -1    0    0    0    0  0.00000000000E+00  0.00000000000E+00  0.45593999997E+02  0.45594000000E+02  0.51100000000E-03 0. -1.
         11   -1    0    0    0    0 -0.00000000000E+00 -0.00000000000E+00 -0.45593999997E+02  0.45594000000E+02  0.51100000000E-03 0.  1.
    9900012    2    1    2    0    0  0.29582727972E+01  0.30939314193E+01 -0.18230627367E+02  0.72461559768E+02  0.69999986287E+02 0.  0.
         12    1    1    2    0    0 -0.29582727972E+01 -0.30939314193E+01  0.18230627367E+02  0.18726440232E+02  0.00000000000E+00 0. -1.
         11    1    3    3    0    0 -0.73143114938E+01 -0.43874354865E-01  0.46912954786E+01  0.86896105273E+01  0.51100000000E-03 0. -1.
        -11    1    3    3    0    0  0.11123605598E+02  0.30229186598E+02 -0.98749376887E+01  0.33690543458E+02  0.51100000000E-03 0.  1.
         12    1    3    3    0    0 -0.85102130742E+00 -0.27091380823E+02 -0.13046985157E+02  0.30081405783E+02  0.00000000000E+00 0. -1.
</event>
<event>
 7    1  0.3162486E-013  0.7246161E+02  0.7816164E-02  0.1226708E+00
        -11   -1    0    0    0    0  0.00000000000E+00  0.00000000000E+00  0.45593999997E+02  0.45594000000E+02  0.51100000000E-03 0. -1.
         11   -1    0    0    0    0 -0.00000000000E+00 -0.00000000000E+00 -0.45593999997E+02  0.45594000000E+02  0.51100000000E-03 0.  1.
    9900012    2    1    2    0    0  0.10391390666E+02 -0.12617838650E+02  0.91371191543E+01  0.72461606898E+02  0.70000047683E+02 0.  0.
         12    1    1    2    0    0 -0.10391390666E+02  0.12617838650E+02 -0.91371191543E+01  0.18726393102E+02  0.00000000000E+00 0. -1.
         11    1    3    3    0    0  0.15763989535E+01  0.21408383005E+01 -0.62021966618E+01  0.67479971830E+01  0.51100000000E-03 0. -1.
        -11    1    3    3    0    0  0.15745422632E+02  0.19960432690E+02  0.16469335676E+02  0.30291520676E+02  0.51100000000E-03 0.  1.
         12    1    3    3    0    0 -0.69304309198E+01 -0.34719109641E+02 -0.11300198597E+01  0.35422089039E+02  0.00000000000E+00 0. -1.
</event>
<event>
 7    1  0.3162486E-013  0.7246159E+02  0.7816164E-02  0.1226708E+00
        -11   -1    0    0    0    0  0.00000000000E+00  0.00000000000E+00  0.45593999997E+02  0.45594000000E+02  0.51100000000E-03 0. -1.
         11   -1    0    0    0    0 -0.00000000000E+00 -0.00000000000E+00 -0.45593999997E+02  0.45594000000E+02  0.51100000000E-03 0.  1.
    9900012    2    1    2    0    0 -0.18672340487E+02  0.57224118529E+00  0.13018668788E+01  0.72461585057E+02  0.70000019231E+02 0.  0.
         12    1    1    2    0    0  0.18672340487E+02 -0.57224118529E+00 -0.13018668788E+01  0.18726414943E+02  0.00000000000E+00 0. -1.
         11    1    3    3    0    0 -0.67739003895E+01  0.61563188888E+01  0.18513736561E+02  0.20652952100E+02  0.51100000000E-03 0. -1.
        -11    1    3    3    0    0  0.27232897815E+00  0.17808209968E+02  0.36556096962E+01  0.18181583755E+02  0.51100000000E-03 0.  1.
        -12    1    3    3    0    0 -0.12170769076E+02 -0.23392287672E+02 -0.20867479378E+02  0.33627049202E+02  0.00000000000E+00 0.  1.
</event>
<event>
 7    1  0.3162486E-013  0.7246156E+02  0.7816164E-02  0.1226708E+00
        -11   -1    0    0    0    0  0.00000000000E+00  0.00000000000E+00  0.45593999997E+02  0.45594000000E+02  0.51100000000E-03 0. -1.
         11   -1    0    0    0    0 -0.00000000000E+00 -0.00000000000E+00 -0.45593999997E+02  0.45594000000E+02  0.51100000000E-03 0.  1.
    9900012    2    1    2    0    0  0.10027368432E+02  0.10709518558E+02 -0.11637771712E+02  0.72461557844E+02  0.69999983781E+02 0.  0.
         12    1    1    2    0    0 -0.10027368432E+02 -0.10709518558E+02  0.11637771712E+02  0.18726442156E+02  0.00000000000E+00 0. -1.
         11    1    3    3    0    0 -0.24362606356E+02  0.65725080252E+01  0.13674773494E+02  0.28700764460E+02  0.51100000000E-03 0. -1.
        -11    1    3    3    0    0 -0.51789700977E+00  0.20504186816E+00 -0.54107454641E+00  0.77654452952E+00  0.51100000000E-03 0.  1.
        -12    1    3    3    0    0  0.34907871797E+02  0.39319686647E+01 -0.24771470660E+02  0.42984248855E+02  0.00000000000E+00 0.  1.
</event>
<event>
 7    1  0.3162486E-013  0.7246145E+02  0.7816164E-02  0.1226708E+00
        -11   -1    0    0    0    0  0.00000000000E+00  0.00000000000E+00  0.45593999997E+02  0.45594000000E+02  0.51100000000E-03 0. -1.
         11   -1    0    0    0    0 -0.00000000000E+00 -0.00000000000E+00 -0.45593999997E+02  0.45594000000E+02  0.51100000000E-03 0.  1.
    9900012    2    1    2    0    0 -0.12390220139E+02 -0.63378786250E+01  0.12529866645E+02  0.72461446160E+02  0.69999838292E+02 0.  0.
         12    1    1    2    0    0  0.12390220139E+02  0.63378786250E+01 -0.12529866645E+02  0.18726553840E+02  0.00000000000E+00 0. -1.
         11    1    3    3    0    0 -0.19570558490E+02  0.84530348891E+01 -0.36827162298E+01  0.21633838253E+02  0.51100000000E-03 0. -1.
        -11    1    3    3    0    0  0.11266988049E+02 -0.14946151258E+02 -0.12056570963E+02  0.22264172133E+02  0.51100000000E-03 0.  1.
         12    1    3    3    0    0 -0.40866496983E+01  0.15523774367E+00  0.28269153838E+02  0.28563435774E+02  0.00000000000E+00 0. -1.
</event>
<event>
 7    1  0.3162486E-013  0.7246154E+02  0.7816164E-02  0.1226708E+00
        -11   -1    0    0    0    0  0.00000000000E+00  0.00000000000E+00  0.45593999997E+02  0.45594000000E+02  0.51100000000E-03 0.  1.
         11   -1    0    0    0    0 -0.00000000000E+00 -0.00000000000E+00 -0.45593999997E+02  0.45594000000E+02  0.51100000000E-03 0. -1.
    9900012    2    1    2    0    0 -0.53857418778E+01  0.84470867364E+01  0.15821532010E+02  0.72461538373E+02  0.69999958417E+02 0.  0.
         12    1    1    2    0    0  0.53857418778E+01 -0.84470867364E+01 -0.15821532010E+02  0.18726461627E+02  0.00000000000E+00 0. -1.
         11    1    3    3    0    0 -0.20847400208E+01  0.14602026375E+02 -0.76439796708E+00  0.14769888955E+02  0.51100000000E-03 0. -1.
        -11    1    3    3    0    0  0.78804245385E+01 -0.38179268958E+01 -0.18675295933E+02  0.20626302023E+02  0.51100000000E-03 0.  1.
        -12    1    3    3    0    0 -0.11181426395E+02 -0.23370127433E+01  0.35261225911E+02  0.37065347395E+02  0.00000000000E+00 0.  1.
</event>
<event>
 7    1  0.3162486E-013  0.7246161E+02  0.7816164E-02  0.1226708E+00
        -11   -1    0    0    0    0  0.00000000000E+00  0.00000000000E+00  0.45593999997E+02  0.45594000000E+02  0.51100000000E-03 0.  1.
         11   -1    0    0    0    0 -0.00000000000E+00 -0.00000000000E+00 -0.45593999997E+02  0.45594000000E+02  0.51100000000E-03 0. -1.
    9900012    2    1    2    0    0  0.55528146412E+01  0.40448014089E+01  0.17420780565E+02  0.72461607812E+02  0.70000048874E+02 0.  0.
         12    1    1    2    0    0 -0.55528146412E+01 -0.40448014089E+01 -0.17420780565E+02  0.18726392188E+02  0.00000000000E+00 0. -1.
         11    1    3    3    0    0  0.29701097607E+01 -0.21543428225E+02  0.91713501457E+01  0.23602002361E+02  0.51100000000E-03 0. -1.
        -11    1    3    3    0    0  0.63874769980E+00 -0.99759598194E+01  0.86811383053E+01  0.13239710551E+02  0.51100000000E-03 0.  1.
        -12    1    3    3    0    0  0.19439571807E+01  0.35564189453E+02 -0.43170788609E+00  0.35619894900E+02  0.00000000000E+00 0.  1.
</event>
<event>
 7    1  0.3162486E-013  0.7246157E+02  0.7816164E-02  0.1226708E+00
        -11   -1    0    0    0    0  0.00000000000E+00  0.00000000000E+00  0.45593999997E+02  0.45594000000E+02  0.51100000000E-03 0.  1.
         11   -1    0    0    0    0 -0.00000000000E+00 -0.00000000000E+00 -0.45593999997E+02  0.45594000000E+02  0.51100000000E-03 0. -1.
    9900012    2    1    2    0    0 -0.92890559344E+01 -0.23425126479E+01  0.16090533578E+02  0.72461569574E+02  0.69999999062E+02 0.  0.
         12    1    1    2    0    0  0.92890559344E+01  0.23425126479E+01 -0.16090533578E+02  0.18726430426E+02  0.00000000000E+00 0. -1.
         11    1    3    3    0    0  0.31796306757E+01 -0.10677885709E+02 -0.21925809491E+02  0.24594072793E+02  0.51100000000E-03 0. -1.
        -11    1    3    3    0    0 -0.58523408042E+00 -0.84779087200E+01  0.11141505257E+02  0.14012514937E+02  0.51100000000E-03 0.  1.
        -12    1    3    3    0    0 -0.11883452530E+02  0.16813281781E+02  0.26874837812E+02  0.33854981845E+02  0.00000000000E+00 0.  1.
</event>
<event>
 7    1  0.3162486E-013  0.7246157E+02  0.7816164E-02  0.1226708E+00
        -11   -1    0    0    0    0  0.00000000000E+00  0.00000000000E+00  0.45593999997E+02  0.45594000000E+02  0.51100000000E-03 0.  1.
         11   -1    0    0    0    0 -0.00000000000E+00 -0.00000000000E+00 -0.45593999997E+02  0.45594000000E+02  0.51100000000E-03 0. -1.
    9900012    2    1    2    0    0  0.18621273151E+02 -0.17970285320E+01  0.83552326714E+00  0.72461568828E+02  0.69999998090E+02 0.  0.
         12    1    1    2    0    0 -0.18621273151E+02  0.17970285320E+01 -0.83552326714E+00  0.18726431172E+02  0.00000000000E+00 0. -1.
         11    1    3    3    0    0 -0.75994979167E+01  0.50639172926E+01 -0.48943373724E+01  0.10360992496E+02  0.51100000000E-03 0. -1.
        -11    1    3    3    0    0  0.17599545296E+02 -0.24015017044E+02 -0.15425687913E+02  0.33532325987E+02  0.51100000000E-03 0.  1.
        -12    1    3    3    0    0  0.86212257717E+01  0.17154071220E+02  0.21155548552E+02  0.28568250345E+02  0.00000000000E+00 0.  1.
</event>
<event>
 7    1  0.3162486E-013  0.7246157E+02  0.7816164E-02  0.1226708E+00
        -11   -1    0    0    0    0  0.00000000000E+00  0.00000000000E+00  0.45593999997E+02  0.45594000000E+02  0.51100000000E-03 0.  1.
         11   -1    0    0    0    0 -0.00000000000E+00 -0.00000000000E+00 -0.45593999997E+02  0.45594000000E+02  0.51100000000E-03 0. -1.
    9900012    2    1    2    0    0  0.18611619729E+02 -0.23470054799E+00  0.20571280413E+01  0.72461568171E+02  0.69999997234E+02 0.  0.
         12    1    1    2    0    0 -0.18611619729E+02  0.23470054799E+00 -0.20571280413E+01  0.18726431829E+02  0.00000000000E+00 0. -1.
         11    1    3    3    0    0  0.81483808792E+01 -0.85731343983E+01  0.16625163858E+01  0.11943981972E+02  0.51100000000E-03 0. -1.
        -11    1    3    3    0    0  0.28621842805E+02  0.23252415786E+02 -0.17764724591E+01  0.36919379465E+02  0.51100000000E-03 0.  1.
         12    1    3    3    0    0 -0.18158603956E+02 -0.14913981935E+02  0.21710841146E+01  0.23598206733E+02  0.00000000000E+00 0. -1.
</event>
<event>
 7    1  0.3162486E-013  0.7246155E+02  0.7816164E-02  0.1226708E+00
        -11   -1    0    0    0    0  0.00000000000E+00  0.00000000000E+00  0.45593999997E+02  0.45594000000E+02  0.51100000000E-03 0.  1.
         11   -1    0    0    0    0 -0.00000000000E+00 -0.00000000000E+00 -0.45593999997E+02  0.45594000000E+02  0.51100000000E-03 0. -1.
    9900012    2    1    2    0    0 -0.93907016188E+01 -0.13733472158E+02 -0.85957257431E+01  0.72461547174E+02  0.69999969881E+02 0.  0.
         12    1    1    2    0    0  0.93907016188E+01  0.13733472158E+02  0.85957257431E+01  0.18726452826E+02  0.00000000000E+00 0. -1.
         11    1    3    3    0    0 -0.16596959337E+01 -0.26943218422E+01 -0.88504617845E+01  0.93991826689E+01  0.51100000000E-03 0. -1.
        -11    1    3    3    0    0 -0.11558304819E+02 -0.32500083212E+02 -0.13769955340E+02  0.37141102426E+02  0.51100000000E-03 0.  1.
        -12    1    3    3    0    0  0.38272991340E+01  0.21460932896E+02  0.14024691381E+02  0.25921262079E+02  0.00000000000E+00 0.  1.
</event>
<event>
 7    1  0.3162486E-013  0.7246160E+02  0.7816164E-02  0.1226708E+00
        -11   -1    0    0    0    0  0.00000000000E+00  0.00000000000E+00  0.45593999997E+02  0.45594000000E+02  0.51100000000E-03 0. -1.
         11   -1    0    0    0    0 -0.00000000000E+00 -0.00000000000E+00 -0.45593999997E+02  0.45594000000E+02  0.51100000000E-03 0.  1.
    9900012    2    1    2    0    0  0.20135470132E+01 -0.15403078149E+02 -0.10457962972E+02  0.72461596779E+02  0.70000034502E+02 0.  0.
         12    1    1    2    0    0 -0.20135470132E+01  0.15403078149E+02  0.10457962972E+02  0.18726403221E+02  0.00000000000E+00 0. -1.
         11    1    3    3    0    0 -0.56432639160E+01 -0.10208732344E+02  0.26951671121E+02  0.29367621970E+02  0.51100000000E-03 0. -1.
        -11    1    3    3    0    0 -0.64693447446E+01 -0.87608803702E+00 -0.96863365753E+01  0.11680970344E+02  0.51100000000E-03 0.  1.
        -12    1    3    3    0    0  0.14126155674E+02 -0.43182577684E+01 -0.27723297518E+02  0.31413004465E+02  0.00000000000E+00 0.  1.
</event>
<event>
 7    1  0.3162486E-013  0.7246159E+02  0.7816164E-02  0.1226708E+00
        -11   -1    0    0    0    0  0.00000000000E+00  0.00000000000E+00  0.45593999997E+02  0.45594000000E+02  0.51100000000E-03 0.  1.
         11   -1    0    0    0    0 -0.00000000000E+00 -0.00000000000E+00 -0.45593999997E+02  0.45594000000E+02  0.51100000000E-03 0. -1.
    9900012    2    1    2    0    0  0.15285151535E+02 -0.10264849438E+02 -0.34169197328E+01  0.72461592659E+02  0.70000029134E+02 0.  0.
         12    1    1    2    0    0 -0.15285151535E+02  0.10264849438E+02  0.34169197328E+01  0.18726407341E+02  0.00000000000E+00 0. -1.
         11    1    3    3    0    0  0.14988007167E+00 -0.17686299885E+02 -0.66712686961E+01  0.18903266753E+02  0.51100000000E-03 0. -1.
        -11    1    3    3    0    0 -0.18085401597E+02  0.75552168584E+01  0.52073437084E+01  0.20280026663E+02  0.51100000000E-03 0.  1.
        -12    1    3    3    0    0  0.33220673060E+02 -0.13376641157E+00 -0.19529947450E+01  0.33278299243E+02  0.00000000000E+00 0.  1.
</event>
<event>
 7    1  0.3162486E-013  0.7246152E+02  0.7816164E-02  0.1226708E+00
        -11   -1    0    0    0    0  0.00000000000E+00  0.00000000000E+00  0.45593999997E+02  0.45594000000E+02  0.51100000000E-03 0. -1.
         11   -1    0    0    0    0 -0.00000000000E+00 -0.00000000000E+00 -0.45593999997E+02  0.45594000000E+02  0.51100000000E-03 0.  1.
    9900012    2    1    2    0    0  0.17881437918E+02 -0.55154848951E+01  0.71738500686E+00  0.72461520436E+02  0.69999935050E+02 0.  0.
         12    1    1    2    0    0 -0.17881437918E+02  0.55154848951E+01 -0.71738500686E+00  0.18726479564E+02  0.00000000000E+00 0. -1.
         11    1    3    3    0    0 -0.64367926724E+01 -0.70470442117E+01 -0.19005906653E+01  0.97316687761E+01  0.51100000000E-03 0. -1.
        -11    1    3    3    0    0 -0.12115151258E+02 -0.13218350486E+02 -0.11112540397E+02  0.21094791630E+02  0.51100000000E-03 0.  1.
         12    1    3    3    0    0  0.36433381848E+02  0.14749909803E+02  0.13730516070E+02  0.41635060029E+02  0.00000000000E+00 0. -1.
</event>
<event>
 7    1  0.3162486E-013  0.7246157E+02  0.7816164E-02  0.1226708E+00
        -11   -1    0    0    0    0  0.00000000000E+00  0.00000000000E+00  0.45593999997E+02  0.45594000000E+02  0.51100000000E-03 0. -1.
         11   -1    0    0    0    0 -0.00000000000E+00 -0.00000000000E+00 -0.45593999997E+02  0.45594000000E+02  0.51100000000E-03 0.  1.
    9900012    2    1    2    0    0  0.58253397097E+01 -0.11665733967E+02 -0.13440809497E+02  0.72461567034E+02  0.69999995752E+02 0.  0.
         12    1    1    2    0    0 -0.58253397097E+01  0.11665733967E+02  0.13440809497E+02  0.18726432966E+02  0.00000000000E+00 0. -1.
         11    1    3    3    0    0  0.71485291249E+01 -0.17036161670E+02 -0.17159696424E+01  0.18554698197E+02  0.51100000000E-03 0. -1.
        -11    1    3    3    0    0  0.22164630764E+02 -0.10170367091E+02 -0.40958477044E+01  0.24728186192E+02  0.51100000000E-03 0.  1.
         12    1    3    3    0    0 -0.23487820180E+02  0.15540794795E+02 -0.76289921503E+01  0.29178682644E+02  0.00000000000E+00 0. -1.
</event>
<event>
 7    1  0.3162486E-013  0.7246157E+02  0.7816164E-02  0.1226708E+00
        -11   -1    0    0    0    0  0.00000000000E+00  0.00000000000E+00  0.45593999997E+02  0.45594000000E+02  0.51100000000E-03 0.  1.
         11   -1    0    0    0    0 -0.00000000000E+00 -0.00000000000E+00 -0.45593999997E+02  0.45594000000E+02  0.51100000000E-03 0. -1.
    9900012    2    1    2    0    0 -0.16453345949E+02  0.29215916299E+01  0.84516872233E+01  0.72461566610E+02  0.69999995201E+02 0.  0.
         12    1    1    2    0    0  0.16453345949E+02 -0.29215916299E+01 -0.84516872233E+01  0.18726433390E+02  0.00000000000E+00 0. -1.
         11    1    3    3    0    0  0.19727238183E+01 -0.92563409091E+01 -0.58686714869E+01  0.11136103069E+02  0.51100000000E-03 0.  1.
        -11    1    3    3    0    0 -0.97712824932E+01 -0.64980850271E+01 -0.18898969451E+02  0.22245766275E+02  0.51100000000E-03 0. -1.
         12    1    3    3    0    0 -0.86547872746E+01  0.18676017566E+02  0.33219328161E+02  0.39079697266E+02  0.00000000000E+00 0. -1.
</event>
<event>
 7    1  0.3162486E-013  0.7246158E+02  0.7816164E-02  0.1226708E+00
        -11   -1    0    0    0    0  0.00000000000E+00  0.00000000000E+00  0.45593999997E+02  0.45594000000E+02  0.51100000000E-03 0.  1.
         11   -1    0    0    0    0 -0.00000000000E+00 -0.00000000000E+00 -0.45593999997E+02  0.45594000000E+02  0.51100000000E-03 0. -1.
    9900012    2    1    2    0    0  0.63462101750E+00 -0.18540327592E+02  0.25558297510E+01  0.72461581315E+02  0.70000014357E+02 0.  0.
         12    1    1    2    0    0 -0.63462101750E+00  0.18540327592E+02 -0.25558297510E+01  0.18726418685E+02  0.00000000000E+00 0. -1.
         11    1    3    3    0    0  0.26979246846E+02 -0.20088405514E+02 -0.70661210637E+00  0.33644064817E+02  0.51100000000E-03 0. -1.
        -11    1    3    3    0    0 -0.83109423183E+01 -0.83180634179E+01 -0.90661293076E+01  0.14847782398E+02  0.51100000000E-03 0.  1.
        -12    1    3    3    0    0 -0.18033683510E+02  0.98661413402E+01  0.12328571165E+02  0.23969734101E+02  0.00000000000E+00 0.  1.
</event>
<event>
 7    1  0.3162486E-013  0.7246156E+02  0.7816164E-02  0.1226708E+00
        -11   -1    0    0    0    0  0.00000000000E+00  0.00000000000E+00  0.45593999997E+02  0.45594000000E+02  0.51100000000E-03 0. -1.
         11   -1    0    0    0    0 -0.00000000000E+00 -0.00000000000E+00 -0.45593999997E+02  0.45594000000E+02  0.51100000000E-03 0.  1.
    9900012    2    1    2    0    0  0.20050387262E+01  0.17111008836E+01 -0.18539996069E+02  0.72461561450E+02  0.69999988478E+02 0.  0.
         12    1    1    2    0    0 -0.20050387262E+01 -0.17111008836E+01  0.18539996069E+02  0.18726438550E+02  0.00000000000E+00 0. -1.
         11    1    3    3    0    0  0.40103793434E+01  0.11121090487E+02  0.49407868826E+01  0.12813007897E+02  0.51100000000E-03 0. -1.
        -11    1    3    3    0    0  0.24735059822E+02 -0.12724027167E+02 -0.13450313080E+02  0.30897167734E+02  0.51100000000E-03 0.  1.
         12    1    3    3    0    0 -0.26740400440E+02  0.33140375637E+01 -0.10030469872E+02  0.28751385819E+02  0.00000000000E+00 0. -1.
</event>
<event>
 7    1  0.3162486E-013  0.7246159E+02  0.7816164E-02  0.1226708E+00
        -11   -1    0    0    0    0  0.00000000000E+00  0.00000000000E+00  0.45593999997E+02  0.45594000000E+02  0.51100000000E-03 0. -1.
         11   -1    0    0    0    0 -0.00000000000E+00 -0.00000000000E+00 -0.45593999997E+02  0.45594000000E+02  0.51100000000E-03 0.  1.
    9900012    2    1    2    0    0  0.17563127098E+02  0.52280199098E+01  0.38578011406E+01  0.72461594705E+02  0.70000031800E+02 0.  0.
         12    1    1    2    0    0 -0.17563127098E+02 -0.52280199098E+01 -0.38578011406E+01  0.18726405295E+02  0.00000000000E+00 0. -1.
         11    1    3    3    0    0 -0.13837031790E+02  0.36619343454E+01  0.26737118312E+02  0.30327326091E+02  0.51100000000E-03 0. -1.
        -11    1    3    3    0    0 -0.19526917512E+01 -0.19637897751E+00 -0.16003833997E+01  0.25323501071E+01  0.51100000000E-03 0.  1.
        -12    1    3    3    0    0  0.33352850639E+02  0.17624645419E+01 -0.21278933772E+02  0.39601918507E+02  0.00000000000E+00 0.  1.
</event>
<event>
 7    1  0.3162486E-013  0.7246154E+02  0.7816164E-02  0.1226708E+00
        -11   -1    0    0    0    0  0.00000000000E+00  0.00000000000E+00  0.45593999997E+02  0.45594000000E+02  0.51100000000E-03 0.  1.
         11   -1    0    0    0    0 -0.00000000000E+00 -0.00000000000E+00 -0.45593999997E+02  0.45594000000E+02  0.51100000000E-03 0. -1.
    9900012    2    1    2    0    0  0.11163245954E+02 -0.14824604332E+02 -0.25086249839E+01  0.72461544031E+02  0.69999965787E+02 0.  0.
         12    1    1    2    0    0 -0.11163245954E+02  0.14824604332E+02  0.25086249839E+01  0.18726455969E+02  0.00000000000E+00 0. -1.
         11    1    3    3    0    0  0.14350944513E+01 -0.92200826879E+01 -0.33724556759E+02  0.34991643999E+02  0.51100000000E-03 0. -1.
        -11    1    3    3    0    0 -0.11817769204E+00 -0.15764812125E+01 -0.20244756775E+01  0.25686107159E+01  0.51100000000E-03 0.  1.
        -12    1    3    3    0    0  0.98463291947E+01 -0.40280404321E+01  0.33240407453E+02  0.34901289317E+02  0.00000000000E+00 0.  1.
</event>
<event>
 7    1  0.3162486E-013  0.7246156E+02  0.7816164E-02  0.1226708E+00
        -11   -1    0    0    0    0  0.00000000000E+00  0.00000000000E+00  0.45593999997E+02  0.45594000000E+02  0.51100000000E-03 0.  1.
         11   -1    0    0    0    0 -0.00000000000E+00 -0.00000000000E+00 -0.45593999997E+02  0.45594000000E+02  0.51100000000E-03 0. -1.
    9900012    2    1    2    0    0  0.16132812261E+02  0.10330664527E+01  0.94522357601E+01  0.72461558303E+02  0.69999984379E+02 0.  0.
         12    1    1    2    0    0 -0.16132812261E+02 -0.10330664527E+01 -0.94522357601E+01  0.18726441697E+02  0.00000000000E+00 0. -1.
         11    1    3    3    0    0  0.12035103720E+02 -0.51575634950E+01 -0.92004519577E+00  0.13125953915E+02  0.51100000000E-03 0. -1.
        -11    1    3    3    0    0  0.26990420342E+02  0.12355955177E+01 -0.94779141424E+01  0.28632854264E+02  0.51100000000E-03 0.  1.
        -12    1    3    3    0    0 -0.22892711801E+02  0.49550344300E+01  0.19850195098E+02  0.30702750125E+02  0.00000000000E+00 0.  1.
</event>
<event>
 7    1  0.3217854E-013  0.7246163E+02  0.7816164E-02  0.1226708E+00
        -11   -1    0    0    0    0  0.00000000000E+00  0.00000000000E+00  0.45593999997E+02  0.45594000000E+02  0.51100000000E-03 0. -1.
         11   -1    0    0    0    0 -0.00000000000E+00 -0.00000000000E+00 -0.45593999997E+02  0.45594000000E+02  0.51100000000E-03 0.  1.
    9900012    2    1    2    0    0  0.51498899054E+01 -0.11918635931E+02 -0.13494503729E+02  0.72461631441E+02  0.70000079655E+02 0.  0.
         12    1    1    2    0    0 -0.51498899054E+01  0.11918635931E+02  0.13494503729E+02  0.18726368559E+02  0.00000000000E+00 0. -1.
         11    1    3    3    0    0 -0.26092079463E+02  0.25673864956E+01 -0.95013428736E+01  0.27886620462E+02  0.51100000000E-03 0. -1.
        -11    1    3    3    0    0  0.81720350351E+01  0.21538721093E+01  0.98181572097E+01  0.12954440665E+02  0.51100000000E-03 0.  1.
        -12    1    3    3    0    0  0.23069934333E+02 -0.16639894536E+02 -0.13811318066E+02  0.31620570315E+02  0.00000000000E+00 0.  1.
</event>
<event>
 7    1  0.3162486E-013  0.7246158E+02  0.7816164E-02  0.1226708E+00
        -11   -1    0    0    0    0  0.00000000000E+00  0.00000000000E+00  0.45593999997E+02  0.45594000000E+02  0.51100000000E-03 0.  1.
         11   -1    0    0    0    0 -0.00000000000E+00 -0.00000000000E+00 -0.45593999997E+02  0.45594000000E+02  0.51100000000E-03 0. -1.
    9900012    2    1    2    0    0 -0.72988247636E+01  0.50670606700E+01  0.16484258117E+02  0.72461582499E+02  0.70000015898E+02 0.  0.
         12    1    1    2    0    0  0.72988247636E+01 -0.50670606700E+01 -0.16484258117E+02  0.18726417501E+02  0.00000000000E+00 0. -1.
         11    1    3    3    0    0  0.46782715548E+01  0.18116799780E+02 -0.22353495698E+02  0.29151045079E+02  0.51100000000E-03 0. -1.
        -11    1    3    3    0    0 -0.13085635525E+01  0.72492603694E+00  0.15557048253E+01  0.21582571892E+01  0.51100000000E-03 0.  1.
        -12    1    3    3    0    0 -0.10668532766E+02 -0.13774665147E+02  0.37282048990E+02  0.41152280231E+02  0.00000000000E+00 0.  1.
</event>
<event>
 7    1  0.3162486E-013  0.7246166E+02  0.7816164E-02  0.1226708E+00
        -11   -1    0    0    0    0  0.00000000000E+00  0.00000000000E+00  0.45593999997E+02  0.45594000000E+02  0.51100000000E-03 0.  1.
         11   -1    0    0    0    0 -0.00000000000E+00 -0.00000000000E+00 -0.45593999997E+02  0.45594000000E+02  0.51100000000E-03 0. -1.
    9900012    2    1    2    0    0 -0.79227870899E+01  0.15313897531E+02  0.73068320684E+01  0.72461660055E+02  0.70000116929E+02 0.  0.
         12    1    1    2    0    0  0.79227870899E+01 -0.15313897531E+02 -0.73068320684E+01  0.18726339945E+02  0.00000000000E+00 0. -1.
         11    1    3    3    0    0  0.11536431718E+02 -0.89260273760E+01 -0.95964207710E+01  0.17460083430E+02  0.51100000000E-03 0. -1.
        -11    1    3    3    0    0  0.18994834253E+01  0.87392250701E+00 -0.11972266545E+02  0.12153474578E+02  0.51100000000E-03 0.  1.
        -12    1    3    3    0    0 -0.21358702233E+02  0.23366002400E+02  0.28875519385E+02  0.42848102047E+02  0.00000000000E+00 0.  1.
</event>
<event>
 7    1  0.3162486E-013  0.7246152E+02  0.7816164E-02  0.1226708E+00
        -11   -1    0    0    0    0  0.00000000000E+00  0.00000000000E+00  0.45593999997E+02  0.45594000000E+02  0.51100000000E-03 0.  1.
         11   -1    0    0    0    0 -0.00000000000E+00 -0.00000000000E+00 -0.45593999997E+02  0.45594000000E+02  0.51100000000E-03 0. -1.
    9900012    2    1    2    0    0 -0.14863142582E+02  0.11172375663E+02 -0.22240126475E+01  0.72461515610E+02  0.69999928763E+02 0.  0.
         12    1    1    2    0    0  0.14863142582E+02 -0.11172375663E+02  0.22240126475E+01  0.18726484390E+02  0.00000000000E+00 0. -1.
         11    1    3    3    0    0  0.37938008415E+01  0.19543886841E+00  0.27258513227E+01  0.46756162023E+01  0.51100000000E-03 0. -1.
        -11    1    3    3    0    0 -0.24063398791E+02  0.14323839250E+02  0.24774048397E+02  0.37389477215E+02  0.51100000000E-03 0.  1.
         12    1    3    3    0    0  0.54064553673E+01 -0.33469024548E+01 -0.29723912367E+02  0.30396422192E+02  0.00000000000E+00 0. -1.
</event>
<event>
 7    1  0.3162486E-013  0.7246157E+02  0.7816164E-02  0.1226708E+00
        -11   -1    0    0    0    0  0.00000000000E+00  0.00000000000E+00  0.45593999997E+02  0.45594000000E+02  0.51100000000E-03 0.  1.
         11   -1    0    0    0    0 -0.00000000000E+00 -0.00000000000E+00 -0.45593999997E+02  0.45594000000E+02  0.51100000000E-03 0. -1.
    9900012    2    1    2    0    0  0.78962605177E+01 -0.33302317197E+01  0.16650457191E+02  0.72461572200E+02  0.70000002483E+02 0.  0.
         12    1    1    2    0    0 -0.78962605177E+01  0.33302317197E+01 -0.16650457191E+02  0.18726427800E+02  0.00000000000E+00 0. -1.
         11    1    3    3    0    0 -0.52585230972E+01 -0.96090969310E-01 -0.79529082244E+01  0.95346760892E+01  0.51100000000E-03 0. -1.
        -11    1    3    3    0    0 -0.16985341774E+02 -0.10385381556E+02  0.24985882430E+02  0.31947649464E+02  0.51100000000E-03 0.  1.
         12    1    3    3    0    0  0.30140125389E+02  0.71512408052E+01 -0.38251701418E+00  0.30979246647E+02  0.00000000000E+00 0. -1.
</event>
<event>
 7    1  0.3162486E-013  0.7246157E+02  0.7816164E-02  0.1226708E+00
        -11   -1    0    0    0    0  0.00000000000E+00  0.00000000000E+00  0.45593999997E+02  0.45594000000E+02  0.51100000000E-03 0. -1.
         11   -1    0    0    0    0 -0.00000000000E+00 -0.00000000000E+00 -0.45593999997E+02  0.45594000000E+02  0.51100000000E-03 0.  1.
    9900012    2    1    2    0    0 -0.85102570938E+01 -0.66846225741E+01 -0.15283013842E+02  0.72461570366E+02  0.70000000093E+02 0.  0.
         12    1    1    2    0    0  0.85102570938E+01  0.66846225741E+01  0.15283013842E+02  0.18726429634E+02  0.00000000000E+00 0. -1.
         11    1    3    3    0    0 -0.80988358005E+01 -0.10299659077E+02 -0.10750732045E+02  0.16948520826E+02  0.51100000000E-03 0. -1.
        -11    1    3    3    0    0 -0.25501432956E+02 -0.91811045495E+01 -0.35065550876E+01  0.27329685186E+02  0.51100000000E-03 0.  1.
         12    1    3    3    0    0  0.25090011662E+02  0.12796141052E+02 -0.10257267093E+01  0.28183364354E+02  0.00000000000E+00 0. -1.
</event>
<event>
 7    1  0.3162486E-013  0.7246171E+02  0.7816164E-02  0.1226708E+00
        -11   -1    0    0    0    0  0.00000000000E+00  0.00000000000E+00  0.45593999997E+02  0.45594000000E+02  0.51100000000E-03 0. -1.
         11   -1    0    0    0    0 -0.00000000000E+00 -0.00000000000E+00 -0.45593999997E+02  0.45594000000E+02  0.51100000000E-03 0.  1.
    9900012    2    1    2    0    0 -0.89031864295E+01 -0.63480852669E+01 -0.15202268292E+02  0.72461711623E+02  0.70000184106E+02 0.  0.
         12    1    1    2    0    0  0.89031864295E+01  0.63480852669E+01  0.15202268292E+02  0.18726288377E+02  0.00000000000E+00 0. -1.
         11    1    3    3    0    0 -0.59549170767E+01  0.34311758874E+01  0.16169218243E+02  0.17569223780E+02  0.51100000000E-03 0. -1.
        -11    1    3    3    0    0  0.14817451597E+02 -0.13652859703E+02 -0.18665850660E+01  0.20234663080E+02  0.51100000000E-03 0.  1.
         12    1    3    3    0    0 -0.17765720949E+02  0.38735985487E+01 -0.29504901470E+02  0.34657824763E+02  0.00000000000E+00 0. -1.
</event>
<event>
 7    1  0.3162486E-013  0.7246158E+02  0.7816164E-02  0.1226708E+00
        -11   -1    0    0    0    0  0.00000000000E+00  0.00000000000E+00  0.45593999997E+02  0.45594000000E+02  0.51100000000E-03 0.  1.
         11   -1    0    0    0    0 -0.00000000000E+00 -0.00000000000E+00 -0.45593999997E+02  0.45594000000E+02  0.51100000000E-03 0. -1.
    9900012    2    1    2    0    0  0.15179817377E+02 -0.10758186443E+02  0.21244649799E+01  0.72461580625E+02  0.70000013458E+02 0.  0.
         12    1    1    2    0    0 -0.15179817377E+02  0.10758186443E+02 -0.21244649799E+01  0.18726419375E+02  0.00000000000E+00 0. -1.
         11    1    3    3    0    0  0.12177447917E+02 -0.22632104479E+02 -0.82876548705E+01  0.27003474118E+02  0.51100000000E-03 0. -1.
        -11    1    3    3    0    0 -0.52314734399E+00 -0.56116611746E+01  0.22964967989E+02  0.23646441154E+02  0.51100000000E-03 0.  1.
        -12    1    3    3    0    0  0.35255168046E+01  0.17485579211E+02 -0.12552848138E+02  0.21811665353E+02  0.00000000000E+00 0.  1.
</event>
<event>
 7    1  0.3162486E-013  0.7246155E+02  0.7816164E-02  0.1226708E+00
        -11   -1    0    0    0    0  0.00000000000E+00  0.00000000000E+00  0.45593999997E+02  0.45594000000E+02  0.51100000000E-03 0.  1.
         11   -1    0    0    0    0 -0.00000000000E+00 -0.00000000000E+00 -0.45593999997E+02  0.45594000000E+02  0.51100000000E-03 0. -1.
    9900012    2    1    2    0    0 -0.13902419724E+01  0.20884412859E+00  0.18673600944E+02  0.72461554506E+02  0.69999979433E+02 0.  0.
         12    1    1    2    0    0  0.13902419724E+01 -0.20884412859E+00 -0.18673600944E+02  0.18726445494E+02  0.00000000000E+00 0. -1.
         11    1    3    3    0    0 -0.12089012904E+02 -0.82384566041E+01 -0.14679108690E+01  0.14702760380E+02  0.51100000000E-03 0. -1.
        -11    1    3    3    0    0  0.20702653610E+02 -0.15482226771E+02  0.18463888317E+02  0.31768134732E+02  0.51100000000E-03 0.  1.
         12    1    3    3    0    0 -0.10003882678E+02  0.23929527504E+02  0.16776234957E+01  0.25990659395E+02  0.00000000000E+00 0. -1.
</event>
<event>
 7    1  0.3162486E-013  0.7246153E+02  0.7816164E-02  0.1226708E+00
        -11   -1    0    0    0    0  0.00000000000E+00  0.00000000000E+00  0.45593999997E+02  0.45594000000E+02  0.51100000000E-03 0.  1.
         11   -1    0    0    0    0 -0.00000000000E+00 -0.00000000000E+00 -0.45593999997E+02  0.45594000000E+02  0.51100000000E-03 0. -1.
    9900012    2    1    2    0    0 -0.28271547829E+01 -0.41468133020E+01  0.18041394652E+02  0.72461527142E+02  0.69999943786E+02 0.  0.
         12    1    1    2    0    0  0.28271547829E+01  0.41468133020E+01 -0.18041394652E+02  0.18726472858E+02  0.00000000000E+00 0. -1.
         11    1    3    3    0    0  0.18675787738E+02  0.11347271063E+02  0.84643346976E+01  0.23434815347E+02  0.51100000000E-03 0. -1.
        -11    1    3    3    0    0  0.99766084711E+01 -0.13151545550E+02  0.28600164604E+01  0.16753374626E+02  0.51100000000E-03 0.  1.
        -12    1    3    3    0    0 -0.31479550992E+02 -0.23425388151E+01  0.67170434936E+01  0.32273337169E+02  0.00000000000E+00 0.  1.
</event>
<event>
 7    1  0.3162486E-013  0.7246154E+02  0.7816164E-02  0.1226708E+00
        -11   -1    0    0    0    0  0.00000000000E+00  0.00000000000E+00  0.45593999997E+02  0.45594000000E+02  0.51100000000E-03 0.  1.
         11   -1    0    0    0    0 -0.00000000000E+00 -0.00000000000E+00 -0.45593999997E+02  0.45594000000E+02  0.51100000000E-03 0. -1.
    9900012    2    1    2    0    0  0.23468237490E+01 -0.13293607428E+02  0.12978939401E+02  0.72461536155E+02  0.69999955527E+02 0.  0.
         12    1    1    2    0    0 -0.23468237490E+01  0.13293607428E+02 -0.12978939401E+02  0.18726463845E+02  0.00000000000E+00 0. -1.
         11    1    3    3    0    0  0.12028190040E+02  0.59876329896E+01 -0.52487927627E+01  0.14424941254E+02  0.51100000000E-03 0. -1.
        -11    1    3    3    0    0  0.18868142439E+02  0.14164928820E+01  0.11487268502E+02  0.22135279286E+02  0.51100000000E-03 0.  1.
        -12    1    3    3    0    0 -0.28549508730E+02 -0.20697733300E+02  0.67404636614E+01  0.35901315615E+02  0.00000000000E+00 0.  1.
</event>
<event>
 7    1  0.3162486E-013  0.7246162E+02  0.7816164E-02  0.1226708E+00
        -11   -1    0    0    0    0  0.00000000000E+00  0.00000000000E+00  0.45593999997E+02  0.45594000000E+02  0.51100000000E-03 0. -1.
         11   -1    0    0    0    0 -0.00000000000E+00 -0.00000000000E+00 -0.45593999997E+02  0.45594000000E+02  0.51100000000E-03 0.  1.
    9900012    2    1    2    0    0  0.18167028287E+02 -0.40353313300E+01  0.20862321451E+01  0.72461623408E+02  0.70000069190E+02 0.  0.
         12    1    1    2    0    0 -0.18167028287E+02  0.40353313300E+01 -0.20862321451E+01  0.18726376592E+02  0.00000000000E+00 0. -1.
         11    1    3    3    0    0  0.67703950578E+01 -0.19814187015E+00  0.27975158462E+02  0.28783450118E+02  0.51100000000E-03 0. -1.
        -11    1    3    3    0    0  0.79201741163E+01  0.88748146097E+01  0.27002650653E+01  0.12197660598E+02  0.51100000000E-03 0.  1.
        -12    1    3    3    0    0  0.34764591124E+01 -0.12712004070E+02 -0.28589191382E+02  0.31480512692E+02  0.00000000000E+00 0.  1.
</event>
<event>
 7    1  0.3162486E-013  0.7246153E+02  0.7816164E-02  0.1226708E+00
        -11   -1    0    0    0    0  0.00000000000E+00  0.00000000000E+00  0.45593999997E+02  0.45594000000E+02  0.51100000000E-03 0. -1.
         11   -1    0    0    0    0 -0.00000000000E+00 -0.00000000000E+00 -0.45593999997E+02  0.45594000000E+02  0.51100000000E-03 0.  1.
    9900012    2    1    2    0    0  0.11266618426E+02  0.54382063000E+01 -0.13934482171E+02  0.72461532851E+02  0.69999951223E+02 0.  0.
         12    1    1    2    0    0 -0.11266618426E+02 -0.54382063000E+01  0.13934482171E+02  0.18726467149E+02  0.00000000000E+00 0. -1.
         11    1    3    3    0    0 -0.93498687684E+01  0.29587379056E+01  0.73297460017E+01  0.12243339115E+02  0.51100000000E-03 0. -1.
        -11    1    3    3    0    0 -0.16018308623E+02  0.55261826278E+01 -0.15582562877E+02  0.23020451161E+02  0.51100000000E-03 0.  1.
         12    1    3    3    0    0  0.36634795817E+02 -0.30467142334E+01 -0.56816652959E+01  0.37197742575E+02  0.00000000000E+00 0. -1.
</event>
<event>
 7    1  0.3162486E-013  0.7246173E+02  0.7816164E-02  0.1226708E+00
        -11   -1    0    0    0    0  0.00000000000E+00  0.00000000000E+00  0.45593999997E+02  0.45594000000E+02  0.51100000000E-03 0.  1.
         11   -1    0    0    0    0 -0.00000000000E+00 -0.00000000000E+00 -0.45593999997E+02  0.45594000000E+02  0.51100000000E-03 0. -1.
    9900012    2    1    2    0    0 -0.16756999582E+02  0.64817130422E+01  0.52785878014E+01  0.72461731601E+02  0.70000210132E+02 0.  0.
         12    1    1    2    0    0  0.16756999582E+02 -0.64817130422E+01 -0.52785878014E+01  0.18726268399E+02  0.00000000000E+00 0. -1.
         11    1    3    3    0    0  0.12255423837E+02 -0.10958983052E+02  0.17899148186E+02  0.24303790424E+02  0.51100000000E-03 0. -1.
        -11    1    3    3    0    0 -0.60624610550E+01  0.15663630333E+02  0.67223496297E+01  0.18091233625E+02  0.51100000000E-03 0.  1.
        -12    1    3    3    0    0 -0.22949962364E+02  0.17770657607E+01 -0.19342910014E+02  0.30066707552E+02  0.00000000000E+00 0.  1.
</event>
<event>
 7    1  0.3162486E-013  0.7246155E+02  0.7816164E-02  0.1226708E+00
        -11   -1    0    0    0    0  0.00000000000E+00  0.00000000000E+00  0.45593999997E+02  0.45594000000E+02  0.51100000000E-03 0.  1.
         11   -1    0    0    0    0 -0.00000000000E+00 -0.00000000000E+00 -0.45593999997E+02  0.45594000000E+02  0.51100000000E-03 0. -1.
    9900012    2    1    2    0    0  0.13570982793E+02  0.34649730912E+01  0.12429902491E+02  0.72461545760E+02  0.69999968039E+02 0.  0.
         12    1    1    2    0    0 -0.13570982793E+02 -0.34649730912E+01 -0.12429902491E+02  0.18726454240E+02  0.00000000000E+00 0. -1.
         11    1    3    3    0    0 -0.29640848076E+01  0.49427838639E+01  0.86450826079E+01  0.10390108981E+02  0.51100000000E-03 0. -1.
        -11    1    3    3    0    0  0.22279581476E+02  0.25405375566E+02 -0.24627618527E+01  0.33880349092E+02  0.51100000000E-03 0.  1.
         12    1    3    3    0    0 -0.57445138763E+01 -0.26883186339E+02  0.62475817359E+01  0.28191087686E+02  0.00000000000E+00 0. -1.
</event>
<event>
 7    1  0.3162486E-013  0.7246153E+02  0.7816164E-02  0.1226708E+00
        -11   -1    0    0    0    0  0.00000000000E+00  0.00000000000E+00  0.45593999997E+02  0.45594000000E+02  0.51100000000E-03 0.  1.
         11   -1    0    0    0    0 -0.00000000000E+00 -0.00000000000E+00 -0.45593999997E+02  0.45594000000E+02  0.51100000000E-03 0. -1.
    9900012    2    1    2    0    0  0.59961328733E+01  0.74279382343E+01  0.16110636725E+02  0.72461534996E+02  0.69999954018E+02 0.  0.
         12    1    1    2    0    0 -0.59961328733E+01 -0.74279382343E+01 -0.16110636725E+02  0.18726465004E+02  0.00000000000E+00 0. -1.
         11    1    3    3    0    0  0.23100173690E+02  0.97317804984E+01 -0.13330769401E+02  0.28390755349E+02  0.51100000000E-03 0. -1.
        -11    1    3    3    0    0 -0.98874501012E+00 -0.42422044054E+01 -0.46138426613E+01  0.63451918234E+01  0.51100000000E-03 0.  1.
        -12    1    3    3    0    0 -0.16115295806E+02  0.19383621413E+01  0.34055248788E+02  0.37725587824E+02  0.00000000000E+00 0.  1.
</event>
<event>
 7    1  0.3162486E-013  0.7246158E+02  0.7816164E-02  0.1226708E+00
        -11   -1    0    0    0    0  0.00000000000E+00  0.00000000000E+00  0.45593999997E+02  0.45594000000E+02  0.51100000000E-03 0.  1.
         11   -1    0    0    0    0 -0.00000000000E+00 -0.00000000000E+00 -0.45593999997E+02  0.45594000000E+02  0.51100000000E-03 0. -1.
    9900012    2    1    2    0    0  0.12753336667E+02  0.21140782349E+01  0.13548496183E+02  0.72461583585E+02  0.70000017314E+02 0.  0.
         12    1    1    2    0    0 -0.12753336667E+02 -0.21140782349E+01 -0.13548496183E+02  0.18726416415E+02  0.00000000000E+00 0. -1.
         11    1    3    3    0    0 -0.12184463433E+02 -0.79418663089E+01 -0.13047904514E+02  0.19539247736E+02  0.51100000000E-03 0. -1.
        -11    1    3    3    0    0  0.11528458072E+02 -0.13096128371E+02  0.39955986556E+01  0.17899126591E+02  0.51100000000E-03 0.  1.
        -12    1    3    3    0    0  0.13409342028E+02  0.23152072915E+02  0.22600802041E+02  0.35023209259E+02  0.00000000000E+00 0.  1.
</event>
<event>
 7    1  0.3162486E-013  0.7246156E+02  0.7816164E-02  0.1226708E+00
        -11   -1    0    0    0    0  0.00000000000E+00  0.00000000000E+00  0.45593999997E+02  0.45594000000E+02  0.51100000000E-03 0.  1.
         11   -1    0    0    0    0 -0.00000000000E+00 -0.00000000000E+00 -0.45593999997E+02  0.45594000000E+02  0.51100000000E-03 0. -1.
    9900012    2    1    2    0    0  0.11822362122E+02 -0.10264003432E+02 -0.10274323504E+02  0.72461555168E+02  0.69999980295E+02 0.  0.
         12    1    1    2    0    0 -0.11822362122E+02  0.10264003432E+02  0.10274323504E+02  0.18726444832E+02  0.00000000000E+00 0. -1.
         11    1    3    3    0    0  0.27411636974E+01 -0.94247683030E+01 -0.23347423360E+01  0.10089165378E+02  0.51100000000E-03 0. -1.
        -11    1    3    3    0    0  0.95361095861E+01 -0.28460610481E+02 -0.15430394197E+02  0.33749678522E+02  0.51100000000E-03 0.  1.
         12    1    3    3    0    0 -0.45491116191E+00  0.27621375352E+02  0.74908130293E+01  0.28622711268E+02  0.00000000000E+00 0. -1.
</event>
<event>
 7    1  0.3162486E-013  0.7246157E+02  0.7816164E-02  0.1226708E+00
        -11   -1    0    0    0    0  0.00000000000E+00  0.00000000000E+00  0.45593999997E+02  0.45594000000E+02  0.51100000000E-03 0. -1.
         11   -1    0    0    0    0 -0.00000000000E+00 -0.00000000000E+00 -0.45593999997E+02  0.45594000000E+02  0.51100000000E-03 0.  1.
    9900012    2    1    2    0    0 -0.78079253367E+01 -0.30923405593E+01 -0.16737765876E+02  0.72461572825E+02  0.70000003297E+02 0.  0.
         12    1    1    2    0    0  0.78079253367E+01  0.30923405593E+01  0.16737765876E+02  0.18726427175E+02  0.00000000000E+00 0. -1.
         11    1    3    3    0    0 -0.16133984243E+02  0.16701020311E+02 -0.10207961729E+02  0.25365961640E+02  0.51100000000E-03 0. -1.
        -11    1    3    3    0    0 -0.58455294853E+01 -0.16643767812E+02 -0.20433165633E+02  0.26994434241E+02  0.51100000000E-03 0.  1.
         12    1    3    3    0    0  0.14171588391E+02 -0.31495930586E+01  0.13903361486E+02  0.20101176945E+02  0.00000000000E+00 0. -1.
</event>
<event>
 7    1  0.3162486E-013  0.7246156E+02  0.7816164E-02  0.1226708E+00
        -11   -1    0    0    0    0  0.00000000000E+00  0.00000000000E+00  0.45593999997E+02  0.45594000000E+02  0.51100000000E-03 0.  1.
         11   -1    0    0    0    0 -0.00000000000E+00 -0.00000000000E+00 -0.45593999997E+02  0.45594000000E+02  0.51100000000E-03 0. -1.
    9900012    2    1    2    0    0  0.15642735131E+02  0.10294868393E+02 -0.81527250502E-02  0.72461560294E+02  0.69999986973E+02 0.  0.
         12    1    1    2    0    0 -0.15642735131E+02 -0.10294868393E+02  0.81527250502E-02  0.18726439706E+02  0.00000000000E+00 0. -1.
         11    1    3    3    0    0  0.17714506541E+02  0.10870618390E+02 -0.10625168185E+02  0.23342413872E+02  0.51100000000E-03 0. -1.
        -11    1    3    3    0    0  0.21334096912E+02  0.42765891821E+01  0.12582913746E+02  0.25134888595E+02  0.51100000000E-03 0.  1.
        -12    1    3    3    0    0 -0.23405868322E+02 -0.48523391792E+01 -0.19658982861E+01  0.23984257827E+02  0.00000000000E+00 0.  1.
</event>
<event>
 7    1  0.3162486E-013  0.7246154E+02  0.7816164E-02  0.1226708E+00
        -11   -1    0    0    0    0  0.00000000000E+00  0.00000000000E+00  0.45593999997E+02  0.45594000000E+02  0.51100000000E-03 0.  1.
         11   -1    0    0    0    0 -0.00000000000E+00 -0.00000000000E+00 -0.45593999997E+02  0.45594000000E+02  0.51100000000E-03 0. -1.
    9900012    2    1    2    0    0  0.12955588533E+02 -0.12778769722E+02  0.44199489195E+01  0.72461543360E+02  0.69999964913E+02 0.  0.
         12    1    1    2    0    0 -0.12955588533E+02  0.12778769722E+02 -0.44199489195E+01  0.18726456640E+02  0.00000000000E+00 0. -1.
         11    1    3    3    0    0 -0.12213197636E+02 -0.47380869858E+01  0.19228841464E+02  0.23267144412E+02  0.51100000000E-03 0. -1.
        -11    1    3    3    0    0  0.32432969965E+01 -0.19212985305E+02  0.17046114841E+01  0.19559230054E+02  0.51100000000E-03 0.  1.
         12    1    3    3    0    0  0.21925489172E+02  0.11172302568E+02 -0.16513504028E+02  0.29635168894E+02  0.00000000000E+00 0. -1.
</event>
<event>
 7    1  0.3162486E-013  0.7246156E+02  0.7816164E-02  0.1226708E+00
        -11   -1    0    0    0    0  0.00000000000E+00  0.00000000000E+00  0.45593999997E+02  0.45594000000E+02  0.51100000000E-03 0. -1.
         11   -1    0    0    0    0 -0.00000000000E+00 -0.00000000000E+00 -0.45593999997E+02  0.45594000000E+02  0.51100000000E-03 0.  1.
    9900012    2    1    2    0    0  0.10346030822E+01  0.94163457677E+01 -0.16153684332E+02  0.72461561774E+02  0.69999988900E+02 0.  0.
         12    1    1    2    0    0 -0.10346030822E+01 -0.94163457677E+01  0.16153684332E+02  0.18726438226E+02  0.00000000000E+00 0. -1.
         11    1    3    3    0    0 -0.26539074638E+01 -0.13556060759E+02  0.17282358010E+02  0.22124418789E+02  0.51100000000E-03 0. -1.
        -11    1    3    3    0    0 -0.86887724426E+01  0.34161578901E+01  0.39792213839E+00  0.93446906626E+01  0.51100000000E-03 0.  1.
        -12    1    3    3    0    0  0.12377282989E+02  0.19556248637E+02 -0.33833964480E+02  0.40992452322E+02  0.00000000000E+00 0.  1.
</event>
<event>
 7    1  0.3162486E-013  0.7246134E+02  0.7816164E-02  0.1226709E+00
        -11   -1    0    0    0    0  0.00000000000E+00  0.00000000000E+00  0.45593999997E+02  0.45594000000E+02  0.51100000000E-03 0.  1.
         11   -1    0    0    0    0 -0.00000000000E+00 -0.00000000000E+00 -0.45593999997E+02  0.45594000000E+02  0.51100000000E-03 0. -1.
    9900012    2    1    2    0    0  0.60463755330E+00 -0.17751853043E+02  0.59324517256E+01  0.72461338351E+02  0.69999697850E+02 0.  0.
         12    1    1    2    0    0 -0.60463755330E+00  0.17751853043E+02 -0.59324517256E+01  0.18726661649E+02  0.00000000000E+00 0. -1.
         11    1    3    3    0    0 -0.10803190862E+02  0.61760000366E+01 -0.91422297593E+01  0.15441252361E+02  0.51100000000E-03 0. -1.
        -11    1    3    3    0    0  0.94159280666E+01  0.75563055891E+01  0.21655861607E+02  0.24793825799E+02  0.51100000000E-03 0.  1.
         12    1    3    3    0    0  0.19919003488E+01 -0.31484158669E+02 -0.65811801226E+01  0.32226260191E+02  0.00000000000E+00 0. -1.
</event>
<event>
 7    1  0.3162486E-013  0.7246155E+02  0.7816164E-02  0.1226708E+00
        -11   -1    0    0    0    0  0.00000000000E+00  0.00000000000E+00  0.45593999997E+02  0.45594000000E+02  0.51100000000E-03 0. -1.
         11   -1    0    0    0    0 -0.00000000000E+00 -0.00000000000E+00 -0.45593999997E+02  0.45594000000E+02  0.51100000000E-03 0.  1.
    9900012    2    1    2    0    0 -0.19299037086E+01 -0.12039270859E+02 -0.14213067165E+02  0.72461552142E+02  0.69999976353E+02 0.  0.
         12    1    1    2    0    0  0.19299037086E+01  0.12039270859E+02  0.14213067165E+02  0.18726447858E+02  0.00000000000E+00 0. -1.
         11    1    3    3    0    0  0.17750853826E+02  0.69792445960E+01 -0.19520399833E+02  0.27291915957E+02  0.51100000000E-03 0. -1.
        -11    1    3    3    0    0 -0.11244343549E+02  0.68551125368E+01 -0.74315789468E+01  0.15121382068E+02  0.51100000000E-03 0.  1.
        -12    1    3    3    0    0 -0.84364139854E+01 -0.25873627992E+02  0.12738911614E+02  0.30048254117E+02  0.00000000000E+00 0.  1.
</event>
<event>
 7    1  0.3162486E-013  0.7246164E+02  0.7816164E-02  0.1226708E+00
        -11   -1    0    0    0    0  0.00000000000E+00  0.00000000000E+00  0.45593999997E+02  0.45594000000E+02  0.51100000000E-03 0.  1.
         11   -1    0    0    0    0 -0.00000000000E+00 -0.00000000000E+00 -0.45593999997E+02  0.45594000000E+02  0.51100000000E-03 0. -1.
    9900012    2    1    2    0    0 -0.41621716391E+01 -0.13425785201E+01  0.18208521524E+02  0.72461643015E+02  0.70000094732E+02 0.  0.
         12    1    1    2    0    0  0.41621716391E+01  0.13425785201E+01 -0.18208521524E+02  0.18726356985E+02  0.00000000000E+00 0. -1.
         11    1    3    3    0    0 -0.79584908974E+01  0.25247254532E+01 -0.17164194361E+00  0.83511243073E+01  0.51100000000E-03 0. -1.
        -11    1    3    3    0    0 -0.61230700808E+01 -0.11558864496E+02  0.38352270646E+02  0.40521549818E+02  0.51100000000E-03 0.  1.
         12    1    3    3    0    0  0.99193893391E+01  0.76915605223E+01 -0.19972107179E+02  0.23588968890E+02  0.00000000000E+00 0. -1.
</event>
<event>
 7    1  0.3162486E-013  0.7246158E+02  0.7816164E-02  0.1226708E+00
        -11   -1    0    0    0    0  0.00000000000E+00  0.00000000000E+00  0.45593999997E+02  0.45594000000E+02  0.51100000000E-03 0.  1.
         11   -1    0    0    0    0 -0.00000000000E+00 -0.00000000000E+00 -0.45593999997E+02  0.45594000000E+02  0.51100000000E-03 0. -1.
    9900012    2    1    2    0    0 -0.30608762355E+01  0.55185592885E+01  0.17631091334E+02  0.72461579050E+02  0.70000011406E+02 0.  0.
         12    1    1    2    0    0  0.30608762355E+01 -0.55185592885E+01 -0.17631091334E+02  0.18726420950E+02  0.00000000000E+00 0. -1.
         11    1    3    3    0    0  0.10751993099E+02 -0.15773006493E+02  0.34229398499E+01  0.19393545496E+02  0.51100000000E-03 0. -1.
        -11    1    3    3    0    0 -0.21179934737E+02  0.73701746288E+00 -0.73040898450E+01  0.22416122745E+02  0.51100000000E-03 0.  1.
        -12    1    3    3    0    0  0.73670654026E+01  0.20554548319E+02  0.21512241329E+02  0.30651910809E+02  0.00000000000E+00 0.  1.
</event>
<event>
 7    1  0.3162486E-013  0.7246162E+02  0.7816164E-02  0.1226708E+00
        -11   -1    0    0    0    0  0.00000000000E+00  0.00000000000E+00  0.45593999997E+02  0.45594000000E+02  0.51100000000E-03 0. -1.
         11   -1    0    0    0    0 -0.00000000000E+00 -0.00000000000E+00 -0.45593999997E+02  0.45594000000E+02  0.51100000000E-03 0.  1.
    9900012    2    1    2    0    0  0.18090863064E+02  0.13691338302E+01  0.46393514827E+01  0.72461616579E+02  0.70000060294E+02 0.  0.
         12    1    1    2    0    0 -0.18090863064E+02 -0.13691338302E+01 -0.46393514827E+01  0.18726383421E+02  0.00000000000E+00 0. -1.
         11    1    3    3    0    0  0.20332066807E+02  0.12423571616E+02 -0.36329232698E+01  0.24102618200E+02  0.51100000000E-03 0.  1.
        -11    1    3    3    0    0  0.10688460764E+02 -0.11286220153E+02  0.23628534132E+02  0.28283026435E+02  0.51100000000E-03 0. -1.
        -12    1    3    3    0    0 -0.12929664508E+02  0.23178236732E+00 -0.15356259379E+02  0.20075971944E+02  0.00000000000E+00 0.  1.
</event>
<event>
 7    1  0.3162486E-013  0.7246158E+02  0.7816164E-02  0.1226708E+00
        -11   -1    0    0    0    0  0.00000000000E+00  0.00000000000E+00  0.45593999997E+02  0.45594000000E+02  0.51100000000E-03 0. -1.
         11   -1    0    0    0    0 -0.00000000000E+00 -0.00000000000E+00 -0.45593999997E+02  0.45594000000E+02  0.51100000000E-03 0.  1.
    9900012    2    1    2    0    0  0.29911382173E+01 -0.13425128331E+02  0.12708181097E+02  0.72461578951E+02  0.70000011276E+02 0.  0.
         12    1    1    2    0    0 -0.29911382173E+01  0.13425128331E+02 -0.12708181097E+02  0.18726421049E+02  0.00000000000E+00 0. -1.
         11    1    3    3    0    0  0.95295257803E+01 -0.36076713883E+01  0.38651183082E+01  0.10897994964E+02  0.51100000000E-03 0. -1.
        -11    1    3    3    0    0 -0.66962211959E+01  0.19040166354E+02 -0.14163501081E+02  0.24657089776E+02  0.51100000000E-03 0.  1.
         12    1    3    3    0    0  0.15783363297E+00 -0.28857623297E+02  0.23006563870E+02  0.36906494210E+02  0.00000000000E+00 0. -1.
</event>
<event>
 7    1  0.3162486E-013  0.7246154E+02  0.7816164E-02  0.1226708E+00
        -11   -1    0    0    0    0  0.00000000000E+00  0.00000000000E+00  0.45593999997E+02  0.45594000000E+02  0.51100000000E-03 0. -1.
         11   -1    0    0    0    0 -0.00000000000E+00 -0.00000000000E+00 -0.45593999997E+02  0.45594000000E+02  0.51100000000E-03 0.  1.
    9900012    2    1    2    0    0  0.78909155249E+01  0.16089677513E+02 -0.54347113292E+01  0.72461538574E+02  0.69999958679E+02 0.  0.
         12    1    1    2    0    0 -0.78909155249E+01 -0.16089677513E+02  0.54347113292E+01  0.18726461426E+02  0.00000000000E+00 0. -1.
         11    1    3    3    0    0  0.49742288956E+01 -0.23966325059E+02 -0.12271126578E+02  0.27380800530E+02  0.51100000000E-03 0. -1.
        -11    1    3    3    0    0 -0.74938786938E+01  0.11639423620E+02 -0.80762960601E+00  0.13866746768E+02  0.51100000000E-03 0.  1.
        -12    1    3    3    0    0  0.10410565323E+02  0.28416578952E+02  0.76440448544E+01  0.31213991276E+02  0.00000000000E+00 0.  1.
</event>
<event>
 7    1  0.3162486E-013  0.7246156E+02  0.7816164E-02  0.1226708E+00
        -11   -1    0    0    0    0  0.00000000000E+00  0.00000000000E+00  0.45593999997E+02  0.45594000000E+02  0.51100000000E-03 0.  1.
         11   -1    0    0    0    0 -0.00000000000E+00 -0.00000000000E+00 -0.45593999997E+02  0.45594000000E+02  0.51100000000E-03 0. -1.
    9900012    2    1    2    0    0 -0.96572825452E+01  0.13797103181E+02  0.81887877692E+01  0.72461563941E+02  0.69999991723E+02 0.  0.
         12    1    1    2    0    0  0.96572825452E+01 -0.13797103181E+02 -0.81887877692E+01  0.18726436059E+02  0.00000000000E+00 0. -1.
         11    1    3    3    0    0 -0.14666246851E+02 -0.10532249011E+01  0.11481917593E+02  0.18655897492E+02  0.51100000000E-03 0.  1.
        -11    1    3    3    0    0  0.10834746892E+02 -0.34436647556E+01 -0.23393266141E+02  0.26009526489E+02  0.51100000000E-03 0. -1.
         12    1    3    3    0    0 -0.58257825866E+01  0.18293992838E+02  0.20100136317E+02  0.27796139960E+02  0.00000000000E+00 0. -1.
</event>
<event>
 7    1  0.3162486E-013  0.7246157E+02  0.7816164E-02  0.1226708E+00
        -11   -1    0    0    0    0  0.00000000000E+00  0.00000000000E+00  0.45593999997E+02  0.45594000000E+02  0.51100000000E-03 0.  1.
         11   -1    0    0    0    0 -0.00000000000E+00 -0.00000000000E+00 -0.45593999997E+02  0.45594000000E+02  0.51100000000E-03 0. -1.
    9900012    2    1    2    0    0 -0.40563622719E+01 -0.10812482291E+02  0.14741623781E+02  0.72461566280E+02  0.69999994771E+02 0.  0.
         12    1    1    2    0    0  0.40563622719E+01  0.10812482291E+02 -0.14741623781E+02  0.18726433720E+02  0.00000000000E+00 0. -1.
         11    1    3    3    0    0 -0.30674806277E+01  0.67430073513E+01 -0.96470140711E+01  0.12163160210E+02  0.51100000000E-03 0. -1.
        -11    1    3    3    0    0 -0.24773687281E+02 -0.24787440827E+01  0.32967505503E+01  0.25114703227E+02  0.51100000000E-03 0.  1.
        -12    1    3    3    0    0  0.23784805637E+02 -0.15076745559E+02  0.21091887302E+02  0.35183702844E+02  0.00000000000E+00 0.  1.
</event>
<event>
 7    1  0.3162486E-013  0.7246159E+02  0.7816164E-02  0.1226708E+00
        -11   -1    0    0    0    0  0.00000000000E+00  0.00000000000E+00  0.45593999997E+02  0.45594000000E+02  0.51100000000E-03 0.  1.
         11   -1    0    0    0    0 -0.00000000000E+00 -0.00000000000E+00 -0.45593999997E+02  0.45594000000E+02  0.51100000000E-03 0. -1.
    9900012    2    1    2    0    0 -0.93325768293E+01  0.12191481905E+02  0.10721433773E+02  0.72461591816E+02  0.70000028036E+02 0.  0.
         12    1    1    2    0    0  0.93325768293E+01 -0.12191481905E+02 -0.10721433773E+02  0.18726408184E+02  0.00000000000E+00 0. -1.
         11    1    3    3    0    0  0.71924914299E+01 -0.17631323063E+01 -0.96210877876E+00  0.74676784922E+01  0.51100000000E-03 0. -1.
        -11    1    3    3    0    0  0.13728115311E+02 -0.29464256401E+01  0.24341305019E+02  0.28100564128E+02  0.51100000000E-03 0.  1.
         12    1    3    3    0    0 -0.30253183571E+02  0.16901039851E+02 -0.12657762467E+02  0.36893349196E+02  0.00000000000E+00 0. -1.
</event>
<event>
 7    1  0.3162486E-013  0.7246154E+02  0.7816164E-02  0.1226708E+00
        -11   -1    0    0    0    0  0.00000000000E+00  0.00000000000E+00  0.45593999997E+02  0.45594000000E+02  0.51100000000E-03 0.  1.
         11   -1    0    0    0    0 -0.00000000000E+00 -0.00000000000E+00 -0.45593999997E+02  0.45594000000E+02  0.51100000000E-03 0. -1.
    9900012    2    1    2    0    0 -0.10432453123E+02 -0.62659810687E+01  0.14233114189E+02  0.72461544478E+02  0.69999966369E+02 0.  0.
         12    1    1    2    0    0  0.10432453123E+02  0.62659810687E+01 -0.14233114189E+02  0.18726455522E+02  0.00000000000E+00 0. -1.
         11    1    3    3    0    0 -0.94063490563E+01 -0.78560771086E+01 -0.92049374473E-01  0.12255848541E+02  0.51100000000E-03 0. -1.
        -11    1    3    3    0    0 -0.27401695418E+02 -0.99495381904E+01  0.11269222857E+02  0.31254465377E+02  0.51100000000E-03 0.  1.
         12    1    3    3    0    0  0.26375591352E+02  0.11539634230E+02  0.30559407066E+01  0.28951230560E+02  0.00000000000E+00 0. -1.
</event>
<event>
 7    1  0.3162486E-013  0.7246159E+02  0.7816164E-02  0.1226708E+00
        -11   -1    0    0    0    0  0.00000000000E+00  0.00000000000E+00  0.45593999997E+02  0.45594000000E+02  0.51100000000E-03 0. -1.
         11   -1    0    0    0    0 -0.00000000000E+00 -0.00000000000E+00 -0.45593999997E+02  0.45594000000E+02  0.51100000000E-03 0.  1.
    9900012    2    1    2    0    0  0.16688940297E+02 -0.14278869198E+01 -0.83736932851E+01  0.72461592749E+02  0.70000029252E+02 0.  0.
         12    1    1    2    0    0 -0.16688940297E+02  0.14278869198E+01  0.83736932851E+01  0.18726407251E+02  0.00000000000E+00 0. -1.
         11    1    3    3    0    0  0.31588189237E+01  0.69203050649E+01 -0.32732079045E+01  0.82814642082E+01  0.51100000000E-03 0. -1.
        -11    1    3    3    0    0  0.24251263393E+02  0.21338600360E+02 -0.68939157849E+00  0.32309981468E+02  0.51100000000E-03 0.  1.
         12    1    3    3    0    0 -0.10721142020E+02 -0.29686792345E+02 -0.44110938021E+01  0.31870147073E+02  0.00000000000E+00 0. -1.
</event>
<event>
 7    1  0.3162486E-013  0.7246161E+02  0.7816164E-02  0.1226708E+00
        -11   -1    0    0    0    0  0.00000000000E+00  0.00000000000E+00  0.45593999997E+02  0.45594000000E+02  0.51100000000E-03 0. -1.
         11   -1    0    0    0    0 -0.00000000000E+00 -0.00000000000E+00 -0.45593999997E+02  0.45594000000E+02  0.51100000000E-03 0.  1.
    9900012    2    1    2    0    0 -0.35550340593E+00  0.85861093240E+01 -0.16638205257E+02  0.72461614065E+02  0.70000057020E+02 0.  0.
         12    1    1    2    0    0  0.35550340593E+00 -0.85861093240E+01  0.16638205257E+02  0.18726385935E+02  0.00000000000E+00 0. -1.
         11    1    3    3    0    0 -0.97339542619E+01 -0.11181153442E+01  0.17816257933E+02  0.20332709964E+02  0.51100000000E-03 0. -1.
        -11    1    3    3    0    0 -0.98407851222E+01  0.12477268622E+02 -0.46509905556E+01  0.16557626566E+02  0.51100000000E-03 0.  1.
        -12    1    3    3    0    0  0.19219235978E+02 -0.27730439542E+01 -0.29803472635E+02  0.35571277535E+02  0.00000000000E+00 0.  1.
</event>
<event>
 7    1  0.3162486E-013  0.7246157E+02  0.7816164E-02  0.1226708E+00
        -11   -1    0    0    0    0  0.00000000000E+00  0.00000000000E+00  0.45593999997E+02  0.45594000000E+02  0.51100000000E-03 0. -1.
         11   -1    0    0    0    0 -0.00000000000E+00 -0.00000000000E+00 -0.45593999997E+02  0.45594000000E+02  0.51100000000E-03 0.  1.
    9900012    2    1    2    0    0  0.13542730601E+02  0.11247593655E+02 -0.63847772687E+01  0.72461566919E+02  0.69999995604E+02 0.  0.
         12    1    1    2    0    0 -0.13542730601E+02 -0.11247593655E+02  0.63847772687E+01  0.18726433081E+02  0.00000000000E+00 0. -1.
         11    1    3    3    0    0  0.92335800962E+00 -0.64800490784E+01  0.69944191468E+01  0.95794324224E+01  0.51100000000E-03 0. -1.
        -11    1    3    3    0    0  0.30923734234E+02  0.12954767135E+02  0.78638231667E+01  0.34437523802E+02  0.51100000000E-03 0.  1.
        -12    1    3    3    0    0 -0.18304361643E+02  0.47728755984E+01 -0.21243019582E+02  0.28444610696E+02  0.00000000000E+00 0.  1.
</event>
<event>
 7    1  0.3162486E-013  0.7246153E+02  0.7816164E-02  0.1226708E+00
        -11   -1    0    0    0    0  0.00000000000E+00  0.00000000000E+00  0.45593999997E+02  0.45594000000E+02  0.51100000000E-03 0.  1.
         11   -1    0    0    0    0 -0.00000000000E+00 -0.00000000000E+00 -0.45593999997E+02  0.45594000000E+02  0.51100000000E-03 0. -1.
    9900012    2    1    2    0    0  0.16855314077E+02  0.81129942330E+01 -0.87075778828E+00  0.72461534579E+02  0.69999953474E+02 0.  0.
         12    1    1    2    0    0 -0.16855314077E+02 -0.81129942330E+01  0.87075778828E+00  0.18726465421E+02  0.00000000000E+00 0. -1.
         11    1    3    3    0    0  0.88562502900E+01  0.89901364618E+00 -0.29212208209E+01  0.93688273588E+01  0.51100000000E-03 0. -1.
        -11    1    3    3    0    0  0.30950952290E+02 -0.34876382455E+01 -0.12868745805E+02  0.33700588823E+02  0.51100000000E-03 0.  1.
         12    1    3    3    0    0 -0.22951888503E+02  0.10701618832E+02  0.14919208838E+02  0.29392118396E+02  0.00000000000E+00 0. -1.
</event>
<event>
 7    1  0.3162486E-013  0.7246151E+02  0.7816164E-02  0.1226708E+00
        -11   -1    0    0    0    0  0.00000000000E+00  0.00000000000E+00  0.45593999997E+02  0.45594000000E+02  0.51100000000E-03 0. -1.
         11   -1    0    0    0    0 -0.00000000000E+00 -0.00000000000E+00 -0.45593999997E+02  0.45594000000E+02  0.51100000000E-03 0.  1.
    9900012    2    1    2    0    0 -0.91848846877E+01 -0.54349997507E+01 -0.15387655001E+02  0.72461514600E+02  0.69999927448E+02 0.  0.
         12    1    1    2    0    0  0.91848846877E+01  0.54349997507E+01  0.15387655001E+02  0.18726485400E+02  0.00000000000E+00 0. -1.
         11    1    3    3    0    0 -0.24691137577E+02  0.13552622150E+02  0.96435827448E+01  0.29771203039E+02  0.51100000000E-03 0. -1.
        -11    1    3    3    0    0  0.98327718030E+01 -0.49289897906E+01  0.24830701403E+01  0.11275813907E+02  0.51100000000E-03 0.  1.
        -12    1    3    3    0    0  0.56734810858E+01 -0.14058632110E+02 -0.27514307886E+02  0.31414497654E+02  0.00000000000E+00 0.  1.
</event>
<event>
 7    1  0.3162486E-013  0.7246157E+02  0.7816164E-02  0.1226708E+00
        -11   -1    0    0    0    0  0.00000000000E+00  0.00000000000E+00  0.45593999997E+02  0.45594000000E+02  0.51100000000E-03 0.  1.
         11   -1    0    0    0    0 -0.00000000000E+00 -0.00000000000E+00 -0.45593999997E+02  0.45594000000E+02  0.51100000000E-03 0. -1.
    9900012    2    1    2    0    0 -0.17825732635E+02  0.56273332343E+01  0.11205176829E+01  0.72461569929E+02  0.69999999525E+02 0.  0.
         12    1    1    2    0    0  0.17825732635E+02 -0.56273332343E+01 -0.11205176829E+01  0.18726430071E+02  0.00000000000E+00 0. -1.
         11    1    3    3    0    0 -0.43959939604E+01  0.82591942769E+01  0.50961853002E-01  0.93563695082E+01  0.51100000000E-03 0. -1.
        -11    1    3    3    0    0 -0.61285441764E+01  0.76931651105E+01  0.29978824342E+02  0.31551129177E+02  0.51100000000E-03 0.  1.
         12    1    3    3    0    0 -0.73011944984E+01 -0.10325026153E+02 -0.28909268512E+02  0.31554071244E+02  0.00000000000E+00 0. -1.
</event>
<event>
 7    1  0.3162486E-013  0.7246160E+02  0.7816164E-02  0.1226708E+00
        -11   -1    0    0    0    0  0.00000000000E+00  0.00000000000E+00  0.45593999997E+02  0.45594000000E+02  0.51100000000E-03 0. -1.
         11   -1    0    0    0    0 -0.00000000000E+00 -0.00000000000E+00 -0.45593999997E+02  0.45594000000E+02  0.51100000000E-03 0.  1.
    9900012    2    1    2    0    0  0.10095846467E+02  0.90688871141E+01 -0.12903767598E+02  0.72461600250E+02  0.70000039023E+02 0.  0.
         12    1    1    2    0    0 -0.10095846467E+02 -0.90688871141E+01  0.12903767598E+02  0.18726399750E+02  0.00000000000E+00 0. -1.
         11    1    3    3    0    0  0.77090094377E+01 -0.18270256949E+02  0.19581241853E+02  0.27868551241E+02  0.51100000000E-03 0. -1.
        -11    1    3    3    0    0  0.76704954148E-01 -0.69428485672E+00  0.76843843694E+00  0.10384666604E+01  0.51100000000E-03 0.  1.
        -12    1    3    3    0    0  0.23101320756E+01  0.28033428920E+02 -0.33253447887E+02  0.43554582349E+02  0.00000000000E+00 0.  1.
</event>
<event>
 7    1  0.3162486E-013  0.7246156E+02  0.7816164E-02  0.1226708E+00
        -11   -1    0    0    0    0  0.00000000000E+00  0.00000000000E+00  0.45593999997E+02  0.45594000000E+02  0.51100000000E-03 0. -1.
         11   -1    0    0    0    0 -0.00000000000E+00 -0.00000000000E+00 -0.45593999997E+02  0.45594000000E+02  0.51100000000E-03 0.  1.
    9900012    2    1    2    0    0 -0.47991451952E+01  0.12626699844E+02 -0.12969745171E+02  0.72461557910E+02  0.69999983867E+02 0.  0.
         12    1    1    2    0    0  0.47991451952E+01 -0.12626699844E+02  0.12969745171E+02  0.18726442090E+02  0.00000000000E+00 0. -1.
         11    1    3    3    0    0  0.40652856394E+01  0.20910657944E+02  0.17345892100E+02  0.27471114575E+02  0.51100000000E-03 0. -1.
        -11    1    3    3    0    0  0.81547519840E+01  0.50362298494E+01 -0.27668240298E+01  0.99759163233E+01  0.51100000000E-03 0.  1.
        -12    1    3    3    0    0 -0.17019182819E+02 -0.13320187949E+02 -0.27548813242E+02  0.35014527012E+02  0.00000000000E+00 0.  1.
</event>
<event>
 7    1  0.3162486E-013  0.7246156E+02  0.7816164E-02  0.1226708E+00
        -11   -1    0    0    0    0  0.00000000000E+00  0.00000000000E+00  0.45593999997E+02  0.45594000000E+02  0.51100000000E-03 0.  1.
         11   -1    0    0    0    0 -0.00000000000E+00 -0.00000000000E+00 -0.45593999997E+02  0.45594000000E+02  0.51100000000E-03 0. -1.
    9900012    2    1    2    0    0  0.41119004980E+01 -0.20045225819E+01  0.18159127244E+02  0.72461555096E+02  0.69999980201E+02 0.  0.
         12    1    1    2    0    0 -0.41119004980E+01  0.20045225819E+01 -0.18159127244E+02  0.18726444904E+02  0.00000000000E+00 0. -1.
         11    1    3    3    0    0  0.23868805095E+01  0.82006351654E+01 -0.16344482826E+02  0.18441522031E+02  0.51100000000E-03 0. -1.
        -11    1    3    3    0    0  0.40223155981E+01  0.17599381930E+01 -0.83685125412E+01  0.94503125677E+01  0.51100000000E-03 0.  1.
        -12    1    3    3    0    0 -0.22972956097E+01 -0.11965095940E+02  0.42872122612E+02  0.44569720497E+02  0.00000000000E+00 0.  1.
</event>
<event>
 7    1  0.3162486E-013  0.7246159E+02  0.7816164E-02  0.1226708E+00
        -11   -1    0    0    0    0  0.00000000000E+00  0.00000000000E+00  0.45593999997E+02  0.45594000000E+02  0.51100000000E-03 0.  1.
         11   -1    0    0    0    0 -0.00000000000E+00 -0.00000000000E+00 -0.45593999997E+02  0.45594000000E+02  0.51100000000E-03 0. -1.
    9900012    2    1    2    0    0 -0.96890624047E+01 -0.15325833385E+02  0.46818198156E+01  0.72461587209E+02  0.70000022034E+02 0.  0.
         12    1    1    2    0    0  0.96890624047E+01  0.15325833385E+02 -0.46818198156E+01  0.18726412791E+02  0.00000000000E+00 0. -1.
         11    1    3    3    0    0  0.73837357250E+01  0.18998014340E+02 -0.77719398446E+01  0.21813921044E+02  0.51100000000E-03 0. -1.
        -11    1    3    3    0    0 -0.21081643067E+01 -0.24868916010E+00  0.13253797875E+02  0.13422718108E+02  0.51100000000E-03 0.  1.
         12    1    3    3    0    0 -0.14964633823E+02 -0.34075158565E+02 -0.80003821461E+00  0.37224948057E+02  0.00000000000E+00 0. -1.
</event>
<event>
 7    1  0.3162486E-013  0.7246148E+02  0.7816164E-02  0.1226708E+00
        -11   -1    0    0    0    0  0.00000000000E+00  0.00000000000E+00  0.45593999997E+02  0.45594000000E+02  0.51100000000E-03 0.  1.
         11   -1    0    0    0    0 -0.00000000000E+00 -0.00000000000E+00 -0.45593999997E+02  0.45594000000E+02  0.51100000000E-03 0. -1.
    9900012    2    1    2    0    0  0.63122978368E+01  0.13448880719E+02  0.11400229575E+02  0.72461475204E+02  0.69999876127E+02 0.  0.
         12    1    1    2    0    0 -0.63122978368E+01 -0.13448880719E+02 -0.11400229575E+02  0.18726524796E+02  0.00000000000E+00 0. -1.
         11    1    3    3    0    0  0.15574458512E+02 -0.12447362741E+02  0.70386553626E+01  0.21143397710E+02  0.51100000000E-03 0. -1.
        -11    1    3    3    0    0 -0.10220829136E+02 -0.83154770249E+01  0.10117186665E+02  0.16612343985E+02  0.51100000000E-03 0.  1.
         12    1    3    3    0    0  0.95866846078E+00  0.34211720485E+02 -0.57556124533E+01  0.34705733510E+02  0.00000000000E+00 0. -1.
</event>
<event>
 7    1  0.3162486E-013  0.7246107E+02  0.7816164E-02  0.1226709E+00
        -11   -1    0    0    0    0  0.00000000000E+00  0.00000000000E+00  0.45593999997E+02  0.45594000000E+02  0.51100000000E-03 0. -1.
         11   -1    0    0    0    0 -0.00000000000E+00 -0.00000000000E+00 -0.45593999997E+02  0.45594000000E+02  0.51100000000E-03 0.  1.
    9900012    2    1    2    0    0  0.82331546817E+01  0.14114186609E+02 -0.91489247918E+01  0.72461069539E+02  0.69999347670E+02 0.  0.
         12    1    1    2    0    0 -0.82331546817E+01 -0.14114186609E+02  0.91489247918E+01  0.18726930461E+02  0.00000000000E+00 0. -1.
         11    1    3    3    0    0 -0.24012771998E+01  0.26957738815E+02  0.58636526900E+01  0.27692385909E+02  0.51100000000E-03 0. -1.
        -11    1    3    3    0    0  0.23544281621E+02 -0.29487273736E+01 -0.15761121923E+02  0.28485806197E+02  0.51100000000E-03 0.  1.
        -12    1    3    3    0    0 -0.12909849739E+02 -0.98948248323E+01  0.74854444081E+00  0.16282877434E+02  0.00000000000E+00 0.  1.
</event>
<event>
 7    1  0.3162486E-013  0.7246159E+02  0.7816164E-02  0.1226708E+00
        -11   -1    0    0    0    0  0.00000000000E+00  0.00000000000E+00  0.45593999997E+02  0.45594000000E+02  0.51100000000E-03 0.  1.
         11   -1    0    0    0    0 -0.00000000000E+00 -0.00000000000E+00 -0.45593999997E+02  0.45594000000E+02  0.51100000000E-03 0. -1.
    9900012    2    1    2    0    0  0.11798421843E+02  0.11586469586E+02  0.87880221132E+01  0.72461591692E+02  0.70000027874E+02 0.  0.
         12    1    1    2    0    0 -0.11798421843E+02 -0.11586469586E+02 -0.87880221132E+01  0.18726408308E+02  0.00000000000E+00 0. -1.
         11    1    3    3    0    0 -0.52229906715E+01 -0.15234177728E+02 -0.16114497235E+02  0.22782379682E+02  0.51100000000E-03 0. -1.
        -11    1    3    3    0    0  0.69993802084E+01 -0.52495865251E+01  0.88394497776E+01  0.12437256716E+02  0.51100000000E-03 0.  1.
        -12    1    3    3    0    0  0.10022032306E+02  0.32070233839E+02  0.16063069571E+02  0.37241955293E+02  0.00000000000E+00 0.  1.
</event>
<event>
 7    1  0.3162486E-013  0.7246157E+02  0.7816164E-02  0.1226708E+00
        -11   -1    0    0    0    0  0.00000000000E+00  0.00000000000E+00  0.45593999997E+02  0.45594000000E+02  0.51100000000E-03 0.  1.
         11   -1    0    0    0    0 -0.00000000000E+00 -0.00000000000E+00 -0.45593999997E+02  0.45594000000E+02  0.51100000000E-03 0. -1.
    9900012    2    1    2    0    0  0.12388863675E+02  0.13734044308E+02 -0.29276922647E+01  0.72461566858E+02  0.69999995524E+02 0.  0.
         12    1    1    2    0    0 -0.12388863675E+02 -0.13734044308E+02  0.29276922647E+01  0.18726433142E+02  0.00000000000E+00 0. -1.
         11    1    3    3    0    0  0.74545768863E+01  0.12842394954E+02  0.27869347631E+01  0.15108435735E+02  0.51100000000E-03 0. -1.
        -11    1    3    3    0    0 -0.37387415266E+01  0.94533911095E+01  0.23550982021E+02  0.25651384877E+02  0.51100000000E-03 0.  1.
         12    1    3    3    0    0  0.86730283155E+01 -0.85617417556E+01 -0.29265609049E+02  0.31701746246E+02  0.00000000000E+00 0. -1.
</event>
<event>
 7    1  0.3162486E-013  0.7246152E+02  0.7816164E-02  0.1226708E+00
        -11   -1    0    0    0    0  0.00000000000E+00  0.00000000000E+00  0.45593999997E+02  0.45594000000E+02  0.51100000000E-03 0.  1.
         11   -1    0    0    0    0 -0.00000000000E+00 -0.00000000000E+00 -0.45593999997E+02  0.45594000000E+02  0.51100000000E-03 0. -1.
    9900012    2    1    2    0    0  0.15027182733E+02 -0.46321126444E+01  0.10168995508E+02  0.72461517200E+02  0.69999930835E+02 0.  0.
         12    1    1    2    0    0 -0.15027182733E+02  0.46321126444E+01 -0.10168995508E+02  0.18726482800E+02  0.00000000000E+00 0. -1.
         11    1    3    3    0    0 -0.38415173602E+01 -0.13108311508E+02  0.14967327931E+02  0.20263415109E+02  0.51100000000E-03 0. -1.
        -11    1    3    3    0    0 -0.69859263648E+01 -0.10413014650E+02  0.10829267793E+02  0.16568255264E+02  0.51100000000E-03 0.  1.
         12    1    3    3    0    0  0.25854626458E+02  0.18889213513E+02 -0.15627600217E+02  0.35629846828E+02  0.00000000000E+00 0. -1.
</event>
<event>
 7    1  0.3162486E-013  0.7246157E+02  0.7816164E-02  0.1226708E+00
        -11   -1    0    0    0    0  0.00000000000E+00  0.00000000000E+00  0.45593999997E+02  0.45594000000E+02  0.51100000000E-03 0. -1.
         11   -1    0    0    0    0 -0.00000000000E+00 -0.00000000000E+00 -0.45593999997E+02  0.45594000000E+02  0.51100000000E-03 0.  1.
    9900012    2    1    2    0    0  0.40433411418E+01 -0.12389854560E+02 -0.13447006658E+02  0.72461572373E+02  0.70000002708E+02 0.  0.
         12    1    1    2    0    0 -0.40433411418E+01  0.12389854560E+02  0.13447006658E+02  0.18726427627E+02  0.00000000000E+00 0. -1.
         11    1    3    3    0    0 -0.14162866853E+01  0.11862022382E+02  0.83430282642E+01  0.14571189513E+02  0.51100000000E-03 0.  1.
        -11    1    3    3    0    0 -0.65986463099E+01  0.10988291785E+02  0.29807273380E+01  0.13159385442E+02  0.51100000000E-03 0. -1.
        -12    1    3    3    0    0  0.12058274137E+02 -0.35240168727E+02 -0.24770762260E+02  0.44730997418E+02  0.00000000000E+00 0.  1.
</event>
<event>
 7    1  0.3162486E-013  0.7246159E+02  0.7816164E-02  0.1226708E+00
        -11   -1    0    0    0    0  0.00000000000E+00  0.00000000000E+00  0.45593999997E+02  0.45594000000E+02  0.51100000000E-03 0. -1.
         11   -1    0    0    0    0 -0.00000000000E+00 -0.00000000000E+00 -0.45593999997E+02  0.45594000000E+02  0.51100000000E-03 0.  1.
    9900012    2    1    2    0    0  0.17623444709E+02  0.15028221476E+01  0.61509357511E+01  0.72461593820E+02  0.70000030647E+02 0.  0.
         12    1    1    2    0    0 -0.17623444709E+02 -0.15028221476E+01 -0.61509357511E+01  0.18726406180E+02  0.00000000000E+00 0. -1.
         11    1    3    3    0    0  0.30392883923E+02  0.19837916969E+02  0.94022174296E+01  0.37492293017E+02  0.51100000000E-03 0. -1.
        -11    1    3    3    0    0  0.75692680815E+01 -0.73891246643E+01 -0.52059529328E+01  0.11789611054E+02  0.51100000000E-03 0.  1.
        -12    1    3    3    0    0 -0.20338707296E+02 -0.10945970157E+02  0.19546712543E+01  0.23179689749E+02  0.00000000000E+00 0.  1.
</event>
<event>
 7    1  0.3162486E-013  0.7246158E+02  0.7816164E-02  0.1226708E+00
        -11   -1    0    0    0    0  0.00000000000E+00  0.00000000000E+00  0.45593999997E+02  0.45594000000E+02  0.51100000000E-03 0. -1.
         11   -1    0    0    0    0 -0.00000000000E+00 -0.00000000000E+00 -0.45593999997E+02  0.45594000000E+02  0.51100000000E-03 0.  1.
    9900012    2    1    2    0    0 -0.11026108584E+02  0.75655175672E+01 -0.13109797803E+02  0.72461576823E+02  0.70000008505E+02 0.  0.
         12    1    1    2    0    0  0.11026108584E+02 -0.75655175672E+01  0.13109797803E+02  0.18726423177E+02  0.00000000000E+00 0. -1.
         11    1    3    3    0    0  0.98182857521E+01 -0.10617391922E+02 -0.55899291762E+01  0.15504033501E+02  0.51100000000E-03 0. -1.
        -11    1    3    3    0    0 -0.24083332556E+01 -0.10742854416E+02  0.12961877132E+02  0.17006447280E+02  0.51100000000E-03 0.  1.
        -12    1    3    3    0    0 -0.18436061080E+02  0.28925763905E+02 -0.20481745758E+02  0.39951096042E+02  0.00000000000E+00 0.  1.
</event>
<event>
 7    1  0.3162486E-013  0.7246155E+02  0.7816164E-02  0.1226708E+00
        -11   -1    0    0    0    0  0.00000000000E+00  0.00000000000E+00  0.45593999997E+02  0.45594000000E+02  0.51100000000E-03 0.  1.
         11   -1    0    0    0    0 -0.00000000000E+00 -0.00000000000E+00 -0.45593999997E+02  0.45594000000E+02  0.51100000000E-03 0. -1.
    9900012    2    1    2    0    0 -0.84783921082E+01 -0.80364065299E+00  0.16677863684E+02  0.72461545234E+02  0.69999967354E+02 0.  0.
         12    1    1    2    0    0  0.84783921082E+01  0.80364065299E+00 -0.16677863684E+02  0.18726454766E+02  0.00000000000E+00 0. -1.
         11    1    3    3    0    0 -0.82121573904E+01  0.11202082716E+02 -0.13031151725E+02  0.19045658343E+02  0.51100000000E-03 0. -1.
        -11    1    3    3    0    0 -0.77755525456E+01 -0.16600229226E+02 -0.38418435385E+01  0.18729297632E+02  0.51100000000E-03 0.  1.
        -12    1    3    3    0    0  0.75093178278E+01  0.45945058569E+01  0.33550858948E+02  0.34686589259E+02  0.00000000000E+00 0.  1.
</event>
<event>
 7    1  0.3162486E-013  0.7246154E+02  0.7816164E-02  0.1226708E+00
        -11   -1    0    0    0    0  0.00000000000E+00  0.00000000000E+00  0.45593999997E+02  0.45594000000E+02  0.51100000000E-03 0. -1.
         11   -1    0    0    0    0 -0.00000000000E+00 -0.00000000000E+00 -0.45593999997E+02  0.45594000000E+02  0.51100000000E-03 0.  1.
    9900012    2    1    2    0    0  0.13367438058E+02 -0.51254803190E+01 -0.12071510658E+02  0.72461539622E+02  0.69999960044E+02 0.  0.
         12    1    1    2    0    0 -0.13367438058E+02  0.51254803190E+01  0.12071510658E+02  0.18726460378E+02  0.00000000000E+00 0. -1.
         11    1    3    3    0    0  0.74231627589E+01 -0.22985440176E+02 -0.37553293411E+01  0.24444555716E+02  0.51100000000E-03 0. -1.
        -11    1    3    3    0    0 -0.10805375252E+02 -0.97760322587E+01 -0.55150258738E+01  0.15580194213E+02  0.51100000000E-03 0.  1.
         12    1    3    3    0    0  0.16749650551E+02  0.27635992116E+02 -0.28011554427E+01  0.32436789693E+02  0.00000000000E+00 0. -1.
</event>
<event>
 7    1  0.3162486E-013  0.7246159E+02  0.7816164E-02  0.1226708E+00
        -11   -1    0    0    0    0  0.00000000000E+00  0.00000000000E+00  0.45593999997E+02  0.45594000000E+02  0.51100000000E-03 0.  1.
         11   -1    0    0    0    0 -0.00000000000E+00 -0.00000000000E+00 -0.45593999997E+02  0.45594000000E+02  0.51100000000E-03 0. -1.
    9900012    2    1    2    0    0 -0.70816766394E+01 -0.12423575491E+02  0.12090623611E+02  0.72461586801E+02  0.70000021503E+02 0.  0.
         12    1    1    2    0    0  0.70816766394E+01  0.12423575491E+02 -0.12090623611E+02  0.18726413199E+02  0.00000000000E+00 0. -1.
         11    1    3    3    0    0 -0.33509113673E+01 -0.20462264480E+02 -0.18220848706E+02  0.27603119434E+02  0.51100000000E-03 0. -1.
        -11    1    3    3    0    0 -0.14872293406E+02 -0.57717755196E+00  0.46620783269E+01  0.15596577178E+02  0.51100000000E-03 0.  1.
         12    1    3    3    0    0  0.11141528134E+02  0.86158665412E+01  0.25649393990E+02  0.29261890190E+02  0.00000000000E+00 0. -1.
</event>
<event>
 7    1  0.3162486E-013  0.7246156E+02  0.7816164E-02  0.1226708E+00
        -11   -1    0    0    0    0  0.00000000000E+00  0.00000000000E+00  0.45593999997E+02  0.45594000000E+02  0.51100000000E-03 0.  1.
         11   -1    0    0    0    0 -0.00000000000E+00 -0.00000000000E+00 -0.45593999997E+02  0.45594000000E+02  0.51100000000E-03 0. -1.
    9900012    2    1    2    0    0 -0.20254752568E+01  0.12812243465E+02  0.13506422397E+02  0.72461559372E+02  0.69999985771E+02 0.  0.
         12    1    1    2    0    0  0.20254752568E+01 -0.12812243465E+02 -0.13506422397E+02  0.18726440628E+02  0.00000000000E+00 0. -1.
         11    1    3    3    0    0  0.89454193687E+01 -0.13974322421E+02  0.10656684633E+02  0.19719714563E+02  0.51100000000E-03 0. -1.
        -11    1    3    3    0    0 -0.16090150054E+02  0.13189603741E+02  0.20954198925E+02  0.29528579859E+02  0.51100000000E-03 0.  1.
         12    1    3    3    0    0  0.51192554288E+01  0.13596962145E+02 -0.18104461161E+02  0.23213264950E+02  0.00000000000E+00 0. -1.
</event>
<event>
 7    1  0.3162486E-013  0.7246156E+02  0.7816164E-02  0.1226708E+00
        -11   -1    0    0    0    0  0.00000000000E+00  0.00000000000E+00  0.45593999997E+02  0.45594000000E+02  0.51100000000E-03 0.  1.
         11   -1    0    0    0    0 -0.00000000000E+00 -0.00000000000E+00 -0.45593999997E+02  0.45594000000E+02  0.51100000000E-03 0. -1.
    9900012    2    1    2    0    0  0.16912674864E+02 -0.74750557494E-01  0.80396107791E+01  0.72461561465E+02  0.69999988499E+02 0.  0.
         12    1    1    2    0    0 -0.16912674864E+02  0.74750557494E-01 -0.80396107791E+01  0.18726438535E+02  0.00000000000E+00 0. -1.
         11    1    3    3    0    0  0.95866281599E+01 -0.55466343184E+01 -0.22227902999E+02  0.24834416920E+02  0.51100000000E-03 0.  1.
        -11    1    3    3    0    0  0.51246743357E+01  0.10125599772E+01 -0.77168273203E+01  0.93186366442E+01  0.51100000000E-03 0. -1.
        -12    1    3    3    0    0  0.22013723687E+01  0.44593237836E+01  0.37984341099E+02  0.38308507901E+02  0.00000000000E+00 0.  1.
</event>
<event>
 7    1  0.3162486E-013  0.7246155E+02  0.7816164E-02  0.1226708E+00
        -11   -1    0    0    0    0  0.00000000000E+00  0.00000000000E+00  0.45593999997E+02  0.45594000000E+02  0.51100000000E-03 0.  1.
         11   -1    0    0    0    0 -0.00000000000E+00 -0.00000000000E+00 -0.45593999997E+02  0.45594000000E+02  0.51100000000E-03 0. -1.
    9900012    2    1    2    0    0  0.89201836642E+01  0.16242120331E+02 -0.27025657910E+01  0.72461547818E+02  0.69999970721E+02 0.  0.
         12    1    1    2    0    0 -0.89201836642E+01 -0.16242120331E+02  0.27025657910E+01  0.18726452182E+02  0.00000000000E+00 0. -1.
         11    1    3    3    0    0 -0.18638074006E+02  0.24931090477E+01 -0.35027664408E+01  0.19127539527E+02  0.51100000000E-03 0. -1.
        -11    1    3    3    0    0 -0.11380400903E+02  0.57530847064E+01 -0.38285994422E+01  0.13314266119E+02  0.51100000000E-03 0.  1.
         12    1    3    3    0    0  0.38938658572E+02  0.79959265770E+01  0.46288000920E+01  0.40019742172E+02  0.00000000000E+00 0. -1.
</event>
<event>
 7    1  0.3162486E-013  0.7246159E+02  0.7816164E-02  0.1226708E+00
        -11   -1    0    0    0    0  0.00000000000E+00  0.00000000000E+00  0.45593999997E+02  0.45594000000E+02  0.51100000000E-03 0.  1.
         11   -1    0    0    0    0 -0.00000000000E+00 -0.00000000000E+00 -0.45593999997E+02  0.45594000000E+02  0.51100000000E-03 0. -1.
    9900012    2    1    2    0    0 -0.10693684486E+02 -0.98683358623E+01  0.11787253210E+02  0.72461594076E+02  0.70000030980E+02 0.  0.
         12    1    1    2    0    0  0.10693684486E+02  0.98683358623E+01 -0.11787253210E+02  0.18726405924E+02  0.00000000000E+00 0. -1.
         11    1    3    3    0    0 -0.72833714993E+01 -0.55808872174E+01  0.11291375027E+02  0.14549534453E+02  0.51100000000E-03 0.  1.
        -11    1    3    3    0    0 -0.28544632742E+02  0.78189111444E+01 -0.32070634870E+01  0.29769391770E+02  0.51100000000E-03 0. -1.
         12    1    3    3    0    0  0.25134319755E+02 -0.12106359789E+02  0.37029416704E+01  0.28142667854E+02  0.00000000000E+00 0. -1.
</event>
<event>
 7    1  0.3162486E-013  0.7246151E+02  0.7816164E-02  0.1226708E+00
        -11   -1    0    0    0    0  0.00000000000E+00  0.00000000000E+00  0.45593999997E+02  0.45594000000E+02  0.51100000000E-03 0.  1.
         11   -1    0    0    0    0 -0.00000000000E+00 -0.00000000000E+00 -0.45593999997E+02  0.45594000000E+02  0.51100000000E-03 0. -1.
    9900012    2    1    2    0    0 -0.16935755988E+02 -0.73704809417E+01  0.30883050328E+01  0.72461509454E+02  0.69999920744E+02 0.  0.
         12    1    1    2    0    0  0.16935755988E+02  0.73704809417E+01 -0.30883050328E+01  0.18726490546E+02  0.00000000000E+00 0. -1.
         11    1    3    3    0    0  0.14847870960E+02  0.11073528814E+00 -0.93087014002E+01  0.17524938127E+02  0.51100000000E-03 0. -1.
        -11    1    3    3    0    0 -0.80763195081E+01  0.10627663544E+02  0.20097506989E+02  0.24126416158E+02  0.51100000000E-03 0.  1.
         12    1    3    3    0    0 -0.23707307440E+02 -0.18108879774E+02 -0.77005005556E+01  0.30810155169E+02  0.00000000000E+00 0. -1.
</event>
<event>
 7    1  0.3162486E-013  0.7246158E+02  0.7816164E-02  0.1226708E+00
        -11   -1    0    0    0    0  0.00000000000E+00  0.00000000000E+00  0.45593999997E+02  0.45594000000E+02  0.51100000000E-03 0.  1.
         11   -1    0    0    0    0 -0.00000000000E+00 -0.00000000000E+00 -0.45593999997E+02  0.45594000000E+02  0.51100000000E-03 0. -1.
    9900012    2    1    2    0    0  0.76486705266E+01 -0.16647631803E+02 -0.38772244280E+01  0.72461583505E+02  0.70000017209E+02 0.  0.
         12    1    1    2    0    0 -0.76486705266E+01  0.16647631803E+02  0.38772244280E+01  0.18726416495E+02  0.00000000000E+00 0. -1.
         11    1    3    3    0    0  0.75574735566E+01 -0.15439260693E+02 -0.92522569371E+01  0.19521537746E+02  0.51100000000E-03 0. -1.
        -11    1    3    3    0    0  0.20829548086E+02 -0.84653872210E+01  0.16902002744E+02  0.28128465143E+02  0.51100000000E-03 0.  1.
        -12    1    3    3    0    0 -0.20738351116E+02  0.72570161104E+01 -0.11526970235E+02  0.24811580616E+02  0.00000000000E+00 0.  1.
</event>
<event>
 7    1  0.3162486E-013  0.7246157E+02  0.7816164E-02  0.1226708E+00
        -11   -1    0    0    0    0  0.00000000000E+00  0.00000000000E+00  0.45593999997E+02  0.45594000000E+02  0.51100000000E-03 0.  1.
         11   -1    0    0    0    0 -0.00000000000E+00 -0.00000000000E+00 -0.45593999997E+02  0.45594000000E+02  0.51100000000E-03 0. -1.
    9900012    2    1    2    0    0  0.18708734198E+02  0.56277645119E+00  0.58783596951E+00  0.72461574720E+02  0.70000005766E+02 0.  0.
         12    1    1    2    0    0 -0.18708734198E+02 -0.56277645119E+00 -0.58783596951E+00  0.18726425280E+02  0.00000000000E+00 0. -1.
         11    1    3    3    0    0  0.11549248888E+02  0.22582905494E+01 -0.29951696950E+02  0.32180571414E+02  0.51100000000E-03 0. -1.
        -11    1    3    3    0    0  0.24716703841E+01  0.11708784173E+02  0.12238334323E+02  0.17116705541E+02  0.51100000000E-03 0.  1.
        -12    1    3    3    0    0  0.46878149257E+01 -0.13404298271E+02  0.18301198596E+02  0.23164297766E+02  0.00000000000E+00 0.  1.
</event>
<event>
 7    1  0.3162486E-013  0.7246158E+02  0.7816164E-02  0.1226708E+00
        -11   -1    0    0    0    0  0.00000000000E+00  0.00000000000E+00  0.45593999997E+02  0.45594000000E+02  0.51100000000E-03 0.  1.
         11   -1    0    0    0    0 -0.00000000000E+00 -0.00000000000E+00 -0.45593999997E+02  0.45594000000E+02  0.51100000000E-03 0. -1.
    9900012    2    1    2    0    0  0.13862906832E+01  0.66017859895E+01  0.17469212126E+02  0.72461581431E+02  0.70000014507E+02 0.  0.
         12    1    1    2    0    0 -0.13862906832E+01 -0.66017859895E+01 -0.17469212126E+02  0.18726418569E+02  0.00000000000E+00 0. -1.
         11    1    3    3    0    0 -0.16447387649E+01 -0.14332957299E+02  0.29823948352E+01  0.14732057214E+02  0.51100000000E-03 0. -1.
        -11    1    3    3    0    0 -0.61386517104E+01  0.35376936404E+02  0.95652946574E+00  0.35918318767E+02  0.51100000000E-03 0.  1.
         12    1    3    3    0    0  0.91696811585E+01 -0.14442193116E+02  0.13530287826E+02  0.21811205450E+02  0.00000000000E+00 0. -1.
</event>
<event>
 7    1  0.3162486E-013  0.7246158E+02  0.7816164E-02  0.1226708E+00
        -11   -1    0    0    0    0  0.00000000000E+00  0.00000000000E+00  0.45593999997E+02  0.45594000000E+02  0.51100000000E-03 0. -1.
         11   -1    0    0    0    0 -0.00000000000E+00 -0.00000000000E+00 -0.45593999997E+02  0.45594000000E+02  0.51100000000E-03 0.  1.
    9900012    2    1    2    0    0 -0.15122541117E+02  0.10883923142E+02  0.18782560913E+01  0.72461578058E+02  0.70000010114E+02 0.  0.
         12    1    1    2    0    0  0.15122541117E+02 -0.10883923142E+02 -0.18782560913E+01  0.18726421942E+02  0.00000000000E+00 0. -1.
         11    1    3    3    0    0 -0.22093356402E+02  0.26971988770E+02  0.40655812600E+01  0.35101759594E+02  0.51100000000E-03 0. -1.
        -11    1    3    3    0    0 -0.75548132618E+01  0.23920025354E+01  0.84280836745E+01  0.11568468967E+02  0.51100000000E-03 0.  1.
        -12    1    3    3    0    0  0.14525628547E+02 -0.18480068163E+02 -0.10615408843E+02  0.25791349498E+02  0.00000000000E+00 0.  1.
</event>
<event>
 7    1  0.3162486E-013  0.7246159E+02  0.7816164E-02  0.1226708E+00
        -11   -1    0    0    0    0  0.00000000000E+00  0.00000000000E+00  0.45593999997E+02  0.45594000000E+02  0.51100000000E-03 0. -1.
         11   -1    0    0    0    0 -0.00000000000E+00 -0.00000000000E+00 -0.45593999997E+02  0.45594000000E+02  0.51100000000E-03 0.  1.
    9900012    2    1    2    0    0 -0.39673584612E+01  0.37851943675E+01 -0.17905609068E+02  0.72461589088E+02  0.70000024482E+02 0.  0.
         12    1    1    2    0    0  0.39673584612E+01 -0.37851943675E+01  0.17905609068E+02  0.18726410912E+02  0.00000000000E+00 0. -1.
         11    1    3    3    0    0  0.20508031235E+02  0.36191162302E+01  0.48637562344E+01  0.21385356494E+02  0.51100000000E-03 0. -1.
        -11    1    3    3    0    0 -0.38967423786E+01  0.18044221356E+02 -0.91882324631E+01  0.20620430198E+02  0.51100000000E-03 0.  1.
         12    1    3    3    0    0 -0.20578647317E+02 -0.17878143218E+02 -0.13581132839E+02  0.30455802395E+02  0.00000000000E+00 0. -1.
</event>
<event>
 7    1  0.3162486E-013  0.7246154E+02  0.7816164E-02  0.1226708E+00
        -11   -1    0    0    0    0  0.00000000000E+00  0.00000000000E+00  0.45593999997E+02  0.45594000000E+02  0.51100000000E-03 0. -1.
         11   -1    0    0    0    0 -0.00000000000E+00 -0.00000000000E+00 -0.45593999997E+02  0.45594000000E+02  0.51100000000E-03 0.  1.
    9900012    2    1    2    0    0  0.81623807919E+01 -0.98780675144E+01 -0.13655756396E+02  0.72461538488E+02  0.69999958567E+02 0.  0.
         12    1    1    2    0    0 -0.81623807919E+01  0.98780675144E+01  0.13655756396E+02  0.18726461512E+02  0.00000000000E+00 0. -1.
         11    1    3    3    0    0 -0.15475140488E+02  0.87316989446E+01 -0.94422833250E+01  0.20121611621E+02  0.51100000000E-03 0. -1.
        -11    1    3    3    0    0 -0.10122726492E+02 -0.62300944239E+01 -0.10471518895E+02  0.15840971447E+02  0.51100000000E-03 0.  1.
        -12    1    3    3    0    0  0.33760247771E+02 -0.12379672035E+02  0.62580458240E+01  0.36498955421E+02  0.00000000000E+00 0.  1.
</event>
<event>
 7    1  0.3162486E-013  0.7246158E+02  0.7816164E-02  0.1226708E+00
        -11   -1    0    0    0    0  0.00000000000E+00  0.00000000000E+00  0.45593999997E+02  0.45594000000E+02  0.51100000000E-03 0.  1.
         11   -1    0    0    0    0 -0.00000000000E+00 -0.00000000000E+00 -0.45593999997E+02  0.45594000000E+02  0.51100000000E-03 0. -1.
    9900012    2    1    2    0    0  0.53908975391E+01  0.67736115360E+01  0.16605274733E+02  0.72461581803E+02  0.70000014992E+02 0.  0.
         12    1    1    2    0    0 -0.53908975391E+01 -0.67736115360E+01 -0.16605274733E+02  0.18726418197E+02  0.00000000000E+00 0. -1.
         11    1    3    3    0    0  0.71434395695E+01  0.32491344791E+01  0.23893473745E+02  0.25149228449E+02  0.51100000000E-03 0.  1.
        -11    1    3    3    0    0 -0.69573822290E+01 -0.12119684632E+02  0.14401762331E+02  0.20067453290E+02  0.51100000000E-03 0. -1.
         12    1    3    3    0    0  0.52048401986E+01  0.15644161688E+02 -0.21689961343E+02  0.27244900064E+02  0.00000000000E+00 0. -1.
</event>
<event>
 7    1  0.3162486E-013  0.7246160E+02  0.7816164E-02  0.1226708E+00
        -11   -1    0    0    0    0  0.00000000000E+00  0.00000000000E+00  0.45593999997E+02  0.45594000000E+02  0.51100000000E-03 0.  1.
         11   -1    0    0    0    0 -0.00000000000E+00 -0.00000000000E+00 -0.45593999997E+02  0.45594000000E+02  0.51100000000E-03 0. -1.
    9900012    2    1    2    0    0  0.84690728563E+01 -0.12915192573E+02  0.10590124630E+02  0.72461597945E+02  0.70000036020E+02 0.  0.
         12    1    1    2    0    0 -0.84690728563E+01  0.12915192573E+02 -0.10590124630E+02  0.18726402055E+02  0.00000000000E+00 0. -1.
         11    1    3    3    0    0  0.19596301850E+00  0.18936528737E+00 -0.11667877627E+02  0.11671059476E+02  0.51100000000E-03 0. -1.
        -11    1    3    3    0    0  0.29202713122E+02  0.40731961324E+01  0.11108226431E+02  0.31508444505E+02  0.51100000000E-03 0.  1.
        -12    1    3    3    0    0 -0.20929603285E+02 -0.17177753993E+02  0.11149775827E+02  0.29282093963E+02  0.00000000000E+00 0.  1.
</event>
<event>
 7    1  0.3162486E-013  0.7246174E+02  0.7816164E-02  0.1226708E+00
        -11   -1    0    0    0    0  0.00000000000E+00  0.00000000000E+00  0.45593999997E+02  0.45594000000E+02  0.51100000000E-03 0.  1.
         11   -1    0    0    0    0 -0.00000000000E+00 -0.00000000000E+00 -0.45593999997E+02  0.45594000000E+02  0.51100000000E-03 0. -1.
    9900012    2    1    2    0    0 -0.10957907140E+02  0.15098344697E+02  0.16238964576E+01  0.72461740865E+02  0.70000222200E+02 0.  0.
         12    1    1    2    0    0  0.10957907140E+02 -0.15098344697E+02 -0.16238964576E+01  0.18726259135E+02  0.00000000000E+00 0. -1.
         11    1    3    3    0    0  0.21352360530E+02 -0.33756872688E+01 -0.49304902550E+01  0.22172692646E+02  0.51100000000E-03 0. -1.
        -11    1    3    3    0    0 -0.42745795351E+01  0.19352296925E+01 -0.11955819666E+02  0.12843627537E+02  0.51100000000E-03 0.  1.
        -12    1    3    3    0    0 -0.28035688135E+02  0.16538802274E+02  0.18510206379E+02  0.37445420682E+02  0.00000000000E+00 0.  1.
</event>
<event>
 7    1  0.3162486E-013  0.7246156E+02  0.7816164E-02  0.1226708E+00
        -11   -1    0    0    0    0  0.00000000000E+00  0.00000000000E+00  0.45593999997E+02  0.45594000000E+02  0.51100000000E-03 0.  1.
         11   -1    0    0    0    0 -0.00000000000E+00 -0.00000000000E+00 -0.45593999997E+02  0.45594000000E+02  0.51100000000E-03 0. -1.
    9900012    2    1    2    0    0  0.60179770767E+01  0.74032020580E+01  0.16113853548E+02  0.72461555464E+02  0.69999980681E+02 0.  0.
         12    1    1    2    0    0 -0.60179770767E+01 -0.74032020580E+01 -0.16113853548E+02  0.18726444536E+02  0.00000000000E+00 0. -1.
         11    1    3    3    0    0  0.16152389081E+02 -0.21817933374E+02  0.15666095767E+01  0.27191472111E+02  0.51100000000E-03 0. -1.
        -11    1    3    3    0    0 -0.45391689887E+01 -0.21822393406E+01  0.12302187395E+02  0.13293232812E+02  0.51100000000E-03 0.  1.
         12    1    3    3    0    0 -0.55952430157E+01  0.31403374772E+02  0.22450565764E+01  0.31976850541E+02  0.00000000000E+00 0. -1.
</event>
<event>
 7    1  0.3162486E-013  0.7246160E+02  0.7816164E-02  0.1226708E+00
        -11   -1    0    0    0    0  0.00000000000E+00  0.00000000000E+00  0.45593999997E+02  0.45594000000E+02  0.51100000000E-03 0.  1.
         11   -1    0    0    0    0 -0.00000000000E+00 -0.00000000000E+00 -0.45593999997E+02  0.45594000000E+02  0.51100000000E-03 0. -1.
    9900012    2    1    2    0    0  0.60289781090E+01 -0.10323341586E+02  0.14413810150E+02  0.72461604682E+02  0.70000044797E+02 0.  0.
         12    1    1    2    0    0 -0.60289781090E+01  0.10323341586E+02 -0.14413810150E+02  0.18726395318E+02  0.00000000000E+00 0. -1.
         11    1    3    3    0    0  0.62954915943E+01 -0.11488939074E+01 -0.56774074634E+01  0.85548890928E+01  0.51100000000E-03 0. -1.
        -11    1    3    3    0    0  0.21475595433E+02 -0.21641176795E+01 -0.11860627923E+02  0.24628420565E+02  0.51100000000E-03 0.  1.
        -12    1    3    3    0    0 -0.21742108918E+02 -0.70103299996E+01  0.31951845536E+02  0.39278295025E+02  0.00000000000E+00 0.  1.
</event>
<event>
 7    1  0.3162486E-013  0.7246149E+02  0.7816164E-02  0.1226708E+00
        -11   -1    0    0    0    0  0.00000000000E+00  0.00000000000E+00  0.45593999997E+02  0.45594000000E+02  0.51100000000E-03 0. -1.
         11   -1    0    0    0    0 -0.00000000000E+00 -0.00000000000E+00 -0.45593999997E+02  0.45594000000E+02  0.51100000000E-03 0.  1.
    9900012    2    1    2    0    0 -0.15253744365E+02 -0.10586762295E+02  0.24343184368E+01  0.72461490467E+02  0.69999896010E+02 0.  0.
         12    1    1    2    0    0  0.15253744365E+02  0.10586762295E+02 -0.24343184368E+01  0.18726509533E+02  0.00000000000E+00 0. -1.
         11    1    3    3    0    0 -0.89847550639E+01 -0.14087303069E+02 -0.16011207876E+02  0.23141666086E+02  0.51100000000E-03 0. -1.
        -11    1    3    3    0    0 -0.25784064651E+02  0.31339791013E+01  0.79769465012E+01  0.27171151810E+02  0.51100000000E-03 0.  1.
         12    1    3    3    0    0  0.19515075350E+02  0.36656167299E+00  0.10468579812E+02  0.22148672571E+02  0.00000000000E+00 0. -1.
</event>
<event>
 7    1  0.3162486E-013  0.7246130E+02  0.7816164E-02  0.1226709E+00
        -11   -1    0    0    0    0  0.00000000000E+00  0.00000000000E+00  0.45593999997E+02  0.45594000000E+02  0.51100000000E-03 0.  1.
         11   -1    0    0    0    0 -0.00000000000E+00 -0.00000000000E+00 -0.45593999997E+02  0.45594000000E+02  0.51100000000E-03 0. -1.
    9900012    2    1    2    0    0 -0.15787912267E+01 -0.87451921635E+01  0.16483883085E+02  0.72461297960E+02  0.69999645234E+02 0.  0.
         12    1    1    2    0    0  0.15787912267E+01  0.87451921635E+01 -0.16483883085E+02  0.18726702040E+02  0.00000000000E+00 0. -1.
         11    1    3    3    0    0  0.75629799108E+01  0.13975169014E+02  0.21392463626E+02  0.26648480526E+02  0.51100000000E-03 0. -1.
        -11    1    3    3    0    0 -0.77775793770E+01 -0.10324934306E+02  0.16546349197E+02  0.20997063637E+02  0.51100000000E-03 0.  1.
        -12    1    3    3    0    0 -0.13641917606E+01 -0.12395426871E+02 -0.21454929737E+02  0.24815753797E+02  0.00000000000E+00 0.  1.
</event>
<event>
 7    1  0.3162486E-013  0.7246162E+02  0.7816164E-02  0.1226708E+00
        -11   -1    0    0    0    0  0.00000000000E+00  0.00000000000E+00  0.45593999997E+02  0.45594000000E+02  0.51100000000E-03 0.  1.
         11   -1    0    0    0    0 -0.00000000000E+00 -0.00000000000E+00 -0.45593999997E+02  0.45594000000E+02  0.51100000000E-03 0. -1.
    9900012    2    1    2    0    0 -0.43068035274E+01 -0.15043910097E+02  0.10286381086E+02  0.72461616914E+02  0.70000060731E+02 0.  0.
         12    1    1    2    0    0  0.43068035274E+01  0.15043910097E+02 -0.10286381086E+02  0.18726383086E+02  0.00000000000E+00 0. -1.
         11    1    3    3    0    0 -0.83361604726E+01 -0.17068514252E+02  0.21096454435E+02  0.28388133792E+02  0.51100000000E-03 0. -1.
        -11    1    3    3    0    0 -0.13918067031E+02 -0.12382915586E+02  0.39805196987E-01  0.18629298779E+02  0.51100000000E-03 0.  1.
         12    1    3    3    0    0  0.17947423976E+02  0.14407519741E+02 -0.10849878546E+02  0.25444184343E+02  0.00000000000E+00 0. -1.
</event>
<event>
 7    1  0.3162486E-013  0.7246156E+02  0.7816164E-02  0.1226708E+00
        -11   -1    0    0    0    0  0.00000000000E+00  0.00000000000E+00  0.45593999997E+02  0.45594000000E+02  0.51100000000E-03 0.  1.
         11   -1    0    0    0    0 -0.00000000000E+00 -0.00000000000E+00 -0.45593999997E+02  0.45594000000E+02  0.51100000000E-03 0. -1.
    9900012    2    1    2    0    0  0.53435475007E+01  0.13752849081E+02 -0.11531919298E+02  0.72461560925E+02  0.69999987795E+02 0.  0.
         12    1    1    2    0    0 -0.53435475007E+01 -0.13752849081E+02  0.11531919298E+02  0.18726439075E+02  0.00000000000E+00 0. -1.
         11    1    3    3    0    0  0.78574342580E+01  0.78990443861E+01  0.70202264116E+01  0.13168817504E+02  0.51100000000E-03 0. -1.
        -11    1    3    3    0    0 -0.35079359977E+01 -0.24529671976E+02 -0.24723025795E+01  0.24902263000E+02  0.51100000000E-03 0.  1.
         12    1    3    3    0    0  0.99404924041E+00  0.30383476671E+02 -0.16079843130E+02  0.34390480421E+02  0.00000000000E+00 0. -1.
</event>
<event>
 7    1  0.3162486E-013  0.7246161E+02  0.7816164E-02  0.1226708E+00
        -11   -1    0    0    0    0  0.00000000000E+00  0.00000000000E+00  0.45593999997E+02  0.45594000000E+02  0.51100000000E-03 0.  1.
         11   -1    0    0    0    0 -0.00000000000E+00 -0.00000000000E+00 -0.45593999997E+02  0.45594000000E+02  0.51100000000E-03 0. -1.
    9900012    2    1    2    0    0 -0.89997844743E+01 -0.13260702872E+02 -0.96868594244E+01  0.72461612020E+02  0.70000054356E+02 0.  0.
         12    1    1    2    0    0  0.89997844743E+01  0.13260702872E+02  0.96868594244E+01  0.18726387980E+02  0.00000000000E+00 0. -1.
         11    1    3    3    0    0  0.11240815021E+02 -0.11853999189E+02 -0.10050063604E+02  0.19180119859E+02  0.51100000000E-03 0. -1.
        -11    1    3    3    0    0  0.56578840788E+01 -0.11398337910E+02 -0.16473064580E+02  0.20815754041E+02  0.51100000000E-03 0.  1.
        -12    1    3    3    0    0 -0.25898483574E+02  0.99916342261E+01  0.16836268760E+02  0.32465738121E+02  0.00000000000E+00 0.  1.
</event>
<event>
 7    1  0.3162486E-013  0.7246157E+02  0.7816164E-02  0.1226708E+00
        -11   -1    0    0    0    0  0.00000000000E+00  0.00000000000E+00  0.45593999997E+02  0.45594000000E+02  0.51100000000E-03 0.  1.
         11   -1    0    0    0    0 -0.00000000000E+00 -0.00000000000E+00 -0.45593999997E+02  0.45594000000E+02  0.51100000000E-03 0. -1.
    9900012    2    1    2    0    0 -0.16260872701E+02 -0.79636532078E+01  0.47794619848E+01  0.72461574546E+02  0.70000005538E+02 0.  0.
         12    1    1    2    0    0  0.16260872701E+02  0.79636532078E+01 -0.47794619848E+01  0.18726425454E+02  0.00000000000E+00 0. -1.
         11    1    3    3    0    0 -0.41375452847E+01  0.94310506957E+01 -0.51663627801E+00  0.10311688102E+02  0.51100000000E-03 0. -1.
        -11    1    3    3    0    0  0.13576132527E+02 -0.67967853749E+01 -0.19627378373E+02  0.24814142094E+02  0.51100000000E-03 0.  1.
         12    1    3    3    0    0 -0.25699459943E+02 -0.10597918529E+02  0.24923476636E+02  0.37335744350E+02  0.00000000000E+00 0. -1.
</event>
<event>
 7    1  0.3162486E-013  0.7246154E+02  0.7816164E-02  0.1226708E+00
        -11   -1    0    0    0    0  0.00000000000E+00  0.00000000000E+00  0.45593999997E+02  0.45594000000E+02  0.51100000000E-03 0.  1.
         11   -1    0    0    0    0 -0.00000000000E+00 -0.00000000000E+00 -0.45593999997E+02  0.45594000000E+02  0.51100000000E-03 0. -1.
    9900012    2    1    2    0    0 -0.14761957093E+02 -0.60801531618E+01  0.97875855184E+01  0.72461535572E+02  0.69999954768E+02 0.  0.
         12    1    1    2    0    0  0.14761957093E+02  0.60801531618E+01 -0.97875855184E+01  0.18726464428E+02  0.00000000000E+00 0. -1.
         11    1    3    3    0    0 -0.12093320446E+02  0.10523273291E+02 -0.63771173945E+01  0.17252689839E+02  0.51100000000E-03 0. -1.
        -11    1    3    3    0    0 -0.19366725330E+02 -0.26235311991E+02  0.51689045681E+01  0.33016347768E+02  0.51100000000E-03 0.  1.
         12    1    3    3    0    0  0.16698088683E+02  0.96318855382E+01  0.10995798345E+02  0.22192497965E+02  0.00000000000E+00 0. -1.
</event>
<event>
 7    1  0.3162486E-013  0.7246196E+02  0.7816164E-02  0.1226707E+00
        -11   -1    0    0    0    0  0.00000000000E+00  0.00000000000E+00  0.45593999997E+02  0.45594000000E+02  0.51100000000E-03 0. -1.
         11   -1    0    0    0    0 -0.00000000000E+00 -0.00000000000E+00 -0.45593999997E+02  0.45594000000E+02  0.51100000000E-03 0.  1.
    9900012    2    1    2    0    0 -0.14179169083E+02 -0.66774217718E+01 -0.10248314655E+02  0.72461955285E+02  0.70000501520E+02 0.  0.
         12    1    1    2    0    0  0.14179169083E+02  0.66774217718E+01  0.10248314655E+02  0.18726044715E+02  0.00000000000E+00 0. -1.
         11    1    3    3    0    0 -0.23626202082E+02  0.13264177475E+02  0.40327203165E+01  0.27393405453E+02  0.51100000000E-03 0.  1.
        -11    1    3    3    0    0  0.88967108037E+01 -0.41536613135E+01  0.11320538877E+02  0.14985291660E+02  0.51100000000E-03 0. -1.
        -12    1    3    3    0    0  0.55032219572E+00 -0.15787937933E+02 -0.25601573849E+02  0.30083258172E+02  0.00000000000E+00 0.  1.
</event>
<event>
 7    1  0.3162486E-013  0.7246146E+02  0.7816164E-02  0.1226708E+00
        -11   -1    0    0    0    0  0.00000000000E+00  0.00000000000E+00  0.45593999997E+02  0.45594000000E+02  0.51100000000E-03 0. -1.
         11   -1    0    0    0    0 -0.00000000000E+00 -0.00000000000E+00 -0.45593999997E+02  0.45594000000E+02  0.51100000000E-03 0.  1.
    9900012    2    1    2    0    0 -0.12334308631E+02 -0.81172100517E+01 -0.11517772337E+02  0.72461458728E+02  0.69999854664E+02 0.  0.
         12    1    1    2    0    0  0.12334308631E+02  0.81172100517E+01  0.11517772337E+02  0.18726541272E+02  0.00000000000E+00 0. -1.
         11    1    3    3    0    0 -0.27467165951E+02 -0.29084175784E+02 -0.62914372872E+01  0.40495884603E+02  0.51100000000E-03 0. -1.
        -11    1    3    3    0    0  0.91367204978E+01  0.60191086014E+01 -0.10353664774E+02  0.15063455923E+02  0.51100000000E-03 0.  1.
        -12    1    3    3    0    0  0.59961368226E+01  0.14947857131E+02  0.51273297250E+01  0.16902118202E+02  0.00000000000E+00 0.  1.
</event>
<event>
 7    1  0.3162486E-013  0.7246156E+02  0.7816164E-02  0.1226708E+00
        -11   -1    0    0    0    0  0.00000000000E+00  0.00000000000E+00  0.45593999997E+02  0.45594000000E+02  0.51100000000E-03 0.  1.
         11   -1    0    0    0    0 -0.00000000000E+00 -0.00000000000E+00 -0.45593999997E+02  0.45594000000E+02  0.51100000000E-03 0. -1.
    9900012    2    1    2    0    0  0.14249169165E+02 -0.70567451348E+01  0.98915700676E+01  0.72461557941E+02  0.69999983907E+02 0.  0.
         12    1    1    2    0    0 -0.14249169165E+02  0.70567451348E+01 -0.98915700676E+01  0.18726442059E+02  0.00000000000E+00 0. -1.
         11    1    3    3    0    0  0.17140820544E+02  0.96308060168E+01 -0.94764615448E+01  0.21825752613E+02  0.51100000000E-03 0. -1.
        -11    1    3    3    0    0  0.57296085425E+01  0.11349270715E+02 -0.37868288330E+01  0.13265535522E+02  0.51100000000E-03 0.  1.
        -12    1    3    3    0    0 -0.86212599215E+01 -0.28036821867E+02  0.23154860445E+02  0.37370269805E+02  0.00000000000E+00 0.  1.
</event>
<event>
 7    1  0.3162486E-013  0.7246160E+02  0.7816164E-02  0.1226708E+00
        -11   -1    0    0    0    0  0.00000000000E+00  0.00000000000E+00  0.45593999997E+02  0.45594000000E+02  0.51100000000E-03 0.  1.
         11   -1    0    0    0    0 -0.00000000000E+00 -0.00000000000E+00 -0.45593999997E+02  0.45594000000E+02  0.51100000000E-03 0. -1.
    9900012    2    1    2    0    0 -0.11509467155E+02 -0.12205919062E+02  0.83201995727E+01  0.72461601113E+02  0.70000040147E+02 0.  0.
         12    1    1    2    0    0  0.11509467155E+02  0.12205919062E+02 -0.83201995727E+01  0.18726398887E+02  0.00000000000E+00 0. -1.
         11    1    3    3    0    0 -0.30334833586E+01 -0.19980572651E+01  0.20353031056E+01  0.41637378777E+01  0.51100000000E-03 0. -1.
        -11    1    3    3    0    0 -0.77318443448E+01  0.28378299897E+02  0.24589355437E+01  0.29515346623E+02  0.51100000000E-03 0.  1.
         12    1    3    3    0    0 -0.74413945179E+00 -0.38586161694E+02  0.38259609234E+01  0.38782516612E+02  0.00000000000E+00 0. -1.
</event>
<event>
 7    1  0.3162486E-013  0.7246151E+02  0.7816164E-02  0.1226708E+00
        -11   -1    0    0    0    0  0.00000000000E+00  0.00000000000E+00  0.45593999997E+02  0.45594000000E+02  0.51100000000E-03 0.  1.
         11   -1    0    0    0    0 -0.00000000000E+00 -0.00000000000E+00 -0.45593999997E+02  0.45594000000E+02  0.51100000000E-03 0. -1.
    9900012    2    1    2    0    0 -0.17066141764E+02  0.59218692141E+01  0.49355413176E+01  0.72461513469E+02  0.69999925974E+02 0.  0.
         12    1    1    2    0    0  0.17066141764E+02 -0.59218692141E+01 -0.49355413176E+01  0.18726486531E+02  0.00000000000E+00 0. -1.
         11    1    3    3    0    0 -0.18155587549E+02  0.16193895236E+02  0.16661424712E+02  0.29486788157E+02  0.51100000000E-03 0. -1.
        -11    1    3    3    0    0 -0.27944548551E+01 -0.78065137841E+01  0.14308320880E+02  0.16537190876E+02  0.51100000000E-03 0.  1.
         12    1    3    3    0    0  0.38839006393E+01 -0.24655122376E+01 -0.26034204275E+02  0.26437534435E+02  0.00000000000E+00 0. -1.
</event>
<event>
 7    1  0.3162486E-013  0.7246158E+02  0.7816164E-02  0.1226708E+00
        -11   -1    0    0    0    0  0.00000000000E+00  0.00000000000E+00  0.45593999997E+02  0.45594000000E+02  0.51100000000E-03 0.  1.
         11   -1    0    0    0    0 -0.00000000000E+00 -0.00000000000E+00 -0.45593999997E+02  0.45594000000E+02  0.51100000000E-03 0. -1.
    9900012    2    1    2    0    0  0.13331903974E+02 -0.39812547380E+01  0.12533508598E+02  0.72461577741E+02  0.70000009700E+02 0.  0.
         12    1    1    2    0    0 -0.13331903974E+02  0.39812547380E+01 -0.12533508598E+02  0.18726422259E+02  0.00000000000E+00 0. -1.
         11    1    3    3    0    0 -0.11027673005E+02 -0.87664272322E+01  0.12150351087E+02  0.18603517144E+02  0.51100000000E-03 0. -1.
        -11    1    3    3    0    0  0.19943075764E+02  0.20612939491E+02  0.14550930522E+02  0.32161298554E+02  0.51100000000E-03 0.  1.
         12    1    3    3    0    0  0.44165012146E+01 -0.15827766997E+02 -0.14167773011E+02  0.21696762043E+02  0.00000000000E+00 0. -1.
</event>
<event>
 7    1  0.3162486E-013  0.7246171E+02  0.7816164E-02  0.1226708E+00
        -11   -1    0    0    0    0  0.00000000000E+00  0.00000000000E+00  0.45593999997E+02  0.45594000000E+02  0.51100000000E-03 0.  1.
         11   -1    0    0    0    0 -0.00000000000E+00 -0.00000000000E+00 -0.45593999997E+02  0.45594000000E+02  0.51100000000E-03 0. -1.
    9900012    2    1    2    0    0  0.17850162684E+02  0.54857919596E+01  0.13971025122E+01  0.72461705207E+02  0.70000175748E+02 0.  0.
         12    1    1    2    0    0 -0.17850162684E+02 -0.54857919596E+01 -0.13971025122E+01  0.18726294793E+02  0.00000000000E+00 0. -1.
         11    1    3    3    0    0 -0.76782513865E+01 -0.87897182750E+01  0.22340508584E+01  0.11882999420E+02  0.51100000000E-03 0. -1.
        -11    1    3    3    0    0 -0.98665915964E+01 -0.12685180250E+02 -0.67528586767E+00  0.16084757971E+02  0.51100000000E-03 0.  1.
         12    1    3    3    0    0  0.35395005667E+02  0.26960690485E+02 -0.16166247858E+00  0.44493947817E+02  0.00000000000E+00 0. -1.
</event>
<event>
 7    1  0.3162486E-013  0.7246201E+02  0.7816164E-02  0.1226707E+00
        -11   -1    0    0    0    0  0.00000000000E+00  0.00000000000E+00  0.45593999997E+02  0.45594000000E+02  0.51100000000E-03 0. -1.
         11   -1    0    0    0    0 -0.00000000000E+00 -0.00000000000E+00 -0.45593999997E+02  0.45594000000E+02  0.51100000000E-03 0.  1.
    9900012    2    1    2    0    0  0.65349382581E+01 -0.17448833226E+02 -0.18696501447E+01  0.72462007619E+02  0.70000569695E+02 0.  0.
         12    1    1    2    0    0 -0.65349382581E+01  0.17448833226E+02  0.18696501447E+01  0.18725992381E+02  0.00000000000E+00 0. -1.
         11    1    3    3    0    0 -0.45548488417E+01  0.63621955828E+01  0.12788113611E+02  0.14991998886E+02  0.51100000000E-03 0. -1.
        -11    1    3    3    0    0 -0.76509901534E+01 -0.65741955675E+01  0.15191741957E+02  0.18235863611E+02  0.51100000000E-03 0.  1.
        -12    1    3    3    0    0  0.18740777253E+02 -0.17236833241E+02 -0.29849505712E+02  0.39234145123E+02  0.00000000000E+00 0.  1.
</event>
<event>
 7    1  0.3162486E-013  0.7246156E+02  0.7816164E-02  0.1226708E+00
        -11   -1    0    0    0    0  0.00000000000E+00  0.00000000000E+00  0.45593999997E+02  0.45594000000E+02  0.51100000000E-03 0. -1.
         11   -1    0    0    0    0 -0.00000000000E+00 -0.00000000000E+00 -0.45593999997E+02  0.45594000000E+02  0.51100000000E-03 0.  1.
    9900012    2    1    2    0    0 -0.16790603865E+02  0.50056259402E+00  0.82767487963E+01  0.72461561158E+02  0.69999988098E+02 0.  0.
         12    1    1    2    0    0  0.16790603865E+02 -0.50056259402E+00 -0.82767487963E+01  0.18726438842E+02  0.00000000000E+00 0. -1.
         11    1    3    3    0    0 -0.25273297309E+02  0.11695938665E+02  0.12043370749E+02  0.30341017079E+02  0.51100000000E-03 0.  1.
        -11    1    3    3    0    0  0.78832908110E+01  0.12422055072E+02  0.68389422712E+01  0.16224205924E+02  0.51100000000E-03 0. -1.
        -12    1    3    3    0    0  0.59940263274E+00 -0.23617431143E+02 -0.10605564224E+02  0.25896338155E+02  0.00000000000E+00 0.  1.
</event>
<event>
 7    1  0.3162486E-013  0.7246157E+02  0.7816164E-02  0.1226708E+00
        -11   -1    0    0    0    0  0.00000000000E+00  0.00000000000E+00  0.45593999997E+02  0.45594000000E+02  0.51100000000E-03 0. -1.
         11   -1    0    0    0    0 -0.00000000000E+00 -0.00000000000E+00 -0.45593999997E+02  0.45594000000E+02  0.51100000000E-03 0.  1.
    9900012    2    1    2    0    0  0.13060129394E+02  0.12470316245E+02 -0.49601888623E+01  0.72461568397E+02  0.69999997528E+02 0.  0.
         12    1    1    2    0    0 -0.13060129394E+02 -0.12470316245E+02  0.49601888623E+01  0.18726431603E+02  0.00000000000E+00 0. -1.
         11    1    3    3    0    0  0.30182347158E+02  0.41999417994E+01  0.13773543945E+02  0.33441353204E+02  0.51100000000E-03 0. -1.
        -11    1    3    3    0    0  0.33255868170E+01  0.99349761401E+01  0.10379125433E+01  0.10528083458E+02  0.51100000000E-03 0.  1.
        -12    1    3    3    0    0 -0.20447804581E+02 -0.16646016949E+01 -0.19771645350E+02  0.28492131735E+02  0.00000000000E+00 0.  1.
</event>
<event>
 7    1  0.3162486E-013  0.7246163E+02  0.7816164E-02  0.1226708E+00
        -11   -1    0    0    0    0  0.00000000000E+00  0.00000000000E+00  0.45593999997E+02  0.45594000000E+02  0.51100000000E-03 0.  1.
         11   -1    0    0    0    0 -0.00000000000E+00 -0.00000000000E+00 -0.45593999997E+02  0.45594000000E+02  0.51100000000E-03 0. -1.
    9900012    2    1    2    0    0 -0.14223216154E+01 -0.68710713676E+01  0.17362090807E+02  0.72461633088E+02  0.70000081801E+02 0.  0.
         12    1    1    2    0    0  0.14223216154E+01  0.68710713676E+01 -0.17362090807E+02  0.18726366912E+02  0.00000000000E+00 0. -1.
         11    1    3    3    0    0 -0.13059227401E+02  0.13953665286E+02 -0.12492425847E+02  0.22832189975E+02  0.51100000000E-03 0. -1.
        -11    1    3    3    0    0  0.13093088524E+02  0.48254305278E+01  0.10409084102E+02  0.17408698371E+02  0.51100000000E-03 0.  1.
         12    1    3    3    0    0 -0.14561827381E+01 -0.25650167181E+02  0.19445432552E+02  0.32220744742E+02  0.00000000000E+00 0. -1.
</event>
<event>
 7    1  0.3162486E-013  0.7246152E+02  0.7816164E-02  0.1226708E+00
        -11   -1    0    0    0    0  0.00000000000E+00  0.00000000000E+00  0.45593999997E+02  0.45594000000E+02  0.51100000000E-03 0.  1.
         11   -1    0    0    0    0 -0.00000000000E+00 -0.00000000000E+00 -0.45593999997E+02  0.45594000000E+02  0.51100000000E-03 0. -1.
    9900012    2    1    2    0    0 -0.20059655094E+01 -0.18618439169E+02 -0.10359470261E+00  0.72461523915E+02  0.69999939582E+02 0.  0.
         12    1    1    2    0    0  0.20059655094E+01  0.18618439169E+02  0.10359470261E+00  0.18726476085E+02  0.00000000000E+00 0. -1.
         11    1    3    3    0    0 -0.14787929738E+02 -0.14737929027E+01  0.76882786605E+01  0.16732141539E+02  0.51100000000E-03 0. -1.
        -11    1    3    3    0    0 -0.43270415658E+01  0.11464145196E+02  0.11843612026E+02  0.17041744625E+02  0.51100000000E-03 0.  1.
         12    1    3    3    0    0  0.17109005795E+02 -0.28608791462E+02 -0.19635485389E+02  0.38687637750E+02  0.00000000000E+00 0. -1.
</event>
<event>
 7    1  0.3162486E-013  0.7246145E+02  0.7816164E-02  0.1226708E+00
        -11   -1    0    0    0    0  0.00000000000E+00  0.00000000000E+00  0.45593999997E+02  0.45594000000E+02  0.51100000000E-03 0. -1.
         11   -1    0    0    0    0 -0.00000000000E+00 -0.00000000000E+00 -0.45593999997E+02  0.45594000000E+02  0.51100000000E-03 0.  1.
    9900012    2    1    2    0    0 -0.12952419414E+02 -0.94957801041E+01 -0.96306034148E+01  0.72461453853E+02  0.69999848313E+02 0.  0.
         12    1    1    2    0    0  0.12952419414E+02  0.94957801041E+01  0.96306034148E+01  0.18726546147E+02  0.00000000000E+00 0. -1.
         11    1    3    3    0    0 -0.20903028447E+01 -0.61279489693E+01  0.86168927550E+01  0.10778309959E+02  0.51100000000E-03 0. -1.
        -11    1    3    3    0    0 -0.99072743155E+01 -0.18374238179E+02 -0.34005723226E+02  0.39901828597E+02  0.51100000000E-03 0.  1.
         12    1    3    3    0    0 -0.95484225391E+00  0.15006407044E+02  0.15758227056E+02  0.21781315297E+02  0.00000000000E+00 0. -1.
</event>
<event>
 7    1  0.3162486E-013  0.7246156E+02  0.7816164E-02  0.1226708E+00
        -11   -1    0    0    0    0  0.00000000000E+00  0.00000000000E+00  0.45593999997E+02  0.45594000000E+02  0.51100000000E-03 0.  1.
         11   -1    0    0    0    0 -0.00000000000E+00 -0.00000000000E+00 -0.45593999997E+02  0.45594000000E+02  0.51100000000E-03 0. -1.
    9900012    2    1    2    0    0  0.54987342819E+01 -0.15767724313E+02  0.84748020780E+01  0.72461562032E+02  0.69999989237E+02 0.  0.
         12    1    1    2    0    0 -0.54987342819E+01  0.15767724313E+02 -0.84748020780E+01  0.18726437968E+02  0.00000000000E+00 0. -1.
         11    1    3    3    0    0 -0.14611887245E+02 -0.10025959495E+02  0.10519374470E+02  0.20607871122E+02  0.51100000000E-03 0. -1.
        -11    1    3    3    0    0  0.20206989182E+02 -0.60290961017E+01  0.20439589916E+02  0.29367486235E+02  0.51100000000E-03 0.  1.
         12    1    3    3    0    0 -0.96367654772E-01  0.28733128383E+00 -0.22484162308E+02  0.22486204675E+02  0.00000000000E+00 0. -1.
</event>
<event>
 7    1  0.3162486E-013  0.7246155E+02  0.7816164E-02  0.1226708E+00
        -11   -1    0    0    0    0  0.00000000000E+00  0.00000000000E+00  0.45593999997E+02  0.45594000000E+02  0.51100000000E-03 0.  1.
         11   -1    0    0    0    0 -0.00000000000E+00 -0.00000000000E+00 -0.45593999997E+02  0.45594000000E+02  0.51100000000E-03 0. -1.
    9900012    2    1    2    0    0 -0.15923621969E+02 -0.85393837375E+01  0.49190728268E+01  0.72461545752E+02  0.69999968029E+02 0.  0.
         12    1    1    2    0    0  0.15923621969E+02  0.85393837375E+01 -0.49190728268E+01  0.18726454248E+02  0.00000000000E+00 0. -1.
         11    1    3    3    0    0 -0.53862470722E+01  0.92339452114E+01 -0.16760118159E+01  0.10820647742E+02  0.51100000000E-03 0. -1.
        -11    1    3    3    0    0 -0.16689005297E+02  0.12520025339E+02 -0.13427856035E+02  0.24810909903E+02  0.51100000000E-03 0.  1.
        -12    1    3    3    0    0  0.61516303997E+01 -0.30293354288E+02  0.20022940677E+02  0.36829988107E+02  0.00000000000E+00 0.  1.
</event>
<event>
 7    1  0.3162486E-013  0.7246149E+02  0.7816164E-02  0.1226708E+00
        -11   -1    0    0    0    0  0.00000000000E+00  0.00000000000E+00  0.45593999997E+02  0.45594000000E+02  0.51100000000E-03 0.  1.
         11   -1    0    0    0    0 -0.00000000000E+00 -0.00000000000E+00 -0.45593999997E+02  0.45594000000E+02  0.51100000000E-03 0. -1.
    9900012    2    1    2    0    0 -0.57902952626E+01  0.17053884352E+02  0.51302854521E+01  0.72461486188E+02  0.69999890436E+02 0.  0.
         12    1    1    2    0    0  0.57902952626E+01 -0.17053884352E+02 -0.51302854521E+01  0.18726513812E+02  0.00000000000E+00 0. -1.
         11    1    3    3    0    0 -0.46598284826E+01 -0.50324449446E-01 -0.22232705205E+02  0.22715847222E+02  0.51100000000E-03 0. -1.
        -11    1    3    3    0    0 -0.15660211585E+02  0.24156571838E+01  0.49608027693E+00  0.15853192815E+02  0.51100000000E-03 0.  1.
        -12    1    3    3    0    0  0.14529744805E+02  0.14688551618E+02  0.26866910380E+02  0.33892446151E+02  0.00000000000E+00 0.  1.
</event>
<event>
 7    1  0.3162486E-013  0.7246154E+02  0.7816164E-02  0.1226708E+00
        -11   -1    0    0    0    0  0.00000000000E+00  0.00000000000E+00  0.45593999997E+02  0.45594000000E+02  0.51100000000E-03 0. -1.
         11   -1    0    0    0    0 -0.00000000000E+00 -0.00000000000E+00 -0.45593999997E+02  0.45594000000E+02  0.51100000000E-03 0.  1.
    9900012    2    1    2    0    0  0.11938928566E+02 -0.14066363907E+02 -0.32061879482E+01  0.72461541444E+02  0.69999962418E+02 0.  0.
         12    1    1    2    0    0 -0.11938928566E+02  0.14066363907E+02  0.32061879482E+01  0.18726458556E+02  0.00000000000E+00 0. -1.
         11    1    3    3    0    0  0.17466732660E+02 -0.29481806031E+00 -0.20084549474E+01  0.17584298651E+02  0.51100000000E-03 0. -1.
        -11    1    3    3    0    0 -0.14331924594E+02  0.10086902700E+02 -0.17421809371E+02  0.24711720108E+02  0.51100000000E-03 0.  1.
         12    1    3    3    0    0  0.88041205001E+01 -0.23858448547E+02  0.16224076371E+02  0.30165522686E+02  0.00000000000E+00 0. -1.
</event>
<event>
 7    1  0.3162486E-013  0.7246161E+02  0.7816164E-02  0.1226708E+00
        -11   -1    0    0    0    0  0.00000000000E+00  0.00000000000E+00  0.45593999997E+02  0.45594000000E+02  0.51100000000E-03 0.  1.
         11   -1    0    0    0    0 -0.00000000000E+00 -0.00000000000E+00 -0.45593999997E+02  0.45594000000E+02  0.51100000000E-03 0. -1.
    9900012    2    1    2    0    0 -0.97738864211E+01 -0.12128193255E+02  0.10394994571E+02  0.72461605805E+02  0.70000046259E+02 0.  0.
         12    1    1    2    0    0  0.97738864211E+01  0.12128193255E+02 -0.10394994571E+02  0.18726394195E+02  0.00000000000E+00 0. -1.
         11    1    3    3    0    0  0.82636005283E+01  0.16281451384E+02  0.12894373018E+02  0.22352574990E+02  0.51100000000E-03 0. -1.
        -11    1    3    3    0    0 -0.18025951823E+02 -0.54062049605E+01  0.12550074952E+02  0.22620043607E+02  0.51100000000E-03 0.  1.
        -12    1    3    3    0    0 -0.11535126158E-01 -0.23003439679E+02 -0.15049453400E+02  0.27488987209E+02  0.00000000000E+00 0.  1.
</event>
<event>
 7    1  0.3162486E-013  0.7246155E+02  0.7816164E-02  0.1226708E+00
        -11   -1    0    0    0    0  0.00000000000E+00  0.00000000000E+00  0.45593999997E+02  0.45594000000E+02  0.51100000000E-03 0. -1.
         11   -1    0    0    0    0 -0.00000000000E+00 -0.00000000000E+00 -0.45593999997E+02  0.45594000000E+02  0.51100000000E-03 0.  1.
    9900012    2    1    2    0    0 -0.11924292320E+02 -0.63255851646E+01 -0.12979919256E+02  0.72461546014E+02  0.69999968370E+02 0.  0.
         12    1    1    2    0    0  0.11924292320E+02  0.63255851646E+01  0.12979919256E+02  0.18726453986E+02  0.00000000000E+00 0. -1.
         11    1    3    3    0    0 -0.46473483772E+01  0.69838768655E+01 -0.18012695670E+02  0.19870319287E+02  0.51100000000E-03 0. -1.
        -11    1    3    3    0    0 -0.24278535852E+02  0.71449211708E+01  0.58719685442E+01  0.25980323641E+02  0.51100000000E-03 0.  1.
        -12    1    3    3    0    0  0.17001591909E+02 -0.20454383201E+02 -0.83919212980E+00  0.26610903085E+02  0.00000000000E+00 0.  1.
</event>
<event>
 7    1  0.3162486E-013  0.7246157E+02  0.7816164E-02  0.1226708E+00
        -11   -1    0    0    0    0  0.00000000000E+00  0.00000000000E+00  0.45593999997E+02  0.45594000000E+02  0.51100000000E-03 0.  1.
         11   -1    0    0    0    0 -0.00000000000E+00 -0.00000000000E+00 -0.45593999997E+02  0.45594000000E+02  0.51100000000E-03 0. -1.
    9900012    2    1    2    0    0  0.16902418502E+02  0.12456622006E+01  0.79646607275E+01  0.72461568251E+02  0.69999997338E+02 0.  0.
         12    1    1    2    0    0 -0.16902418502E+02 -0.12456622006E+01 -0.79646607275E+01  0.18726431749E+02  0.00000000000E+00 0. -1.
         11    1    3    3    0    0 -0.97416197498E+01  0.99794655706E+01 -0.15771497183E+02  0.21053004823E+02  0.51100000000E-03 0. -1.
        -11    1    3    3    0    0  0.12056174711E+01  0.98923880319E+01  0.16154825636E+02  0.18981339417E+02  0.51100000000E-03 0.  1.
         12    1    3    3    0    0  0.25438420781E+02 -0.18626191402E+02  0.75813322744E+01  0.32427224011E+02  0.00000000000E+00 0. -1.
</event>
<event>
 7    1  0.3162486E-013  0.7246162E+02  0.7816164E-02  0.1226708E+00
        -11   -1    0    0    0    0  0.00000000000E+00  0.00000000000E+00  0.45593999997E+02  0.45594000000E+02  0.51100000000E-03 0.  1.
         11   -1    0    0    0    0 -0.00000000000E+00 -0.00000000000E+00 -0.45593999997E+02  0.45594000000E+02  0.51100000000E-03 0. -1.
    9900012    2    1    2    0    0  0.13711540556E+02  0.12754175692E+02 -0.45465233363E-01  0.72461617299E+02  0.70000061232E+02 0.  0.
         12    1    1    2    0    0 -0.13711540556E+02 -0.12754175692E+02  0.45465233363E-01  0.18726382701E+02  0.00000000000E+00 0. -1.
         11    1    3    3    0    0 -0.20511478974E+01 -0.16665287152E+01 -0.17377066964E+01  0.31629338405E+01  0.51100000000E-03 0. -1.
        -11    1    3    3    0    0  0.24599856868E+02 -0.86548558820E+01 -0.22702725081E+02  0.34575615897E+02  0.51100000000E-03 0.  1.
         12    1    3    3    0    0 -0.88371684155E+01  0.23075560289E+02  0.24394966544E+02  0.34723067562E+02  0.00000000000E+00 0. -1.
</event>
<event>
 7    1  0.3162486E-013  0.7246159E+02  0.7816164E-02  0.1226708E+00
        -11   -1    0    0    0    0  0.00000000000E+00  0.00000000000E+00  0.45593999997E+02  0.45594000000E+02  0.51100000000E-03 0. -1.
         11   -1    0    0    0    0 -0.00000000000E+00 -0.00000000000E+00 -0.45593999997E+02  0.45594000000E+02  0.51100000000E-03 0.  1.
    9900012    2    1    2    0    0  0.12374928617E+02  0.11626168065E+02 -0.78975923211E+01  0.72461585324E+02  0.70000019579E+02 0.  0.
         12    1    1    2    0    0 -0.12374928617E+02 -0.11626168065E+02  0.78975923211E+01  0.18726414676E+02  0.00000000000E+00 0. -1.
         11    1    3    3    0    0  0.24564559260E+01  0.13373483683E+02  0.97629920571E+01  0.16739183245E+02  0.51100000000E-03 0.  1.
        -11    1    3    3    0    0 -0.96383395068E+01  0.20603746120E+02 -0.42696262084E+01  0.23143933349E+02  0.51100000000E-03 0. -1.
         12    1    3    3    0    0  0.19556812197E+02 -0.22351061738E+02 -0.13390958170E+02  0.32578468731E+02  0.00000000000E+00 0. -1.
</event>
<event>
 7    1  0.3162486E-013  0.7246153E+02  0.7816164E-02  0.1226708E+00
        -11   -1    0    0    0    0  0.00000000000E+00  0.00000000000E+00  0.45593999997E+02  0.45594000000E+02  0.51100000000E-03 0.  1.
         11   -1    0    0    0    0 -0.00000000000E+00 -0.00000000000E+00 -0.45593999997E+02  0.45594000000E+02  0.51100000000E-03 0. -1.
    9900012    2    1    2    0    0  0.47227121510E+01  0.16231584333E+02  0.80568229351E+01  0.72461528474E+02  0.69999945521E+02 0.  0.
         12    1    1    2    0    0 -0.47227121510E+01 -0.16231584333E+02 -0.80568229351E+01  0.18726471526E+02  0.00000000000E+00 0. -1.
         11    1    3    3    0    0 -0.10814935545E+02 -0.28803681422E+00  0.17709556986E+01  0.10962758795E+02  0.51100000000E-03 0. -1.
        -11    1    3    3    0    0  0.48842345798E+01 -0.16741784509E+02  0.17608788585E+02  0.24783311556E+02  0.51100000000E-03 0.  1.
         12    1    3    3    0    0  0.10653413117E+02  0.33261405657E+02 -0.11322921348E+02  0.36715458122E+02  0.00000000000E+00 0. -1.
</event>
<event>
 7    1  0.3162486E-013  0.7246160E+02  0.7816164E-02  0.1226708E+00
        -11   -1    0    0    0    0  0.00000000000E+00  0.00000000000E+00  0.45593999997E+02  0.45594000000E+02  0.51100000000E-03 0.  1.
         11   -1    0    0    0    0 -0.00000000000E+00 -0.00000000000E+00 -0.45593999997E+02  0.45594000000E+02  0.51100000000E-03 0. -1.
    9900012    2    1    2    0    0 -0.51167920423E+01  0.16757416097E+02  0.66095124406E+01  0.72461595920E+02  0.70000033382E+02 0.  0.
         12    1    1    2    0    0  0.51167920423E+01 -0.16757416097E+02 -0.66095124406E+01  0.18726404080E+02  0.00000000000E+00 0. -1.
         11    1    3    3    0    0 -0.84397327541E+01  0.38912110049E+01  0.42200138755E+01  0.10206817791E+02  0.51100000000E-03 0. -1.
        -11    1    3    3    0    0  0.95940372003E+01 -0.19405249752E+02  0.15747685288E+02  0.26769364204E+02  0.51100000000E-03 0.  1.
         12    1    3    3    0    0 -0.62710964885E+01  0.32271454844E+02 -0.13358186723E+02  0.35485413925E+02  0.00000000000E+00 0. -1.
</event>
<event>
 7    1  0.3162486E-013  0.7246158E+02  0.7816164E-02  0.1226708E+00
        -11   -1    0    0    0    0  0.00000000000E+00  0.00000000000E+00  0.45593999997E+02  0.45594000000E+02  0.51100000000E-03 0.  1.
         11   -1    0    0    0    0 -0.00000000000E+00 -0.00000000000E+00 -0.45593999997E+02  0.45594000000E+02  0.51100000000E-03 0. -1.
    9900012    2    1    2    0    0 -0.65091608762E+01  0.35179633510E+01  0.17202717144E+02  0.72461582335E+02  0.70000015685E+02 0.  0.
         12    1    1    2    0    0  0.65091608762E+01 -0.35179633510E+01 -0.17202717144E+02  0.18726417665E+02  0.00000000000E+00 0. -1.
         11    1    3    3    0    0  0.86805988816E+01 -0.12043682183E+01  0.70539465330E+01  0.11249953853E+02  0.51100000000E-03 0. -1.
        -11    1    3    3    0    0 -0.22411388151E+02 -0.15224494814E+01  0.30997450104E+02  0.38280936306E+02  0.51100000000E-03 0.  1.
         12    1    3    3    0    0  0.72216283931E+01  0.62447810506E+01 -0.20848679493E+02  0.22930692175E+02  0.00000000000E+00 0. -1.
</event>
<event>
 7    1  0.3162486E-013  0.7246140E+02  0.7816164E-02  0.1226708E+00
        -11   -1    0    0    0    0  0.00000000000E+00  0.00000000000E+00  0.45593999997E+02  0.45594000000E+02  0.51100000000E-03 0.  1.
         11   -1    0    0    0    0 -0.00000000000E+00 -0.00000000000E+00 -0.45593999997E+02  0.45594000000E+02  0.51100000000E-03 0. -1.
    9900012    2    1    2    0    0  0.13087440126E+02  0.12523705132E+02  0.47498750753E+01  0.72461398800E+02  0.69999776596E+02 0.  0.
         12    1    1    2    0    0 -0.13087440126E+02 -0.12523705132E+02 -0.47498750753E+01  0.18726601200E+02  0.00000000000E+00 0. -1.
         11    1    3    3    0    0 -0.24072428478E+02  0.31083824122E+00  0.44548201993E+01  0.24483134124E+02  0.51100000000E-03 0. -1.
        -11    1    3    3    0    0  0.24861198599E+01 -0.73796062010E+01  0.22449332576E+01  0.81042646324E+01  0.51100000000E-03 0.  1.
        -12    1    3    3    0    0  0.34673748744E+02  0.19592473092E+02 -0.19498783816E+01  0.39874000044E+02  0.00000000000E+00 0.  1.
</event>
<event>
 7    1  0.3162486E-013  0.7246158E+02  0.7816164E-02  0.1226708E+00
        -11   -1    0    0    0    0  0.00000000000E+00  0.00000000000E+00  0.45593999997E+02  0.45594000000E+02  0.51100000000E-03 0. -1.
         11   -1    0    0    0    0 -0.00000000000E+00 -0.00000000000E+00 -0.45593999997E+02  0.45594000000E+02  0.51100000000E-03 0.  1.
    9900012    2    1    2    0    0  0.67952060976E+01 -0.27444094060E+01 -0.17232886238E+02  0.72461575435E+02  0.70000006697E+02 0.  0.
         12    1    1    2    0    0 -0.67952060976E+01  0.27444094060E+01  0.17232886238E+02  0.18726424565E+02  0.00000000000E+00 0. -1.
         11    1    3    3    0    0  0.49464983831E+01  0.71544501964E+01  0.46276323883E+01  0.98523593951E+01  0.51100000000E-03 0. -1.
        -11    1    3    3    0    0  0.20606737836E+02  0.16392832376E+02 -0.86736584779E+01  0.27723545033E+02  0.51100000000E-03 0.  1.
         12    1    3    3    0    0 -0.18758030121E+02 -0.26291691978E+02 -0.13186860148E+02  0.34885671008E+02  0.00000000000E+00 0. -1.
</event>
<event>
 7    1  0.3162486E-013  0.7246158E+02  0.7816164E-02  0.1226708E+00
        -11   -1    0    0    0    0  0.00000000000E+00  0.00000000000E+00  0.45593999997E+02  0.45594000000E+02  0.51100000000E-03 0.  1.
         11   -1    0    0    0    0 -0.00000000000E+00 -0.00000000000E+00 -0.45593999997E+02  0.45594000000E+02  0.51100000000E-03 0. -1.
    9900012    2    1    2    0    0  0.16993644365E+01 -0.13297618518E+02  0.13075327561E+02  0.72461583136E+02  0.70000016729E+02 0.  0.
         12    1    1    2    0    0 -0.16993644365E+01  0.13297618518E+02 -0.13075327561E+02  0.18726416864E+02  0.00000000000E+00 0. -1.
         11    1    3    3    0    0 -0.18455088119E+02 -0.24291902319E+01  0.11089837424E+02  0.21667388791E+02  0.51100000000E-03 0. -1.
        -11    1    3    3    0    0 -0.90598289486E+01 -0.15805503514E+02  0.90398049438E+01  0.20337465811E+02  0.51100000000E-03 0.  1.
         12    1    3    3    0    0  0.29214281504E+02  0.49370752283E+01 -0.70543148069E+01  0.30456728535E+02  0.00000000000E+00 0. -1.
</event>
<event>
 7    1  0.3162486E-013  0.7246160E+02  0.7816164E-02  0.1226708E+00
        -11   -1    0    0    0    0  0.00000000000E+00  0.00000000000E+00  0.45593999997E+02  0.45594000000E+02  0.51100000000E-03 0.  1.
         11   -1    0    0    0    0 -0.00000000000E+00 -0.00000000000E+00 -0.45593999997E+02  0.45594000000E+02  0.51100000000E-03 0. -1.
    9900012    2    1    2    0    0  0.17459214709E+01  0.11257341866E+01  0.18610816254E+02  0.72461601497E+02  0.70000040648E+02 0.  0.
         12    1    1    2    0    0 -0.17459214709E+01 -0.11257341866E+01 -0.18610816254E+02  0.18726398503E+02  0.00000000000E+00 0. -1.
         11    1    3    3    0    0 -0.12629244955E+02 -0.14451042037E+01 -0.44887814985E+01  0.13480924074E+02  0.51100000000E-03 0. -1.
        -11    1    3    3    0    0 -0.19470671630E+02  0.40129872296E+01  0.46922910984E+01  0.20426177230E+02  0.51100000000E-03 0.  1.
         12    1    3    3    0    0  0.33845838055E+02 -0.14421488393E+01  0.18407306654E+02  0.38554500194E+02  0.00000000000E+00 0. -1.
</event>
<event>
 7    1  0.3162486E-013  0.7246156E+02  0.7816164E-02  0.1226708E+00
        -11   -1    0    0    0    0  0.00000000000E+00  0.00000000000E+00  0.45593999997E+02  0.45594000000E+02  0.51100000000E-03 0.  1.
         11   -1    0    0    0    0 -0.00000000000E+00 -0.00000000000E+00 -0.45593999997E+02  0.45594000000E+02  0.51100000000E-03 0. -1.
    9900012    2    1    2    0    0  0.12359344335E+02  0.13020818417E+02 -0.53277076086E+01  0.72461559521E+02  0.69999985966E+02 0.  0.
         12    1    1    2    0    0 -0.12359344335E+02 -0.13020818417E+02  0.53277076086E+01  0.18726440479E+02  0.00000000000E+00 0. -1.
         11    1    3    3    0    0 -0.35074543540E+01 -0.90361128852E+01  0.73273111229E+01  0.12150846089E+02  0.51100000000E-03 0. -1.
        -11    1    3    3    0    0 -0.90657368696E+01  0.30967247680E+02 -0.43320113633E+01  0.32556479179E+02  0.51100000000E-03 0.  1.
         12    1    3    3    0    0  0.24932535559E+02 -0.89103163775E+01 -0.83230073682E+01  0.27754234253E+02  0.00000000000E+00 0. -1.
</event>
<event>
 7    1  0.3162486E-013  0.7246160E+02  0.7816164E-02  0.1226708E+00
        -11   -1    0    0    0    0  0.00000000000E+00  0.00000000000E+00  0.45593999997E+02  0.45594000000E+02  0.51100000000E-03 0. -1.
         11   -1    0    0    0    0 -0.00000000000E+00 -0.00000000000E+00 -0.45593999997E+02  0.45594000000E+02  0.51100000000E-03 0.  1.
    9900012    2    1    2    0    0  0.10519848876E+02  0.79021733368E+01  0.13325411817E+02  0.72461597145E+02  0.70000034977E+02 0.  0.
         12    1    1    2    0    0 -0.10519848876E+02 -0.79021733368E+01 -0.13325411817E+02  0.18726402855E+02  0.00000000000E+00 0. -1.
         11    1    3    3    0    0  0.15159729501E+02 -0.60787555444E+01  0.92742809844E+01  0.18782464044E+02  0.51100000000E-03 0. -1.
        -11    1    3    3    0    0  0.15112923444E+02  0.15930059709E+02 -0.14659193178E+02  0.26401878763E+02  0.51100000000E-03 0.  1.
        -12    1    3    3    0    0 -0.19752804070E+02 -0.19491308274E+01  0.18710324010E+02  0.27277254337E+02  0.00000000000E+00 0.  1.
</event>
<event>
 7    1  0.3162486E-013  0.7246161E+02  0.7816164E-02  0.1226708E+00
        -11   -1    0    0    0    0  0.00000000000E+00  0.00000000000E+00  0.45593999997E+02  0.45594000000E+02  0.51100000000E-03 0.  1.
         11   -1    0    0    0    0 -0.00000000000E+00 -0.00000000000E+00 -0.45593999997E+02  0.45594000000E+02  0.51100000000E-03 0. -1.
    9900012    2    1    2    0    0  0.14639875934E+02 -0.37148313887E+01  0.11070314990E+02  0.72461606499E+02  0.70000047163E+02 0.  0.
         12    1    1    2    0    0 -0.14639875934E+02  0.37148313887E+01 -0.11070314990E+02  0.18726393501E+02  0.00000000000E+00 0. -1.
         11    1    3    3    0    0 -0.37430266307E+01 -0.27873026801E+02  0.54102184393E+01  0.28638895496E+02  0.51100000000E-03 0. -1.
        -11    1    3    3    0    0  0.23464635127E+02  0.57469766551E+01  0.10838119734E+01  0.24182462468E+02  0.51100000000E-03 0.  1.
        -12    1    3    3    0    0 -0.50817325631E+01  0.18411218757E+02  0.45762845771E+01  0.19640248535E+02  0.00000000000E+00 0.  1.
</event>
<event>
 7    1  0.3162486E-013  0.7246157E+02  0.7816164E-02  0.1226708E+00
        -11   -1    0    0    0    0  0.00000000000E+00  0.00000000000E+00  0.45593999997E+02  0.45594000000E+02  0.51100000000E-03 0.  1.
         11   -1    0    0    0    0 -0.00000000000E+00 -0.00000000000E+00 -0.45593999997E+02  0.45594000000E+02  0.51100000000E-03 0. -1.
    9900012    2    1    2    0    0  0.47161381576E+01  0.10206242090E+02  0.14975644556E+02  0.72461567703E+02  0.69999996624E+02 0.  0.
         12    1    1    2    0    0 -0.47161381576E+01 -0.10206242090E+02 -0.14975644556E+02  0.18726432297E+02  0.00000000000E+00 0. -1.
         11    1    3    3    0    0 -0.14677224792E+02 -0.81937715946E+01 -0.95644625747E+01  0.19340055976E+02  0.51100000000E-03 0. -1.
        -11    1    3    3    0    0  0.69013833290E+00  0.25110363618E+02  0.57412227122E+01  0.25767582161E+02  0.51100000000E-03 0.  1.
        -12    1    3    3    0    0  0.18703224617E+02 -0.67103499329E+01  0.18798884418E+02  0.27353929566E+02  0.00000000000E+00 0.  1.
</event>
<event>
 7    1  0.3162486E-013  0.7246162E+02  0.7816164E-02  0.1226708E+00
        -11   -1    0    0    0    0  0.00000000000E+00  0.00000000000E+00  0.45593999997E+02  0.45594000000E+02  0.51100000000E-03 0. -1.
         11   -1    0    0    0    0 -0.00000000000E+00 -0.00000000000E+00 -0.45593999997E+02  0.45594000000E+02  0.51100000000E-03 0.  1.
    9900012    2    1    2    0    0  0.15631336173E+02  0.51406062960E+01  0.89393966501E+01  0.72461619781E+02  0.70000064466E+02 0.  0.
         12    1    1    2    0    0 -0.15631336173E+02 -0.51406062960E+01 -0.89393966501E+01  0.18726380219E+02  0.00000000000E+00 0. -1.
         11    1    3    3    0    0 -0.21270332769E+02 -0.23253502699E+01  0.39175539867E+01  0.21752736368E+02  0.51100000000E-03 0. -1.
        -11    1    3    3    0    0  0.30115525502E+02 -0.33732056116E+01 -0.91160646057E+01  0.31645316028E+02  0.51100000000E-03 0.  1.
         12    1    3    3    0    0  0.67861434399E+01  0.10839162178E+02  0.14137907269E+02  0.19063567385E+02  0.00000000000E+00 0. -1.
</event>
<event>
 7    1  0.3162486E-013  0.7246170E+02  0.7816164E-02  0.1226708E+00
        -11   -1    0    0    0    0  0.00000000000E+00  0.00000000000E+00  0.45593999997E+02  0.45594000000E+02  0.51100000000E-03 0.  1.
         11   -1    0    0    0    0 -0.00000000000E+00 -0.00000000000E+00 -0.45593999997E+02  0.45594000000E+02  0.51100000000E-03 0. -1.
    9900012    2    1    2    0    0  0.11362064365E+02 -0.12462826799E+02  0.81397590478E+01  0.72461702026E+02  0.70000171605E+02 0.  0.
         12    1    1    2    0    0 -0.11362064365E+02  0.12462826799E+02 -0.81397590478E+01  0.18726297974E+02  0.00000000000E+00 0. -1.
         11    1    3    3    0    0  0.14940922610E+02  0.20991048581E+01 -0.19103827620E+02  0.24343246284E+02  0.51100000000E-03 0. -1.
        -11    1    3    3    0    0  0.80141961950E+01 -0.42560632750E+01 -0.63778006691E+01  0.11091337020E+02  0.51100000000E-03 0.  1.
        -12    1    3    3    0    0 -0.11593054440E+02 -0.10305868382E+02  0.33621387337E+02  0.37027118722E+02  0.00000000000E+00 0.  1.
</event>
<event>
 7    1  0.3162486E-013  0.7246156E+02  0.7816164E-02  0.1226708E+00
        -11   -1    0    0    0    0  0.00000000000E+00  0.00000000000E+00  0.45593999997E+02  0.45594000000E+02  0.51100000000E-03 0. -1.
         11   -1    0    0    0    0 -0.00000000000E+00 -0.00000000000E+00 -0.45593999997E+02  0.45594000000E+02  0.51100000000E-03 0.  1.
    9900012    2    1    2    0    0  0.65304002719E+01  0.17425258223E+02 -0.20961779199E+01  0.72461555764E+02  0.69999981072E+02 0.  0.
         12    1    1    2    0    0 -0.65304002719E+01 -0.17425258223E+02  0.20961779199E+01  0.18726444236E+02  0.00000000000E+00 0. -1.
         11    1    3    3    0    0  0.47902466981E+01 -0.35358285321E+01 -0.22149230193E+02  0.22935495313E+02  0.51100000000E-03 0. -1.
        -11    1    3    3    0    0 -0.51346109678E+01  0.11589749333E+02 -0.10738936270E+02  0.16613586965E+02  0.51100000000E-03 0.  1.
         12    1    3    3    0    0  0.68747645417E+01  0.93713374222E+01  0.30791988542E+02  0.32912473486E+02  0.00000000000E+00 0. -1.
</event>
<event>
 7    1  0.3162486E-013  0.7246157E+02  0.7816164E-02  0.1226708E+00
        -11   -1    0    0    0    0  0.00000000000E+00  0.00000000000E+00  0.45593999997E+02  0.45594000000E+02  0.51100000000E-03 0.  1.
         11   -1    0    0    0    0 -0.00000000000E+00 -0.00000000000E+00 -0.45593999997E+02  0.45594000000E+02  0.51100000000E-03 0. -1.
    9900012    2    1    2    0    0  0.96503279950E+01 -0.13003504434E+02  0.94052853388E+01  0.72461565468E+02  0.69999993713E+02 0.  0.
         12    1    1    2    0    0 -0.96503279950E+01  0.13003504434E+02 -0.94052853388E+01  0.18726434532E+02  0.00000000000E+00 0. -1.
         11    1    3    3    0    0 -0.58382388583E+01 -0.17404828225E+02  0.28899589915E+02  0.34237397331E+02  0.51100000000E-03 0.  1.
        -11    1    3    3    0    0  0.13294414317E+02 -0.10926953255E+02 -0.82269054390E+01  0.19074111587E+02  0.51100000000E-03 0. -1.
        -12    1    3    3    0    0  0.21941525360E+01  0.15328277046E+02 -0.11267399137E+02  0.19150056550E+02  0.00000000000E+00 0.  1.
</event>
<event>
 7    1  0.3162486E-013  0.7246160E+02  0.7816164E-02  0.1226708E+00
        -11   -1    0    0    0    0  0.00000000000E+00  0.00000000000E+00  0.45593999997E+02  0.45594000000E+02  0.51100000000E-03 0. -1.
         11   -1    0    0    0    0 -0.00000000000E+00 -0.00000000000E+00 -0.45593999997E+02  0.45594000000E+02  0.51100000000E-03 0.  1.
    9900012    2    1    2    0    0 -0.16682544081E+02 -0.12664064741E+01 -0.84123066427E+01  0.72461602445E+02  0.70000041882E+02 0.  0.
         12    1    1    2    0    0  0.16682544081E+02  0.12664064741E+01  0.84123066427E+01  0.18726397555E+02  0.00000000000E+00 0. -1.
         11    1    3    3    0    0 -0.11413352839E+01 -0.37296015863E+01  0.10972353978E+01  0.40517280267E+01  0.51100000000E-03 0. -1.
        -11    1    3    3    0    0  0.15514875562E+02  0.17643908704E+02  0.13296618697E+02  0.26996646960E+02  0.51100000000E-03 0.  1.
         12    1    3    3    0    0 -0.31056084359E+02 -0.15180713592E+02 -0.22806160737E+02  0.41413227457E+02  0.00000000000E+00 0. -1.
</event>
<event>
 7    1  0.3162486E-013  0.7246123E+02  0.7816164E-02  0.1226709E+00
        -11   -1    0    0    0    0  0.00000000000E+00  0.00000000000E+00  0.45593999997E+02  0.45594000000E+02  0.51100000000E-03 0. -1.
         11   -1    0    0    0    0 -0.00000000000E+00 -0.00000000000E+00 -0.45593999997E+02  0.45594000000E+02  0.51100000000E-03 0.  1.
    9900012    2    1    2    0    0 -0.11843195401E+02  0.13745054833E+02 -0.46372607221E+01  0.72461227809E+02  0.69999553848E+02 0.  0.
         12    1    1    2    0    0  0.11843195401E+02 -0.13745054833E+02  0.46372607221E+01  0.18726772191E+02  0.00000000000E+00 0. -1.
         11    1    3    3    0    0  0.11535695153E+02 -0.91577853455E-01  0.66703126301E+00  0.11555326916E+02  0.51100000000E-03 0. -1.
        -11    1    3    3    0    0  0.16744355924E+01  0.29447884158E+02  0.44232567227E+01  0.29825271436E+02  0.51100000000E-03 0.  1.
        -12    1    3    3    0    0 -0.25053326147E+02 -0.15611251472E+02 -0.97275487078E+01  0.31080629456E+02  0.00000000000E+00 0.  1.
</event>
<event>
 7    1  0.3162486E-013  0.7246173E+02  0.7816164E-02  0.1226708E+00
        -11   -1    0    0    0    0  0.00000000000E+00  0.00000000000E+00  0.45593999997E+02  0.45594000000E+02  0.51100000000E-03 0. -1.
         11   -1    0    0    0    0 -0.00000000000E+00 -0.00000000000E+00 -0.45593999997E+02  0.45594000000E+02  0.51100000000E-03 0.  1.
    9900012    2    1    2    0    0 -0.18567141699E+01 -0.76158618044E+01 -0.17006602005E+02  0.72461728340E+02  0.70000205883E+02 0.  0.
         12    1    1    2    0    0  0.18567141699E+01  0.76158618044E+01  0.17006602005E+02  0.18726271660E+02  0.00000000000E+00 0. -1.
         11    1    3    3    0    0  0.15831380829E+02 -0.14102469139E+02 -0.25803949279E+02  0.33396946768E+02  0.51100000000E-03 0. -1.
        -11    1    3    3    0    0  0.24091092927E+01 -0.51067494329E+01 -0.84444560142E+01  0.10158323434E+02  0.51100000000E-03 0.  1.
         12    1    3    3    0    0 -0.20097204291E+02  0.11593356767E+02  0.17241803288E+02  0.28906458138E+02  0.00000000000E+00 0. -1.
</event>
<event>
 7    1  0.3162486E-013  0.7246158E+02  0.7816164E-02  0.1226708E+00
        -11   -1    0    0    0    0  0.00000000000E+00  0.00000000000E+00  0.45593999997E+02  0.45594000000E+02  0.51100000000E-03 0. -1.
         11   -1    0    0    0    0 -0.00000000000E+00 -0.00000000000E+00 -0.45593999997E+02  0.45594000000E+02  0.51100000000E-03 0.  1.
    9900012    2    1    2    0    0  0.17758743994E+01  0.17983476474E+02 -0.49111636763E+01  0.72461583241E+02  0.70000016865E+02 0.  0.
         12    1    1    2    0    0 -0.17758743994E+01 -0.17983476474E+02  0.49111636763E+01  0.18726416759E+02  0.00000000000E+00 0. -1.
         11    1    3    3    0    0  0.14452823487E+02  0.94103054674E+01 -0.31460255996E+01  0.17530984943E+02  0.51100000000E-03 0. -1.
        -11    1    3    3    0    0 -0.48716498501E+01  0.29150429211E+02  0.83469192416E+01  0.30710772646E+02  0.51100000000E-03 0.  1.
        -12    1    3    3    0    0 -0.78052992375E+01 -0.20577258204E+02 -0.10112057318E+02  0.24219825652E+02  0.00000000000E+00 0.  1.
</event>
<event>
 7    1  0.3162486E-013  0.7246157E+02  0.7816164E-02  0.1226708E+00
        -11   -1    0    0    0    0  0.00000000000E+00  0.00000000000E+00  0.45593999997E+02  0.45594000000E+02  0.51100000000E-03 0.  1.
         11   -1    0    0    0    0 -0.00000000000E+00 -0.00000000000E+00 -0.45593999997E+02  0.45594000000E+02  0.51100000000E-03 0. -1.
    9900012    2    1    2    0    0  0.54374915622E+01 -0.12910257729E+02  0.12427317077E+02  0.72461567375E+02  0.69999996197E+02 0.  0.
         12    1    1    2    0    0 -0.54374915622E+01  0.12910257729E+02 -0.12427317077E+02  0.18726432625E+02  0.00000000000E+00 0. -1.
         11    1    3    3    0    0  0.34728007924E+01  0.27493722550E+02  0.80148551775E+01  0.28847929368E+02  0.51100000000E-03 0. -1.
        -11    1    3    3    0    0  0.47029244860E+01 -0.50307944357E+01 -0.27560137824E+01  0.74176818215E+01  0.51100000000E-03 0.  1.
        -12    1    3    3    0    0 -0.27382337162E+01 -0.35373185844E+02  0.71684756814E+01  0.36195956186E+02  0.00000000000E+00 0.  1.
</event>
<event>
 7    1  0.3162486E-013  0.7246154E+02  0.7816164E-02  0.1226708E+00
        -11   -1    0    0    0    0  0.00000000000E+00  0.00000000000E+00  0.45593999997E+02  0.45594000000E+02  0.51100000000E-03 0.  1.
         11   -1    0    0    0    0 -0.00000000000E+00 -0.00000000000E+00 -0.45593999997E+02  0.45594000000E+02  0.51100000000E-03 0. -1.
    9900012    2    1    2    0    0 -0.86077616712E+01  0.12167383788E+02  0.11337620712E+02  0.72461536569E+02  0.69999956066E+02 0.  0.
         12    1    1    2    0    0  0.86077616712E+01 -0.12167383788E+02 -0.11337620712E+02  0.18726463431E+02  0.00000000000E+00 0. -1.
         11    1    3    3    0    0  0.14614010864E+02  0.25497604871E+00  0.74419292537E+01  0.16401726666E+02  0.51100000000E-03 0. -1.
        -11    1    3    3    0    0 -0.10954874230E+02  0.49206063527E+01  0.26678283455E+02  0.29256664961E+02  0.51100000000E-03 0.  1.
         12    1    3    3    0    0 -0.12266898306E+02  0.69918013866E+01 -0.22782591997E+02  0.26803144942E+02  0.00000000000E+00 0. -1.
</event>
<event>
 7    1  0.3162486E-013  0.7246153E+02  0.7816164E-02  0.1226708E+00
        -11   -1    0    0    0    0  0.00000000000E+00  0.00000000000E+00  0.45593999997E+02  0.45594000000E+02  0.51100000000E-03 0.  1.
         11   -1    0    0    0    0 -0.00000000000E+00 -0.00000000000E+00 -0.45593999997E+02  0.45594000000E+02  0.51100000000E-03 0. -1.
    9900012    2    1    2    0    0 -0.15025563658E+02  0.29129746295E+01  0.10790173347E+02  0.72461526085E+02  0.69999942409E+02 0.  0.
         12    1    1    2    0    0  0.15025563658E+02 -0.29129746295E+01 -0.10790173347E+02  0.18726473915E+02  0.00000000000E+00 0. -1.
         11    1    3    3    0    0 -0.47136904102E+01  0.78365708532E+01  0.28210771730E+02  0.29656000437E+02  0.51100000000E-03 0.  1.
        -11    1    3    3    0    0  0.11491534129E+02 -0.16130419928E+01  0.37900911002E+01  0.12207458864E+02  0.51100000000E-03 0. -1.
        -12    1    3    3    0    0 -0.21803407377E+02 -0.33105542309E+01 -0.21210689484E+02  0.30598066784E+02  0.00000000000E+00 0.  1.
</event>
<event>
 7    1  0.3162486E-013  0.7246158E+02  0.7816164E-02  0.1226708E+00
        -11   -1    0    0    0    0  0.00000000000E+00  0.00000000000E+00  0.45593999997E+02  0.45594000000E+02  0.51100000000E-03 0. -1.
         11   -1    0    0    0    0 -0.00000000000E+00 -0.00000000000E+00 -0.45593999997E+02  0.45594000000E+02  0.51100000000E-03 0.  1.
    9900012    2    1    2    0    0  0.15531717430E+02  0.99841088789E+01  0.31244696740E+01  0.72461575163E+02  0.70000006343E+02 0.  0.
         12    1    1    2    0    0 -0.15531717430E+02 -0.99841088789E+01 -0.31244696740E+01  0.18726424837E+02  0.00000000000E+00 0. -1.
         11    1    3    3    0    0  0.17545471421E+02 -0.12148005909E+02  0.91139661874E+01  0.23205214821E+02  0.51100000000E-03 0. -1.
        -11    1    3    3    0    0  0.27420130149E+01 -0.82634692237E+01 -0.14873110414E+02  0.17234064310E+02  0.51100000000E-03 0.  1.
        -12    1    3    3    0    0 -0.47557670059E+01  0.30395584012E+02  0.88836139011E+01  0.32022296032E+02  0.00000000000E+00 0.  1.
</event>
<event>
 7    1  0.3162486E-013  0.7246156E+02  0.7816164E-02  0.1226708E+00
        -11   -1    0    0    0    0  0.00000000000E+00  0.00000000000E+00  0.45593999997E+02  0.45594000000E+02  0.51100000000E-03 0.  1.
         11   -1    0    0    0    0 -0.00000000000E+00 -0.00000000000E+00 -0.45593999997E+02  0.45594000000E+02  0.51100000000E-03 0. -1.
    9900012    2    1    2    0    0 -0.22668708916E+01  0.12742213459E+02  0.13534290789E+02  0.72461555205E+02  0.69999980344E+02 0.  0.
         12    1    1    2    0    0  0.22668708916E+01 -0.12742213459E+02 -0.13534290789E+02  0.18726444795E+02  0.00000000000E+00 0. -1.
         11    1    3    3    0    0 -0.13130942445E+02 -0.78915883976E+00 -0.87966980824E+01  0.15824863935E+02  0.51100000000E-03 0. -1.
        -11    1    3    3    0    0 -0.88130695323E+01 -0.90464940400E+01 -0.72325481982E+01  0.14554002978E+02  0.51100000000E-03 0.  1.
        -12    1    3    3    0    0  0.19677141085E+02  0.22577866339E+02  0.29563537070E+02  0.42082688291E+02  0.00000000000E+00 0.  1.
</event>
<event>
 7    1  0.3162486E-013  0.7246157E+02  0.7816164E-02  0.1226708E+00
        -11   -1    0    0    0    0  0.00000000000E+00  0.00000000000E+00  0.45593999997E+02  0.45594000000E+02  0.51100000000E-03 0. -1.
         11   -1    0    0    0    0 -0.00000000000E+00 -0.00000000000E+00 -0.45593999997E+02  0.45594000000E+02  0.51100000000E-03 0.  1.
    9900012    2    1    2    0    0 -0.16011411465E+02  0.15937785712E+01 -0.95798588164E+01  0.72461571558E+02  0.70000001647E+02 0.  0.
         12    1    1    2    0    0  0.16011411465E+02 -0.15937785712E+01  0.95798588164E+01  0.18726428442E+02  0.00000000000E+00 0. -1.
         11    1    3    3    0    0  0.14548492313E+02 -0.19520006246E+01  0.16323409062E+02  0.21952736018E+02  0.51100000000E-03 0. -1.
        -11    1    3    3    0    0  0.87613538873E+00 -0.47886888468E+01  0.40212304954E+01  0.63142259264E+01  0.51100000000E-03 0.  1.
        -12    1    3    3    0    0 -0.31436039166E+02  0.83344680427E+01 -0.29924498374E+02  0.44194609614E+02  0.00000000000E+00 0.  1.
</event>
<event>
 7    1  0.3162486E-013  0.7246162E+02  0.7816164E-02  0.1226708E+00
        -11   -1    0    0    0    0  0.00000000000E+00  0.00000000000E+00  0.45593999997E+02  0.45594000000E+02  0.51100000000E-03 0.  1.
         11   -1    0    0    0    0 -0.00000000000E+00 -0.00000000000E+00 -0.45593999997E+02  0.45594000000E+02  0.51100000000E-03 0. -1.
    9900012    2    1    2    0    0  0.55353765043E+01  0.56101790070E+01  0.16987136657E+02  0.72461619855E+02  0.70000064562E+02 0.  0.
         12    1    1    2    0    0 -0.55353765043E+01 -0.56101790070E+01 -0.16987136657E+02  0.18726380145E+02  0.00000000000E+00 0. -1.
         11    1    3    3    0    0 -0.36252966509E+01  0.99398662545E+01 -0.25648298973E+01  0.10886784173E+02  0.51100000000E-03 0. -1.
        -11    1    3    3    0    0  0.23331474985E+02  0.11107378041E+02 -0.79164136412E+01  0.27025935268E+02  0.51100000000E-03 0.  1.
        -12    1    3    3    0    0 -0.14170801830E+02 -0.15437065289E+02  0.27468380196E+02  0.34548900414E+02  0.00000000000E+00 0.  1.
</event>
<event>
 7    1  0.3162486E-013  0.7246159E+02  0.7816164E-02  0.1226708E+00
        -11   -1    0    0    0    0  0.00000000000E+00  0.00000000000E+00  0.45593999997E+02  0.45594000000E+02  0.51100000000E-03 0. -1.
         11   -1    0    0    0    0 -0.00000000000E+00 -0.00000000000E+00 -0.45593999997E+02  0.45594000000E+02  0.51100000000E-03 0.  1.
    9900012    2    1    2    0    0 -0.25355375471E+01  0.18497439062E+02 -0.14471317161E+01  0.72461591035E+02  0.70000027019E+02 0.  0.
         12    1    1    2    0    0  0.25355375471E+01 -0.18497439062E+02  0.14471317161E+01  0.18726408965E+02  0.00000000000E+00 0. -1.
         11    1    3    3    0    0 -0.18153496147E+02  0.21848053596E+01  0.15880728726E+02  0.24218182053E+02  0.51100000000E-03 0. -1.
        -11    1    3    3    0    0  0.22601696079E+02 -0.32929989193E+01 -0.31400276412E+01  0.23055157370E+02  0.51100000000E-03 0.  1.
         12    1    3    3    0    0 -0.69837374793E+01  0.19605632622E+02 -0.14187832801E+02  0.25188251612E+02  0.00000000000E+00 0. -1.
</event>
<event>
 7    1  0.3162486E-013  0.7246160E+02  0.7816164E-02  0.1226708E+00
        -11   -1    0    0    0    0  0.00000000000E+00  0.00000000000E+00  0.45593999997E+02  0.45594000000E+02  0.51100000000E-03 0.  1.
         11   -1    0    0    0    0 -0.00000000000E+00 -0.00000000000E+00 -0.45593999997E+02  0.45594000000E+02  0.51100000000E-03 0. -1.
    9900012    2    1    2    0    0  0.18306916758E+02 -0.29765100522E+01 -0.25836161685E+01  0.72461604571E+02  0.70000044651E+02 0.  0.
         12    1    1    2    0    0 -0.18306916758E+02  0.29765100522E+01  0.25836161685E+01  0.18726395429E+02  0.00000000000E+00 0. -1.
         11    1    3    3    0    0 -0.86172386690E+01  0.78017018597E+01 -0.16275842262E+02  0.20000659884E+02  0.51100000000E-03 0. -1.
        -11    1    3    3    0    0 -0.85690486475E+00  0.98946488825E+01 -0.69726148718E+01  0.12134896821E+02  0.51100000000E-03 0.  1.
         12    1    3    3    0    0  0.27781060291E+02 -0.20672860794E+02  0.20664840965E+02  0.40326047866E+02  0.00000000000E+00 0. -1.
</event>
<event>
 7    1  0.3162486E-013  0.7246158E+02  0.7816164E-02  0.1226708E+00
        -11   -1    0    0    0    0  0.00000000000E+00  0.00000000000E+00  0.45593999997E+02  0.45594000000E+02  0.51100000000E-03 0.  1.
         11   -1    0    0    0    0 -0.00000000000E+00 -0.00000000000E+00 -0.45593999997E+02  0.45594000000E+02  0.51100000000E-03 0. -1.
    9900012    2    1    2    0    0  0.13465923474E+01  0.55989234002E+01  0.17819018965E+02  0.72461583069E+02  0.70000016642E+02 0.  0.
         12    1    1    2    0    0 -0.13465923474E+01 -0.55989234002E+01 -0.17819018965E+02  0.18726416931E+02  0.00000000000E+00 0. -1.
         11    1    3    3    0    0  0.74855389104E+01 -0.20370782685E+02 -0.11414671083E+02  0.24521353881E+02  0.51100000000E-03 0. -1.
        -11    1    3    3    0    0 -0.47251674225E+01  0.19304049439E+02  0.21237649182E+01  0.19987093576E+02  0.51100000000E-03 0.  1.
        -12    1    3    3    0    0 -0.14137791405E+01  0.66656566456E+01  0.27109925130E+02  0.27953135612E+02  0.00000000000E+00 0.  1.
</event>
<event>
 7    1  0.3162486E-013  0.7246155E+02  0.7816164E-02  0.1226708E+00
        -11   -1    0    0    0    0  0.00000000000E+00  0.00000000000E+00  0.45593999997E+02  0.45594000000E+02  0.51100000000E-03 0. -1.
         11   -1    0    0    0    0 -0.00000000000E+00 -0.00000000000E+00 -0.45593999997E+02  0.45594000000E+02  0.51100000000E-03 0.  1.
    9900012    2    1    2    0    0  0.14519197895E+02  0.10567910838E+02 -0.53096344909E+01  0.72461546373E+02  0.69999968839E+02 0.  0.
         12    1    1    2    0    0 -0.14519197895E+02 -0.10567910838E+02  0.53096344909E+01  0.18726453627E+02  0.00000000000E+00 0. -1.
         11    1    3    3    0    0 -0.25681161796E+01 -0.22719964417E+02 -0.15699826162E+02  0.27735835045E+02  0.51100000000E-03 0. -1.
        -11    1    3    3    0    0  0.59293175729E+01  0.50802980482E+00 -0.40606603848E+01  0.72044336478E+01  0.51100000000E-03 0.  1.
        -12    1    3    3    0    0  0.11157996502E+02  0.32779845450E+02  0.14450852056E+02  0.37521277681E+02  0.00000000000E+00 0.  1.
</event>
<event>
 7    1  0.3162486E-013  0.7246160E+02  0.7816164E-02  0.1226708E+00
        -11   -1    0    0    0    0  0.00000000000E+00  0.00000000000E+00  0.45593999997E+02  0.45594000000E+02  0.51100000000E-03 0. -1.
         11   -1    0    0    0    0 -0.00000000000E+00 -0.00000000000E+00 -0.45593999997E+02  0.45594000000E+02  0.51100000000E-03 0.  1.
    9900012    2    1    2    0    0  0.35004617554E+01  0.18217739021E+02  0.25571065289E+01  0.72461600417E+02  0.70000039240E+02 0.  0.
         12    1    1    2    0    0 -0.35004617554E+01 -0.18217739021E+02 -0.25571065289E+01  0.18726399583E+02  0.00000000000E+00 0. -1.
         11    1    3    3    0    0 -0.72819950971E+01  0.97180195398E+01  0.59938585954E+01  0.13542292919E+02  0.51100000000E-03 0. -1.
        -11    1    3    3    0    0  0.23388224042E+02 -0.11537042691E+02  0.13924013179E+02  0.29563330684E+02  0.51100000000E-03 0.  1.
         12    1    3    3    0    0 -0.12605767189E+02  0.20036762172E+02 -0.17360765246E+02  0.29355976814E+02  0.00000000000E+00 0. -1.
</event>
<event>
 7    1  0.3162486E-013  0.7246159E+02  0.7816164E-02  0.1226708E+00
        -11   -1    0    0    0    0  0.00000000000E+00  0.00000000000E+00  0.45593999997E+02  0.45594000000E+02  0.51100000000E-03 0. -1.
         11   -1    0    0    0    0 -0.00000000000E+00 -0.00000000000E+00 -0.45593999997E+02  0.45594000000E+02  0.51100000000E-03 0.  1.
    9900012    2    1    2    0    0  0.82962813923E+00  0.18691950454E+02 -0.77533293648E+00  0.72461589886E+02  0.70000025521E+02 0.  0.
         12    1    1    2    0    0 -0.82962813923E+00 -0.18691950454E+02  0.77533293648E+00  0.18726410114E+02  0.00000000000E+00 0. -1.
         11    1    3    3    0    0 -0.14899891627E+02 -0.11653254542E+01  0.77737196737E+01  0.16846230194E+02  0.51100000000E-03 0. -1.
        -11    1    3    3    0    0 -0.13492306487E+02 -0.65098486531E+01 -0.61162312035E+01  0.16181123207E+02  0.51100000000E-03 0.  1.
        -12    1    3    3    0    0  0.29221826253E+02  0.26367124561E+02 -0.24328214066E+01  0.39434236485E+02  0.00000000000E+00 0.  1.
</event>
<event>
 7    1  0.3162486E-013  0.7246157E+02  0.7816164E-02  0.1226708E+00
        -11   -1    0    0    0    0  0.00000000000E+00  0.00000000000E+00  0.45593999997E+02  0.45594000000E+02  0.51100000000E-03 0. -1.
         11   -1    0    0    0    0 -0.00000000000E+00 -0.00000000000E+00 -0.45593999997E+02  0.45594000000E+02  0.51100000000E-03 0.  1.
    9900012    2    1    2    0    0 -0.20916826875E+01  0.38734625675E+01 -0.18201657023E+02  0.72461570359E+02  0.70000000084E+02 0.  0.
         12    1    1    2    0    0  0.20916826875E+01 -0.38734625675E+01  0.18201657023E+02  0.18726429641E+02  0.00000000000E+00 0. -1.
         11    1    3    3    0    0 -0.81800413027E+01  0.12524860707E+02  0.10488581690E+02  0.18270072730E+02  0.51100000000E-03 0. -1.
        -11    1    3    3    0    0  0.21576696970E+02  0.81862601649E+01 -0.13638864149E+02  0.26806479127E+02  0.51100000000E-03 0.  1.
        -12    1    3    3    0    0 -0.15488338355E+02 -0.16837658304E+02 -0.15051374563E+02  0.27385018503E+02  0.00000000000E+00 0.  1.
</event>
<event>
 7    1  0.3162486E-013  0.7246161E+02  0.7816164E-02  0.1226708E+00
        -11   -1    0    0    0    0  0.00000000000E+00  0.00000000000E+00  0.45593999997E+02  0.45594000000E+02  0.51100000000E-03 0.  1.
         11   -1    0    0    0    0 -0.00000000000E+00 -0.00000000000E+00 -0.45593999997E+02  0.45594000000E+02  0.51100000000E-03 0. -1.
    9900012    2    1    2    0    0 -0.18545136945E+02  0.22341669618E+01 -0.13281620777E+01  0.72461611645E+02  0.70000053867E+02 0.  0.
         12    1    1    2    0    0  0.18545136945E+02 -0.22341669618E+01  0.13281620777E+01  0.18726388355E+02  0.00000000000E+00 0. -1.
         11    1    3    3    0    0  0.58665770350E+01  0.50004398424E+01 -0.22241136191E+01  0.80229549654E+01  0.51100000000E-03 0. -1.
        -11    1    3    3    0    0  0.45250520423E+01  0.16656084836E+02 -0.17880470088E+02  0.24851810173E+02  0.51100000000E-03 0.  1.
        -12    1    3    3    0    0 -0.28936766022E+02 -0.19422357717E+02  0.18776421629E+02  0.39586846506E+02  0.00000000000E+00 0.  1.
</event>
<event>
 7    1  0.3162486E-013  0.7246152E+02  0.7816164E-02  0.1226708E+00
        -11   -1    0    0    0    0  0.00000000000E+00  0.00000000000E+00  0.45593999997E+02  0.45594000000E+02  0.51100000000E-03 0.  1.
         11   -1    0    0    0    0 -0.00000000000E+00 -0.00000000000E+00 -0.45593999997E+02  0.45594000000E+02  0.51100000000E-03 0. -1.
    9900012    2    1    2    0    0  0.95889113055E+01  0.85728844224E+01  0.13610275675E+02  0.72461516846E+02  0.69999930374E+02 0.  0.
         12    1    1    2    0    0 -0.95889113055E+01 -0.85728844224E+01 -0.13610275675E+02  0.18726483154E+02  0.00000000000E+00 0. -1.
         11    1    3    3    0    0 -0.40481702035E+01 -0.40117188611E+01  0.26161593588E+01  0.62710334291E+01  0.51100000000E-03 0. -1.
        -11    1    3    3    0    0 -0.15993542022E+02 -0.72282597039E+01  0.22681312884E+02  0.28678965797E+02  0.51100000000E-03 0.  1.
         12    1    3    3    0    0  0.29630623531E+02  0.19812862987E+02 -0.11687196567E+02  0.37511517621E+02  0.00000000000E+00 0. -1.
</event>
<event>
 7    1  0.4645037E-013  0.7246154E+02  0.7816164E-02  0.1226708E+00
        -11   -1    0    0    0    0  0.00000000000E+00  0.00000000000E+00  0.45593999997E+02  0.45594000000E+02  0.51100000000E-03 0.  1.
         11   -1    0    0    0    0 -0.00000000000E+00 -0.00000000000E+00 -0.45593999997E+02  0.45594000000E+02  0.51100000000E-03 0. -1.
    9900012    2    1    2    0    0 -0.16991489873E+02  0.78069816310E+01 -0.10102199219E+01  0.72461541857E+02  0.69999962955E+02 0.  0.
         12    1    1    2    0    0  0.16991489873E+02 -0.78069816310E+01  0.10102199219E+01  0.18726458143E+02  0.00000000000E+00 0. -1.
         11    1    3    3    0    0  0.52947787114E+01 -0.41685474889E+01  0.21605911988E+02  0.22632430335E+02  0.51100000000E-03 0.  1.
        -11    1    3    3    0    0  0.78458767717E+00 -0.90778938691E+01 -0.15209108358E+02  0.17729656292E+02  0.51100000000E-03 0. -1.
        -12    1    3    3    0    0 -0.23070856262E+02  0.21053422989E+02 -0.74070235518E+01  0.32099455230E+02  0.00000000000E+00 0.  1.
</event>
<event>
 7    1  0.3162486E-013  0.7246168E+02  0.7816164E-02  0.1226708E+00
        -11   -1    0    0    0    0  0.00000000000E+00  0.00000000000E+00  0.45593999997E+02  0.45594000000E+02  0.51100000000E-03 0. -1.
         11   -1    0    0    0    0 -0.00000000000E+00 -0.00000000000E+00 -0.45593999997E+02  0.45594000000E+02  0.51100000000E-03 0.  1.
    9900012    2    1    2    0    0  0.98971037494E+01  0.86679604935E+01 -0.13326251022E+02  0.72461677135E+02  0.70000139179E+02 0.  0.
         12    1    1    2    0    0 -0.98971037494E+01 -0.86679604935E+01  0.13326251022E+02  0.18726322865E+02  0.00000000000E+00 0. -1.
         11    1    3    3    0    0 -0.14339504862E+01 -0.62349785918E+01  0.77892696566E+01  0.10079875698E+02  0.51100000000E-03 0. -1.
        -11    1    3    3    0    0  0.26567769818E+02  0.22988105070E+02 -0.20701353689E-01  0.35132603044E+02  0.51100000000E-03 0.  1.
         12    1    3    3    0    0 -0.15236715582E+02 -0.80851659848E+01 -0.21094819325E+02  0.27249198394E+02  0.00000000000E+00 0. -1.
</event>
<event>
 7    1  0.3162486E-013  0.7246154E+02  0.7816164E-02  0.1226708E+00
        -11   -1    0    0    0    0  0.00000000000E+00  0.00000000000E+00  0.45593999997E+02  0.45594000000E+02  0.51100000000E-03 0.  1.
         11   -1    0    0    0    0 -0.00000000000E+00 -0.00000000000E+00 -0.45593999997E+02  0.45594000000E+02  0.51100000000E-03 0. -1.
    9900012    2    1    2    0    0  0.17779582406E+02  0.36879553683E+01 -0.45788265875E+01  0.72461542293E+02  0.69999963523E+02 0.  0.
         12    1    1    2    0    0 -0.17779582406E+02 -0.36879553683E+01  0.45788265875E+01  0.18726457707E+02  0.00000000000E+00 0. -1.
         11    1    3    3    0    0  0.57336507095E+01 -0.51929857722E+01 -0.27325429309E+01  0.82041844701E+01  0.51100000000E-03 0.  1.
        -11    1    3    3    0    0 -0.54543366734E+01 -0.11271093137E+02  0.24021267611E+02  0.27088902284E+02  0.51100000000E-03 0. -1.
         12    1    3    3    0    0  0.17500268370E+02  0.20152034277E+02 -0.25867551268E+02  0.37168455539E+02  0.00000000000E+00 0. -1.
</event>
<event>
 7    1  0.3162486E-013  0.7246151E+02  0.7816164E-02  0.1226708E+00
        -11   -1    0    0    0    0  0.00000000000E+00  0.00000000000E+00  0.45593999997E+02  0.45594000000E+02  0.51100000000E-03 0.  1.
         11   -1    0    0    0    0 -0.00000000000E+00 -0.00000000000E+00 -0.45593999997E+02  0.45594000000E+02  0.51100000000E-03 0. -1.
    9900012    2    1    2    0    0 -0.12217772489E+02 -0.89938454720E+01  0.10978082024E+02  0.72461507913E+02  0.69999918736E+02 0.  0.
         12    1    1    2    0    0  0.12217772489E+02  0.89938454720E+01 -0.10978082024E+02  0.18726492087E+02  0.00000000000E+00 0. -1.
         11    1    3    3    0    0  0.10812622791E+01 -0.97963200660E+01  0.52795982541E+01  0.11180839545E+02  0.51100000000E-03 0. -1.
        -11    1    3    3    0    0  0.29344374039E+01 -0.27740118228E+02 -0.32468618412E+00  0.27896783032E+02  0.51100000000E-03 0.  1.
         12    1    3    3    0    0 -0.16233472172E+02  0.28542592822E+02  0.60231699542E+01  0.33383885335E+02  0.00000000000E+00 0. -1.
</event>
<event>
 7    1  0.3162486E-013  0.7246212E+02  0.7816164E-02  0.1226707E+00
        -11   -1    0    0    0    0  0.00000000000E+00  0.00000000000E+00  0.45593999997E+02  0.45594000000E+02  0.51100000000E-03 0.  1.
         11   -1    0    0    0    0 -0.00000000000E+00 -0.00000000000E+00 -0.45593999997E+02  0.45594000000E+02  0.51100000000E-03 0. -1.
    9900012    2    1    2    0    0 -0.39335809203E+01 -0.13612334249E+02  0.12242952131E+02  0.72462120063E+02  0.70000716171E+02 0.  0.
         12    1    1    2    0    0  0.39335809203E+01  0.13612334249E+02 -0.12242952131E+02  0.18725879937E+02  0.00000000000E+00 0. -1.
         11    1    3    3    0    0  0.11652176047E+02  0.13357527602E+02 -0.27782117794E+01  0.17941995743E+02  0.51100000000E-03 0. -1.
        -11    1    3    3    0    0  0.14327947419E+02 -0.56849840619E+01  0.70551448088E+01  0.16952409551E+02  0.51100000000E-03 0.  1.
         12    1    3    3    0    0 -0.29913704387E+02 -0.21284877789E+02  0.79660191017E+01  0.37567714769E+02  0.00000000000E+00 0. -1.
</event>
<event>
 7    1  0.3162486E-013  0.7246155E+02  0.7816164E-02  0.1226708E+00
        -11   -1    0    0    0    0  0.00000000000E+00  0.00000000000E+00  0.45593999997E+02  0.45594000000E+02  0.51100000000E-03 0. -1.
         11   -1    0    0    0    0 -0.00000000000E+00 -0.00000000000E+00 -0.45593999997E+02  0.45594000000E+02  0.51100000000E-03 0.  1.
    9900012    2    1    2    0    0  0.12447231398E+02  0.12859062190E+01 -0.13931721672E+02  0.72461548307E+02  0.69999971357E+02 0.  0.
         12    1    1    2    0    0 -0.12447231398E+02 -0.12859062190E+01  0.13931721672E+02  0.18726451693E+02  0.00000000000E+00 0. -1.
         11    1    3    3    0    0 -0.20004484100E+02 -0.34990279559E+00  0.69129772685E+00  0.20019483232E+02  0.51100000000E-03 0. -1.
        -11    1    3    3    0    0 -0.88464959401E+01 -0.13759244837E+01 -0.27451823703E+01  0.93642770736E+01  0.51100000000E-03 0.  1.
        -12    1    3    3    0    0  0.41298211438E+02  0.30117334983E+01 -0.11877837028E+02  0.43077788001E+02  0.00000000000E+00 0.  1.
</event>
<event>
 7    1  0.3162486E-013  0.7246157E+02  0.7816164E-02  0.1226708E+00
        -11   -1    0    0    0    0  0.00000000000E+00  0.00000000000E+00  0.45593999997E+02  0.45594000000E+02  0.51100000000E-03 0.  1.
         11   -1    0    0    0    0 -0.00000000000E+00 -0.00000000000E+00 -0.45593999997E+02  0.45594000000E+02  0.51100000000E-03 0. -1.
    9900012    2    1    2    0    0 -0.14113926997E+02  0.11221175321E+02  0.50558466372E+01  0.72461566915E+02  0.69999995598E+02 0.  0.
         12    1    1    2    0    0  0.14113926997E+02 -0.11221175321E+02 -0.50558466372E+01  0.18726433085E+02  0.00000000000E+00 0. -1.
         11    1    3    3    0    0 -0.14501973985E+02  0.15040233954E+02 -0.17490691068E+02  0.27247755158E+02  0.51100000000E-03 0. -1.
        -11    1    3    3    0    0 -0.13197401165E+01 -0.58111296681E+01 -0.10494705919E+02  0.12068545669E+02  0.51100000000E-03 0.  1.
        -12    1    3    3    0    0  0.17077871040E+01  0.19920710354E+01  0.33041243624E+02  0.33145266088E+02  0.00000000000E+00 0.  1.
</event>
<event>
 7    1  0.3162486E-013  0.7246159E+02  0.7816164E-02  0.1226708E+00
        -11   -1    0    0    0    0  0.00000000000E+00  0.00000000000E+00  0.45593999997E+02  0.45594000000E+02  0.51100000000E-03 0. -1.
         11   -1    0    0    0    0 -0.00000000000E+00 -0.00000000000E+00 -0.45593999997E+02  0.45594000000E+02  0.51100000000E-03 0.  1.
    9900012    2    1    2    0    0 -0.17475214563E+02 -0.52115969755E+01 -0.42584520016E+01  0.72461594031E+02  0.70000030921E+02 0.  0.
         12    1    1    2    0    0  0.17475214563E+02  0.52115969755E+01  0.42584520016E+01  0.18726405969E+02  0.00000000000E+00 0. -1.
         11    1    3    3    0    0 -0.55484193652E+01 -0.77511673703E+00  0.20356900845E+02  0.21113720081E+02  0.51100000000E-03 0. -1.
        -11    1    3    3    0    0 -0.54296224895E+01  0.18536021541E+02 -0.38238371548E+01  0.19689759414E+02  0.51100000000E-03 0.  1.
        -12    1    3    3    0    0 -0.64971727086E+01 -0.22972501779E+02 -0.20791515691E+02  0.31658114536E+02  0.00000000000E+00 0.  1.
</event>
<event>
 7    1  0.3162486E-013  0.7246160E+02  0.7816164E-02  0.1226708E+00
        -11   -1    0    0    0    0  0.00000000000E+00  0.00000000000E+00  0.45593999997E+02  0.45594000000E+02  0.51100000000E-03 0.  1.
         11   -1    0    0    0    0 -0.00000000000E+00 -0.00000000000E+00 -0.45593999997E+02  0.45594000000E+02  0.51100000000E-03 0. -1.
    9900012    2    1    2    0    0  0.59368291464E+01 -0.44411502760E+01  0.17196171031E+02  0.72461600074E+02  0.70000038793E+02 0.  0.
         12    1    1    2    0    0 -0.59368291464E+01  0.44411502760E+01 -0.17196171031E+02  0.18726399926E+02  0.00000000000E+00 0. -1.
         11    1    3    3    0    0 -0.79420900222E+00 -0.22468303158E+02  0.93969186455E+01  0.24367139657E+02  0.51100000000E-03 0. -1.
        -11    1    3    3    0    0 -0.11504843186E+01 -0.13589187497E+02  0.73827424222E+01  0.15507885637E+02  0.51100000000E-03 0.  1.
         12    1    3    3    0    0  0.78815224672E+01  0.31616340379E+02  0.41650996283E+00  0.32586574780E+02  0.00000000000E+00 0. -1.
</event>
<event>
 7    1  0.3162486E-013  0.7246162E+02  0.7816164E-02  0.1226708E+00
        -11   -1    0    0    0    0  0.00000000000E+00  0.00000000000E+00  0.45593999997E+02  0.45594000000E+02  0.51100000000E-03 0.  1.
         11   -1    0    0    0    0 -0.00000000000E+00 -0.00000000000E+00 -0.45593999997E+02  0.45594000000E+02  0.51100000000E-03 0. -1.
    9900012    2    1    2    0    0  0.83469427779E+01 -0.15121550773E+02  0.72349464491E+01  0.72461622837E+02  0.70000068447E+02 0.  0.
         12    1    1    2    0    0 -0.83469427779E+01  0.15121550773E+02 -0.72349464491E+01  0.18726377163E+02  0.00000000000E+00 0. -1.
         11    1    3    3    0    0 -0.10925534154E+02  0.67018432513E+01  0.21794316995E+01  0.13001227723E+02  0.51100000000E-03 0. -1.
        -11    1    3    3    0    0  0.46958089934E+00 -0.27988392793E+02 -0.14598781902E+02  0.31570477834E+02  0.51100000000E-03 0.  1.
         12    1    3    3    0    0  0.18802896032E+02  0.61649987688E+01  0.19654296652E+02  0.27889917280E+02  0.00000000000E+00 0. -1.
</event>
<event>
 7    1  0.3162486E-013  0.7246158E+02  0.7816164E-02  0.1226708E+00
        -11   -1    0    0    0    0  0.00000000000E+00  0.00000000000E+00  0.45593999997E+02  0.45594000000E+02  0.51100000000E-03 0. -1.
         11   -1    0    0    0    0 -0.00000000000E+00 -0.00000000000E+00 -0.45593999997E+02  0.45594000000E+02  0.51100000000E-03 0.  1.
    9900012    2    1    2    0    0  0.14682191877E+02 -0.22930744055E+01 -0.11395346741E+02  0.72461578134E+02  0.70000010212E+02 0.  0.
         12    1    1    2    0    0 -0.14682191877E+02  0.22930744055E+01  0.11395346741E+02  0.18726421866E+02  0.00000000000E+00 0. -1.
         11    1    3    3    0    0  0.23484427079E+01  0.10266953167E+02  0.13137395600E+01  0.10613737437E+02  0.51100000000E-03 0. -1.
        -11    1    3    3    0    0 -0.86454590235E+01 -0.38072552093E+01 -0.31166187441E+02  0.32566399767E+02  0.51100000000E-03 0.  1.
         12    1    3    3    0    0  0.20979208193E+02 -0.87527723632E+01  0.18457101139E+02  0.29281440930E+02  0.00000000000E+00 0. -1.
</event>
<event>
 7    1  0.3162486E-013  0.7246173E+02  0.7816164E-02  0.1226708E+00
        -11   -1    0    0    0    0  0.00000000000E+00  0.00000000000E+00  0.45593999997E+02  0.45594000000E+02  0.51100000000E-03 0.  1.
         11   -1    0    0    0    0 -0.00000000000E+00 -0.00000000000E+00 -0.45593999997E+02  0.45594000000E+02  0.51100000000E-03 0. -1.
    9900012    2    1    2    0    0  0.16041084072E+02  0.63197470508E+01 -0.73087362973E+01  0.72461729489E+02  0.70000207380E+02 0.  0.
         12    1    1    2    0    0 -0.16041084072E+02 -0.63197470508E+01  0.73087362973E+01  0.18726270511E+02  0.00000000000E+00 0. -1.
         11    1    3    3    0    0 -0.75090671316E+01 -0.39605107464E+01 -0.16551167331E+02  0.18601421312E+02  0.51100000000E-03 0. -1.
        -11    1    3    3    0    0  0.56861978410E+01 -0.11913301705E+02 -0.12377451685E+02  0.18095881131E+02  0.51100000000E-03 0.  1.
        -12    1    3    3    0    0  0.17863953363E+02  0.22193559503E+02  0.21619882719E+02  0.35764427046E+02  0.00000000000E+00 0.  1.
</event>
<event>
 7    1  0.3162486E-013  0.7246159E+02  0.7816164E-02  0.1226708E+00
        -11   -1    0    0    0    0  0.00000000000E+00  0.00000000000E+00  0.45593999997E+02  0.45594000000E+02  0.51100000000E-03 0. -1.
         11   -1    0    0    0    0 -0.00000000000E+00 -0.00000000000E+00 -0.45593999997E+02  0.45594000000E+02  0.51100000000E-03 0.  1.
    9900012    2    1    2    0    0 -0.16706236675E+02 -0.64961435027E+01  0.54203537156E+01  0.72461589275E+02  0.70000024725E+02 0.  0.
         12    1    1    2    0    0  0.16706236675E+02  0.64961435027E+01 -0.54203537156E+01  0.18726410725E+02  0.00000000000E+00 0. -1.
         11    1    3    3    0    0  0.36596109139E+01  0.86668185490E+01  0.12487359368E+02  0.15634597534E+02  0.51100000000E-03 0. -1.
        -11    1    3    3    0    0  0.88872638977E+01 -0.22371390190E+02  0.46202175554E+01  0.24511404879E+02  0.51100000000E-03 0.  1.
        -12    1    3    3    0    0 -0.29253111487E+02  0.72084281384E+01 -0.11687223208E+02  0.32315586861E+02  0.00000000000E+00 0.  1.
</event>
<event>
 7    1  0.3162486E-013  0.7246162E+02  0.7816164E-02  0.1226708E+00
        -11   -1    0    0    0    0  0.00000000000E+00  0.00000000000E+00  0.45593999997E+02  0.45594000000E+02  0.51100000000E-03 0.  1.
         11   -1    0    0    0    0 -0.00000000000E+00 -0.00000000000E+00 -0.45593999997E+02  0.45594000000E+02  0.51100000000E-03 0. -1.
    9900012    2    1    2    0    0 -0.12131801666E+02  0.12622949206E+02 -0.66451406377E+01  0.72461618811E+02  0.70000063203E+02 0.  0.
         12    1    1    2    0    0  0.12131801666E+02 -0.12622949206E+02  0.66451406377E+01  0.18726381189E+02  0.00000000000E+00 0. -1.
         11    1    3    3    0    0 -0.34612541252E+02  0.59715216377E+00 -0.11797142252E+02  0.36572628675E+02  0.51100000000E-03 0. -1.
        -11    1    3    3    0    0  0.65066923752E+01  0.15492575853E+02 -0.38348438849E+01  0.17235515081E+02  0.51100000000E-03 0.  1.
        -12    1    3    3    0    0  0.15974047211E+02 -0.34667788100E+01  0.89868454994E+01  0.18653475056E+02  0.00000000000E+00 0.  1.
</event>
<event>
 7    1  0.3162486E-013  0.7246159E+02  0.7816164E-02  0.1226708E+00
        -11   -1    0    0    0    0  0.00000000000E+00  0.00000000000E+00  0.45593999997E+02  0.45594000000E+02  0.51100000000E-03 0. -1.
         11   -1    0    0    0    0 -0.00000000000E+00 -0.00000000000E+00 -0.45593999997E+02  0.45594000000E+02  0.51100000000E-03 0.  1.
    9900012    2    1    2    0    0 -0.13826557179E+02 -0.86276517989E+00 -0.12600017662E+02  0.72461588377E+02  0.70000023556E+02 0.  0.
         12    1    1    2    0    0  0.13826557179E+02  0.86276517989E+00  0.12600017662E+02  0.18726411623E+02  0.00000000000E+00 0. -1.
         11    1    3    3    0    0  0.57785378030E+01  0.75467136269E+01 -0.15010746348E+02  0.17767016967E+02  0.51100000000E-03 0. -1.
        -11    1    3    3    0    0  0.83380915417E+01  0.42554240958E+01 -0.16273229152E+02  0.18773662191E+02  0.51100000000E-03 0.  1.
         12    1    3    3    0    0 -0.27943186524E+02 -0.12664902903E+02  0.18683957838E+02  0.35920909219E+02  0.00000000000E+00 0. -1.
</event>
<event>
 7    1  0.3162486E-013  0.7246157E+02  0.7816164E-02  0.1226708E+00
        -11   -1    0    0    0    0  0.00000000000E+00  0.00000000000E+00  0.45593999997E+02  0.45594000000E+02  0.51100000000E-03 0. -1.
         11   -1    0    0    0    0 -0.00000000000E+00 -0.00000000000E+00 -0.45593999997E+02  0.45594000000E+02  0.51100000000E-03 0.  1.
    9900012    2    1    2    0    0 -0.13823550514E+02  0.12123341165E+02  0.35515333204E+01  0.72461565776E+02  0.69999994114E+02 0.  0.
         12    1    1    2    0    0  0.13823550514E+02 -0.12123341165E+02 -0.35515333204E+01  0.18726434224E+02  0.00000000000E+00 0. -1.
         11    1    3    3    0    0  0.18096917278E+02 -0.66295375752E+01  0.11134239769E+01  0.19305152075E+02  0.51100000000E-03 0. -1.
        -11    1    3    3    0    0 -0.16858763758E+02 -0.88507398069E+01  0.89570283458E+01  0.21042382651E+02  0.51100000000E-03 0.  1.
        -12    1    3    3    0    0 -0.15061704035E+02  0.27603618547E+02 -0.65189190024E+01  0.32114031050E+02  0.00000000000E+00 0.  1.
</event>
<event>
 7    1  0.3162486E-013  0.7246156E+02  0.7816164E-02  0.1226708E+00
        -11   -1    0    0    0    0  0.00000000000E+00  0.00000000000E+00  0.45593999997E+02  0.45594000000E+02  0.51100000000E-03 0. -1.
         11   -1    0    0    0    0 -0.00000000000E+00 -0.00000000000E+00 -0.45593999997E+02  0.45594000000E+02  0.51100000000E-03 0.  1.
    9900012    2    1    2    0    0  0.37547338960E+01 -0.79772375199E+01 -0.16521051537E+02  0.72461561765E+02  0.69999988889E+02 0.  0.
         12    1    1    2    0    0 -0.37547338960E+01  0.79772375199E+01  0.16521051537E+02  0.18726438235E+02  0.00000000000E+00 0. -1.
         11    1    3    3    0    0 -0.58533709180E+00 -0.40080464415E+00 -0.33479694454E+01  0.34223038355E+01  0.51100000000E-03 0. -1.
        -11    1    3    3    0    0 -0.11376110380E+02  0.64042193317E+01 -0.35823503912E+02  0.38128117517E+02  0.51100000000E-03 0.  1.
         12    1    3    3    0    0  0.15716181368E+02 -0.13980652207E+02  0.22650421821E+02  0.30911140412E+02  0.00000000000E+00 0. -1.
</event>
<event>
 7    1  0.3162486E-013  0.7246153E+02  0.7816164E-02  0.1226708E+00
        -11   -1    0    0    0    0  0.00000000000E+00  0.00000000000E+00  0.45593999997E+02  0.45594000000E+02  0.51100000000E-03 0. -1.
         11   -1    0    0    0    0 -0.00000000000E+00 -0.00000000000E+00 -0.45593999997E+02  0.45594000000E+02  0.51100000000E-03 0.  1.
    9900012    2    1    2    0    0 -0.22055762018E+01  0.12813455360E+02 -0.13477072999E+02  0.72461529397E+02  0.69999946723E+02 0.  0.
         12    1    1    2    0    0  0.22055762018E+01 -0.12813455360E+02  0.13477072999E+02  0.18726470603E+02  0.00000000000E+00 0. -1.
         11    1    3    3    0    0  0.14389304100E+01 -0.14924400028E+02  0.24945172883E+01  0.15199699132E+02  0.51100000000E-03 0. -1.
        -11    1    3    3    0    0  0.72949225364E+00 -0.81025414569E+01  0.99217721713E+01  0.12830623535E+02  0.51100000000E-03 0.  1.
        -12    1    3    3    0    0 -0.43739988655E+01  0.35840396845E+02 -0.25893362459E+02  0.44431206730E+02  0.00000000000E+00 0.  1.
</event>
<event>
 7    1  0.3162486E-013  0.7246157E+02  0.7816164E-02  0.1226708E+00
        -11   -1    0    0    0    0  0.00000000000E+00  0.00000000000E+00  0.45593999997E+02  0.45594000000E+02  0.51100000000E-03 0. -1.
         11   -1    0    0    0    0 -0.00000000000E+00 -0.00000000000E+00 -0.45593999997E+02  0.45594000000E+02  0.51100000000E-03 0.  1.
    9900012    2    1    2    0    0 -0.88053594238E+01 -0.11855030892E+01 -0.16484515911E+02  0.72461573833E+02  0.70000004610E+02 0.  0.
         12    1    1    2    0    0  0.88053594238E+01  0.11855030892E+01  0.16484515911E+02  0.18726426167E+02  0.00000000000E+00 0. -1.
         11    1    3    3    0    0 -0.18043079266E+02 -0.18154964073E+02 -0.11241373885E+01  0.25620677489E+02  0.51100000000E-03 0. -1.
        -11    1    3    3    0    0 -0.12442740113E+02  0.15880636125E+02 -0.14983061921E+02  0.25129833466E+02  0.51100000000E-03 0.  1.
         12    1    3    3    0    0  0.21680459956E+02  0.10888248589E+01 -0.37731660170E+00  0.21711062878E+02  0.00000000000E+00 0. -1.
</event>
<event>
 7    1  0.3162486E-013  0.7246160E+02  0.7816164E-02  0.1226708E+00
        -11   -1    0    0    0    0  0.00000000000E+00  0.00000000000E+00  0.45593999997E+02  0.45594000000E+02  0.51100000000E-03 0.  1.
         11   -1    0    0    0    0 -0.00000000000E+00 -0.00000000000E+00 -0.45593999997E+02  0.45594000000E+02  0.51100000000E-03 0. -1.
    9900012    2    1    2    0    0 -0.12007679249E+01  0.14720838805E+02  0.11512309384E+02  0.72461596018E+02  0.70000033510E+02 0.  0.
         12    1    1    2    0    0  0.12007679249E+01 -0.14720838805E+02 -0.11512309384E+02  0.18726403982E+02  0.00000000000E+00 0. -1.
         11    1    3    3    0    0 -0.26334437816E+02  0.56528987097E+01  0.17595625699E+02  0.32172409343E+02  0.51100000000E-03 0.  1.
        -11    1    3    3    0    0 -0.42377644232E+01 -0.46710784550E+01  0.24388099696E+01  0.67620570516E+01  0.51100000000E-03 0. -1.
        -12    1    3    3    0    0  0.29371434314E+02  0.13739018551E+02 -0.85221262846E+01  0.33527129624E+02  0.00000000000E+00 0.  1.
</event>
<event>
 7    1  0.3162486E-013  0.7246116E+02  0.7816164E-02  0.1226709E+00
        -11   -1    0    0    0    0  0.00000000000E+00  0.00000000000E+00  0.45593999997E+02  0.45594000000E+02  0.51100000000E-03 0.  1.
         11   -1    0    0    0    0 -0.00000000000E+00 -0.00000000000E+00 -0.45593999997E+02  0.45594000000E+02  0.51100000000E-03 0. -1.
    9900012    2    1    2    0    0  0.18920924765E+01  0.16110832481E+02  0.93571191706E+01  0.72461157865E+02  0.69999462732E+02 0.  0.
         12    1    1    2    0    0 -0.18920924765E+01 -0.16110832481E+02 -0.93571191706E+01  0.18726842135E+02  0.00000000000E+00 0. -1.
         11    1    3    3    0    0  0.51693566079E+01  0.72315708928E+01 -0.19132811214E+02  0.21096974440E+02  0.51100000000E-03 0. -1.
        -11    1    3    3    0    0  0.88463921219E+01  0.13193074804E+00 -0.80016080301E+01  0.11929031420E+02  0.51100000000E-03 0.  1.
        -12    1    3    3    0    0 -0.12123656253E+02  0.87473308404E+01  0.36491538415E+02  0.39435152005E+02  0.00000000000E+00 0.  1.
</event>
<event>
 7    1  0.3162486E-013  0.7246156E+02  0.7816164E-02  0.1226708E+00
        -11   -1    0    0    0    0  0.00000000000E+00  0.00000000000E+00  0.45593999997E+02  0.45594000000E+02  0.51100000000E-03 0.  1.
         11   -1    0    0    0    0 -0.00000000000E+00 -0.00000000000E+00 -0.45593999997E+02  0.45594000000E+02  0.51100000000E-03 0. -1.
    9900012    2    1    2    0    0 -0.75627165981E+01  0.11524811329E+02  0.12675310181E+02  0.72461562894E+02  0.69999990359E+02 0.  0.
         12    1    1    2    0    0  0.75627165981E+01 -0.11524811329E+02 -0.12675310181E+02  0.18726437106E+02  0.00000000000E+00 0. -1.
         11    1    3    3    0    0 -0.69059215016E+01  0.29831965353E+02  0.61460508447E+01  0.31231584172E+02  0.51100000000E-03 0. -1.
        -11    1    3    3    0    0  0.21901324601E+01  0.10776034376E+02 -0.10341032722E+01  0.11044861561E+02  0.51100000000E-03 0.  1.
        -12    1    3    3    0    0 -0.28469275566E+01 -0.29083188401E+02  0.75633626083E+01  0.30185117161E+02  0.00000000000E+00 0.  1.
</event>
<event>
 7    1  0.3162486E-013  0.7246155E+02  0.7816164E-02  0.1226708E+00
        -11   -1    0    0    0    0  0.00000000000E+00  0.00000000000E+00  0.45593999997E+02  0.45594000000E+02  0.51100000000E-03 0. -1.
         11   -1    0    0    0    0 -0.00000000000E+00 -0.00000000000E+00 -0.45593999997E+02  0.45594000000E+02  0.51100000000E-03 0.  1.
    9900012    2    1    2    0    0 -0.14007458320E+02  0.12095507199E+02  0.28582506836E+01  0.72461553995E+02  0.69999978767E+02 0.  0.
         12    1    1    2    0    0  0.14007458320E+02 -0.12095507199E+02 -0.28582506836E+01  0.18726446005E+02  0.00000000000E+00 0. -1.
         11    1    3    3    0    0 -0.13774268518E+02  0.74588305389E-01  0.22099480398E+02  0.26040796278E+02  0.51100000000E-03 0. -1.
        -11    1    3    3    0    0  0.60834379520E+01  0.10492790460E+02  0.10460398394E+02  0.16016454157E+02  0.51100000000E-03 0.  1.
        -12    1    3    3    0    0 -0.63166277539E+01  0.15281284340E+01 -0.29701628109E+02  0.30404303560E+02  0.00000000000E+00 0.  1.
</event>
<event>
 7    1  0.3162486E-013  0.7246154E+02  0.7816164E-02  0.1226708E+00
        -11   -1    0    0    0    0  0.00000000000E+00  0.00000000000E+00  0.45593999997E+02  0.45594000000E+02  0.51100000000E-03 0.  1.
         11   -1    0    0    0    0 -0.00000000000E+00 -0.00000000000E+00 -0.45593999997E+02  0.45594000000E+02  0.51100000000E-03 0. -1.
    9900012    2    1    2    0    0 -0.13163071310E+01 -0.13372486129E+02  0.13043165647E+02  0.72461542251E+02  0.69999963469E+02 0.  0.
         12    1    1    2    0    0  0.13163071310E+01  0.13372486129E+02 -0.13043165647E+02  0.18726457749E+02  0.00000000000E+00 0. -1.
         11    1    3    3    0    0  0.22720820852E+02 -0.15652683047E+02 -0.17860295746E+01  0.27648365027E+02  0.51100000000E-03 0. -1.
        -11    1    3    3    0    0  0.75508611146E+01 -0.12469594218E+01 -0.31729926341E+01  0.82848231055E+01  0.51100000000E-03 0.  1.
        -12    1    3    3    0    0 -0.31587989097E+02  0.35271563405E+01  0.18002187855E+02  0.36528354119E+02  0.00000000000E+00 0.  1.
</event>
<event>
 7    1  0.3162486E-013  0.7246161E+02  0.7816164E-02  0.1226708E+00
        -11   -1    0    0    0    0  0.00000000000E+00  0.00000000000E+00  0.45593999997E+02  0.45594000000E+02  0.51100000000E-03 0.  1.
         11   -1    0    0    0    0 -0.00000000000E+00 -0.00000000000E+00 -0.45593999997E+02  0.45594000000E+02  0.51100000000E-03 0. -1.
    9900012    2    1    2    0    0  0.79068436489E+01 -0.16117527509E+02  0.53277445239E+01  0.72461608697E+02  0.70000050027E+02 0.  0.
         12    1    1    2    0    0 -0.79068436489E+01  0.16117527509E+02 -0.53277445239E+01  0.18726391303E+02  0.00000000000E+00 0. -1.
         11    1    3    3    0    0 -0.23217089027E+01  0.16609837675E+01 -0.92692062050E+01  0.96988341174E+01  0.51100000000E-03 0. -1.
        -11    1    3    3    0    0 -0.14611246966E+02  0.13648531692E+02 -0.37531632977E+00  0.19997795325E+02  0.51100000000E-03 0.  1.
         12    1    3    3    0    0  0.24839799517E+02 -0.31427042969E+02  0.14972267059E+02  0.42764979255E+02  0.00000000000E+00 0. -1.
</event>
<event>
 7    1  0.3162486E-013  0.7246144E+02  0.7816164E-02  0.1226708E+00
        -11   -1    0    0    0    0  0.00000000000E+00  0.00000000000E+00  0.45593999997E+02  0.45594000000E+02  0.51100000000E-03 0.  1.
         11   -1    0    0    0    0 -0.00000000000E+00 -0.00000000000E+00 -0.45593999997E+02  0.45594000000E+02  0.51100000000E-03 0. -1.
    9900012    2    1    2    0    0 -0.93167989620E+01  0.18819049757E+01  0.16135042195E+02  0.72461444100E+02  0.69999835608E+02 0.  0.
         12    1    1    2    0    0  0.93167989620E+01 -0.18819049757E+01 -0.16135042195E+02  0.18726555900E+02  0.00000000000E+00 0. -1.
         11    1    3    3    0    0 -0.21755551284E+01 -0.22999927834E+01  0.19758402828E+01  0.37318831713E+01  0.51100000000E-03 0. -1.
        -11    1    3    3    0    0  0.50110049829E+01 -0.30104207810E+02  0.10007767051E+02  0.32117423627E+02  0.51100000000E-03 0.  1.
         12    1    3    3    0    0 -0.12152248817E+02  0.34286105569E+02  0.41514348611E+01  0.36612137302E+02  0.00000000000E+00 0. -1.
</event>
<event>
 7    1  0.3162486E-013  0.7246122E+02  0.7816164E-02  0.1226709E+00
        -11   -1    0    0    0    0  0.00000000000E+00  0.00000000000E+00  0.45593999997E+02  0.45594000000E+02  0.51100000000E-03 0. -1.
         11   -1    0    0    0    0 -0.00000000000E+00 -0.00000000000E+00 -0.45593999997E+02  0.45594000000E+02  0.51100000000E-03 0.  1.
    9900012    2    1    2    0    0  0.87718540392E+01 -0.12877166482E+02 -0.10388718074E+02  0.72461219627E+02  0.69999543190E+02 0.  0.
         12    1    1    2    0    0 -0.87718540392E+01  0.12877166482E+02  0.10388718074E+02  0.18726780373E+02  0.00000000000E+00 0. -1.
         11    1    3    3    0    0 -0.41942579423E+01 -0.22575798292E+01 -0.42176756234E+00  0.47818777180E+01  0.51100000000E-03 0. -1.
        -11    1    3    3    0    0 -0.20169414516E+02 -0.19653348398E+02 -0.16614390979E+02  0.32697054501E+02  0.51100000000E-03 0.  1.
         12    1    3    3    0    0  0.33135526498E+02  0.90337617445E+01  0.66474404675E+01  0.34982287408E+02  0.00000000000E+00 0. -1.
</event>
<event>
 7    1  0.3162486E-013  0.7246155E+02  0.7816164E-02  0.1226708E+00
        -11   -1    0    0    0    0  0.00000000000E+00  0.00000000000E+00  0.45593999997E+02  0.45594000000E+02  0.51100000000E-03 0.  1.
         11   -1    0    0    0    0 -0.00000000000E+00 -0.00000000000E+00 -0.45593999997E+02  0.45594000000E+02  0.51100000000E-03 0. -1.
    9900012    2    1    2    0    0 -0.46099309601E+01  0.18002517191E+02  0.23103694367E+01  0.72461550908E+02  0.69999974746E+02 0.  0.
         12    1    1    2    0    0  0.46099309601E+01 -0.18002517191E+02 -0.23103694367E+01  0.18726449092E+02  0.00000000000E+00 0. -1.
         11    1    3    3    0    0 -0.38440454961E+01  0.79828627580E+01  0.29004130534E+01  0.93228311006E+01  0.51100000000E-03 0. -1.
        -11    1    3    3    0    0 -0.20065832268E+02  0.24871272576E+02  0.13847708669E+02  0.34827817328E+02  0.51100000000E-03 0.  1.
         12    1    3    3    0    0  0.19299946804E+02 -0.14851618144E+02 -0.14437752286E+02  0.28310902479E+02  0.00000000000E+00 0. -1.
</event>
<event>
 7    1  0.3162486E-013  0.7246160E+02  0.7816164E-02  0.1226708E+00
        -11   -1    0    0    0    0  0.00000000000E+00  0.00000000000E+00  0.45593999997E+02  0.45594000000E+02  0.51100000000E-03 0.  1.
         11   -1    0    0    0    0 -0.00000000000E+00 -0.00000000000E+00 -0.45593999997E+02  0.45594000000E+02  0.51100000000E-03 0. -1.
    9900012    2    1    2    0    0 -0.42794137396E+01 -0.13382742555E+02 -0.12380107338E+02  0.72461595168E+02  0.70000032402E+02 0.  0.
         12    1    1    2    0    0  0.42794137396E+01  0.13382742555E+02  0.12380107338E+02  0.18726404832E+02  0.00000000000E+00 0. -1.
         11    1    3    3    0    0 -0.12265112840E+02 -0.16620600934E+02 -0.18167139172E+02  0.27508586193E+02  0.51100000000E-03 0. -1.
        -11    1    3    3    0    0  0.19105541874E+02  0.94783357315E+01 -0.10900289496E+02  0.23951552975E+02  0.51100000000E-03 0.  1.
        -12    1    3    3    0    0 -0.11119842774E+02 -0.62404773529E+01  0.16687321331E+02  0.21001456000E+02  0.00000000000E+00 0.  1.
</event>
<event>
 7    1  0.3162486E-013  0.7246160E+02  0.7816164E-02  0.1226708E+00
        -11   -1    0    0    0    0  0.00000000000E+00  0.00000000000E+00  0.45593999997E+02  0.45594000000E+02  0.51100000000E-03 0.  1.
         11   -1    0    0    0    0 -0.00000000000E+00 -0.00000000000E+00 -0.45593999997E+02  0.45594000000E+02  0.51100000000E-03 0. -1.
    9900012    2    1    2    0    0 -0.41473240206E+01  0.19268028064E+01  0.18159441996E+02  0.72461596203E+02  0.70000033750E+02 0.  0.
         12    1    1    2    0    0  0.41473240206E+01 -0.19268028064E+01 -0.18159441996E+02  0.18726403797E+02  0.00000000000E+00 0. -1.
         11    1    3    3    0    0  0.16091310073E+01  0.69920399222E+00 -0.90721086237E+01  0.92402025931E+01  0.51100000000E-03 0. -1.
        -11    1    3    3    0    0  0.23033567129E+02 -0.19405753287E+01 -0.50234157766E+00  0.23120627038E+02  0.51100000000E-03 0.  1.
         12    1    3    3    0    0 -0.28790022157E+02  0.31681741428E+01  0.27733892197E+02  0.40100766571E+02  0.00000000000E+00 0. -1.
</event>
<event>
 7    1  0.3162486E-013  0.7246160E+02  0.7816164E-02  0.1226708E+00
        -11   -1    0    0    0    0  0.00000000000E+00  0.00000000000E+00  0.45593999997E+02  0.45594000000E+02  0.51100000000E-03 0.  1.
         11   -1    0    0    0    0 -0.00000000000E+00 -0.00000000000E+00 -0.45593999997E+02  0.45594000000E+02  0.51100000000E-03 0. -1.
    9900012    2    1    2    0    0 -0.10999451155E+02 -0.12961519010E+02  0.78542523622E+01  0.72461596690E+02  0.70000034386E+02 0.  0.
         12    1    1    2    0    0  0.10999451155E+02  0.12961519010E+02 -0.78542523622E+01  0.18726403310E+02  0.00000000000E+00 0. -1.
         11    1    3    3    0    0 -0.72477155324E+01 -0.15501453237E+02  0.66544706505E+01  0.18360457859E+02  0.51100000000E-03 0. -1.
        -11    1    3    3    0    0 -0.56308071860E+01 -0.24264728056E+02 -0.72332646246E+01  0.25938448963E+02  0.51100000000E-03 0.  1.
         12    1    3    3    0    0  0.18790715631E+01  0.26804662284E+02  0.84330463364E+01  0.28162689868E+02  0.00000000000E+00 0. -1.
</event>
<event>
 7    1  0.3162486E-013  0.7246159E+02  0.7816164E-02  0.1226708E+00
        -11   -1    0    0    0    0  0.00000000000E+00  0.00000000000E+00  0.45593999997E+02  0.45594000000E+02  0.51100000000E-03 0.  1.
         11   -1    0    0    0    0 -0.00000000000E+00 -0.00000000000E+00 -0.45593999997E+02  0.45594000000E+02  0.51100000000E-03 0. -1.
    9900012    2    1    2    0    0 -0.16114126428E+02 -0.85096229664E+01 -0.43127414987E+01  0.72461588363E+02  0.70000023538E+02 0.  0.
         12    1    1    2    0    0  0.16114126428E+02  0.85096229664E+01  0.43127414987E+01  0.18726411637E+02  0.00000000000E+00 0. -1.
         11    1    3    3    0    0  0.22632544556E+02 -0.79315884492E+01  0.39046691152E+01  0.24297913688E+02  0.51100000000E-03 0. -1.
        -11    1    3    3    0    0  0.37856559946E+01 -0.18487148931E+00  0.21864682663E+01  0.43756156730E+01  0.51100000000E-03 0.  1.
        -12    1    3    3    0    0 -0.42532326979E+02 -0.39316302798E+00 -0.10403878880E+02  0.43788059002E+02  0.00000000000E+00 0.  1.
</event>
<event>
 7    1  0.3162486E-013  0.7246153E+02  0.7816164E-02  0.1226708E+00
        -11   -1    0    0    0    0  0.00000000000E+00  0.00000000000E+00  0.45593999997E+02  0.45594000000E+02  0.51100000000E-03 0. -1.
         11   -1    0    0    0    0 -0.00000000000E+00 -0.00000000000E+00 -0.45593999997E+02  0.45594000000E+02  0.51100000000E-03 0.  1.
    9900012    2    1    2    0    0  0.22479073274E+01 -0.17522841313E+02 -0.62110866760E+01  0.72461530692E+02  0.69999948411E+02 0.  0.
         12    1    1    2    0    0 -0.22479073274E+01  0.17522841313E+02  0.62110866760E+01  0.18726469308E+02  0.00000000000E+00 0. -1.
         11    1    3    3    0    0  0.49889579666E+01 -0.22828748211E+02  0.13560480886E+02  0.27017181360E+02  0.51100000000E-03 0. -1.
        -11    1    3    3    0    0 -0.19157761457E+02 -0.58134992763E+01 -0.15092067736E+02  0.25071639489E+02  0.51100000000E-03 0.  1.
        -12    1    3    3    0    0  0.16416710817E+02  0.11119406175E+02 -0.46794998266E+01  0.20372709843E+02  0.00000000000E+00 0.  1.
</event>
<event>
 7    1  0.3162486E-013  0.7246157E+02  0.7816164E-02  0.1226708E+00
        -11   -1    0    0    0    0  0.00000000000E+00  0.00000000000E+00  0.45593999997E+02  0.45594000000E+02  0.51100000000E-03 0.  1.
         11   -1    0    0    0    0 -0.00000000000E+00 -0.00000000000E+00 -0.45593999997E+02  0.45594000000E+02  0.51100000000E-03 0. -1.
    9900012    2    1    2    0    0  0.16858258998E+02 -0.68802766753E+01 -0.43749445181E+01  0.72461568329E+02  0.69999997440E+02 0.  0.
         12    1    1    2    0    0 -0.16858258998E+02  0.68802766753E+01  0.43749445181E+01  0.18726431671E+02  0.00000000000E+00 0. -1.
         11    1    3    3    0    0 -0.55136700975E+01 -0.16145525434E+02  0.14981458901E+01  0.17126674833E+02  0.51100000000E-03 0. -1.
        -11    1    3    3    0    0  0.16557537021E+02 -0.57574511645E+01  0.18904408933E+02  0.25781329552E+02  0.51100000000E-03 0.  1.
        -12    1    3    3    0    0  0.58143920744E+01  0.15022699923E+02 -0.24777499341E+02  0.29553563944E+02  0.00000000000E+00 0.  1.
</event>
<event>
 7    1  0.3162486E-013  0.7246193E+02  0.7816164E-02  0.1226707E+00
        -11   -1    0    0    0    0  0.00000000000E+00  0.00000000000E+00  0.45593999997E+02  0.45594000000E+02  0.51100000000E-03 0. -1.
         11   -1    0    0    0    0 -0.00000000000E+00 -0.00000000000E+00 -0.45593999997E+02  0.45594000000E+02  0.51100000000E-03 0.  1.
    9900012    2    1    2    0    0 -0.14103242739E+02  0.83438574729E+01 -0.90633525452E+01  0.72461927998E+02  0.70000465974E+02 0.  0.
         12    1    1    2    0    0  0.14103242739E+02 -0.83438574729E+01  0.90633525452E+01  0.18726072002E+02  0.00000000000E+00 0. -1.
         11    1    3    3    0    0  0.93743750190E+01  0.10470663604E+02 -0.32925247587E+01  0.14434487274E+02  0.51100000000E-03 0. -1.
        -11    1    3    3    0    0 -0.22380712806E+02  0.98154374716E+01 -0.25258184587E+02  0.35145625722E+02  0.51100000000E-03 0.  1.
         12    1    3    3    0    0 -0.10969049512E+01 -0.11942243603E+02  0.19487356800E+02  0.22881815002E+02  0.00000000000E+00 0. -1.
</event>
<event>
 7    1  0.3162486E-013  0.7246163E+02  0.7816164E-02  0.1226708E+00
        -11   -1    0    0    0    0  0.00000000000E+00  0.00000000000E+00  0.45593999997E+02  0.45594000000E+02  0.51100000000E-03 0.  1.
         11   -1    0    0    0    0 -0.00000000000E+00 -0.00000000000E+00 -0.45593999997E+02  0.45594000000E+02  0.51100000000E-03 0. -1.
    9900012    2    1    2    0    0  0.86262994866E+01  0.15537300946E+02 -0.59039194403E+01  0.72461627466E+02  0.70000074477E+02 0.  0.
         12    1    1    2    0    0 -0.86262994866E+01 -0.15537300946E+02  0.59039194403E+01  0.18726372534E+02  0.00000000000E+00 0. -1.
         11    1    3    3    0    0 -0.38816535086E+01  0.12430156992E+02 -0.22117007871E+02  0.25665893210E+02  0.51100000000E-03 0. -1.
        -11    1    3    3    0    0 -0.89307473797E+01  0.49317439374E+01 -0.90319503947E+01  0.13625581647E+02  0.51100000000E-03 0.  1.
        -12    1    3    3    0    0  0.21438700375E+02 -0.18245999840E+01  0.25245038825E+02  0.33170152610E+02  0.00000000000E+00 0.  1.
</event>
<event>
 7    1  0.3162486E-013  0.7246158E+02  0.7816164E-02  0.1226708E+00
        -11   -1    0    0    0    0  0.00000000000E+00  0.00000000000E+00  0.45593999997E+02  0.45594000000E+02  0.51100000000E-03 0.  1.
         11   -1    0    0    0    0 -0.00000000000E+00 -0.00000000000E+00 -0.45593999997E+02  0.45594000000E+02  0.51100000000E-03 0. -1.
    9900012    2    1    2    0    0  0.31882077269E+01 -0.14313867649E+02  0.11645910888E+02  0.72461582404E+02  0.70000015775E+02 0.  0.
         12    1    1    2    0    0 -0.31882077269E+01  0.14313867649E+02 -0.11645910888E+02  0.18726417596E+02  0.00000000000E+00 0. -1.
         11    1    3    3    0    0  0.11419019773E+01 -0.27948797879E+01  0.25426269047E+01  0.39471819051E+01  0.51100000000E-03 0. -1.
        -11    1    3    3    0    0  0.15011615660E+01 -0.20366858694E+02  0.35342312834E+02  0.40818396537E+02  0.51100000000E-03 0.  1.
         12    1    3    3    0    0  0.54514418360E+00  0.88478708338E+01 -0.26239028851E+02  0.27696003962E+02  0.00000000000E+00 0. -1.
</event>
<event>
 7    1  0.3162486E-013  0.7246157E+02  0.7816164E-02  0.1226708E+00
        -11   -1    0    0    0    0  0.00000000000E+00  0.00000000000E+00  0.45593999997E+02  0.45594000000E+02  0.51100000000E-03 0. -1.
         11   -1    0    0    0    0 -0.00000000000E+00 -0.00000000000E+00 -0.45593999997E+02  0.45594000000E+02  0.51100000000E-03 0.  1.
    9900012    2    1    2    0    0 -0.34412398595E+01 -0.11464723372E+02 -0.14401289202E+02  0.72461570964E+02  0.70000000872E+02 0.  0.
         12    1    1    2    0    0  0.34412398595E+01  0.11464723372E+02  0.14401289202E+02  0.18726429036E+02  0.00000000000E+00 0. -1.
         11    1    3    3    0    0 -0.56289778890E+01 -0.49953489943E+01 -0.14410483504E+02  0.16257334921E+02  0.51100000000E-03 0. -1.
        -11    1    3    3    0    0  0.15327503887E+02 -0.50088655769E+01 -0.23930611784E+02  0.28856460115E+02  0.51100000000E-03 0.  1.
         12    1    3    3    0    0 -0.13139765857E+02 -0.14605088007E+01  0.23939806086E+02  0.27347775927E+02  0.00000000000E+00 0. -1.
</event>
<event>
 7    1  0.3162486E-013  0.7246153E+02  0.7816164E-02  0.1226708E+00
        -11   -1    0    0    0    0  0.00000000000E+00  0.00000000000E+00  0.45593999997E+02  0.45594000000E+02  0.51100000000E-03 0.  1.
         11   -1    0    0    0    0 -0.00000000000E+00 -0.00000000000E+00 -0.45593999997E+02  0.45594000000E+02  0.51100000000E-03 0. -1.
    9900012    2    1    2    0    0  0.54532004529E+01  0.70561555883E+01  0.16466750721E+02  0.72461531935E+02  0.69999950030E+02 0.  0.
         12    1    1    2    0    0 -0.54532004529E+01 -0.70561555883E+01 -0.16466750721E+02  0.18726468065E+02  0.00000000000E+00 0. -1.
         11    1    3    3    0    0 -0.16157234832E+01  0.13199538559E+02 -0.56034190370E+01  0.14430408369E+02  0.51100000000E-03 0. -1.
        -11    1    3    3    0    0 -0.58391611107E+01  0.12517572602E+02 -0.11184465316E+02  0.17772948292E+02  0.51100000000E-03 0.  1.
        -12    1    3    3    0    0  0.12908085047E+02 -0.18660955572E+02  0.33254635074E+02  0.40258175274E+02  0.00000000000E+00 0.  1.
</event>
<event>
 7    1  0.3162486E-013  0.7246165E+02  0.7816164E-02  0.1226708E+00
        -11   -1    0    0    0    0  0.00000000000E+00  0.00000000000E+00  0.45593999997E+02  0.45594000000E+02  0.51100000000E-03 0. -1.
         11   -1    0    0    0    0 -0.00000000000E+00 -0.00000000000E+00 -0.45593999997E+02  0.45594000000E+02  0.51100000000E-03 0.  1.
    9900012    2    1    2    0    0  0.16284405704E+02  0.62859464868E+01 -0.67809357456E+01  0.72461652734E+02  0.70000107392E+02 0.  0.
         12    1    1    2    0    0 -0.16284405704E+02 -0.62859464868E+01  0.67809357456E+01  0.18726347266E+02  0.00000000000E+00 0. -1.
         11    1    3    3    0    0 -0.17410140022E+02 -0.14471836274E+02 -0.56515321881E+01  0.23334241729E+02  0.51100000000E-03 0. -1.
        -11    1    3    3    0    0 -0.47442879727E+01  0.66433683463E+01 -0.37837126641E+00  0.81722565078E+01  0.51100000000E-03 0.  1.
        -12    1    3    3    0    0  0.38438833698E+02  0.14114414415E+02 -0.75103229108E+00  0.40955154497E+02  0.00000000000E+00 0.  1.
</event>
<event>
 7    1  0.3162486E-013  0.7246158E+02  0.7816164E-02  0.1226708E+00
        -11   -1    0    0    0    0  0.00000000000E+00  0.00000000000E+00  0.45593999997E+02  0.45594000000E+02  0.51100000000E-03 0.  1.
         11   -1    0    0    0    0 -0.00000000000E+00 -0.00000000000E+00 -0.45593999997E+02  0.45594000000E+02  0.51100000000E-03 0. -1.
    9900012    2    1    2    0    0  0.32142626854E+01  0.16377622682E+02  0.84924040254E+01  0.72461576544E+02  0.70000008141E+02 0.  0.
         12    1    1    2    0    0 -0.32142626854E+01 -0.16377622682E+02 -0.84924040254E+01  0.18726423456E+02  0.00000000000E+00 0. -1.
         11    1    3    3    0    0  0.47164238783E+01  0.48125314417E+01  0.56250049220E+01  0.87775733384E+01  0.51100000000E-03 0. -1.
        -11    1    3    3    0    0  0.27430862181E+02  0.17419049597E+02  0.86004584827E+01  0.33613142894E+02  0.51100000000E-03 0.  1.
         12    1    3    3    0    0 -0.28933023374E+02 -0.58539583568E+01 -0.57330593793E+01  0.30070860311E+02  0.00000000000E+00 0. -1.
</event>
<event>
 7    1  0.3162486E-013  0.7246168E+02  0.7816164E-02  0.1226708E+00
        -11   -1    0    0    0    0  0.00000000000E+00  0.00000000000E+00  0.45593999997E+02  0.45594000000E+02  0.51100000000E-03 0. -1.
         11   -1    0    0    0    0 -0.00000000000E+00 -0.00000000000E+00 -0.45593999997E+02  0.45594000000E+02  0.51100000000E-03 0.  1.
    9900012    2    1    2    0    0 -0.10822259604E+01  0.15842168255E+02 -0.99262108477E+01  0.72461677087E+02  0.70000139118E+02 0.  0.
         12    1    1    2    0    0  0.10822259604E+01 -0.15842168255E+02  0.99262108477E+01  0.18726322913E+02  0.00000000000E+00 0. -1.
         11    1    3    3    0    0  0.61782858673E+01  0.14833298784E+02  0.88362323550E+01  0.18337856242E+02  0.51100000000E-03 0. -1.
        -11    1    3    3    0    0 -0.13698832325E+02  0.23478615542E+02 -0.12539715052E+02  0.29935728631E+02  0.51100000000E-03 0.  1.
         12    1    3    3    0    0  0.64383204969E+01 -0.22469746071E+02 -0.62227281511E+01  0.24188092214E+02  0.00000000000E+00 0. -1.
</event>
<event>
 7    1  0.3162486E-013  0.7246157E+02  0.7816164E-02  0.1226708E+00
        -11   -1    0    0    0    0  0.00000000000E+00  0.00000000000E+00  0.45593999997E+02  0.45594000000E+02  0.51100000000E-03 0. -1.
         11   -1    0    0    0    0 -0.00000000000E+00 -0.00000000000E+00 -0.45593999997E+02  0.45594000000E+02  0.51100000000E-03 0.  1.
    9900012    2    1    2    0    0  0.18445008336E+02  0.32035213332E+01 -0.44519798956E+00  0.72461572612E+02  0.70000003019E+02 0.  0.
         12    1    1    2    0    0 -0.18445008336E+02 -0.32035213332E+01  0.44519798956E+00  0.18726427388E+02  0.00000000000E+00 0. -1.
         11    1    3    3    0    0 -0.20177072696E+02 -0.44194978509E+00 -0.61209204375E+01  0.21089695338E+02  0.51100000000E-03 0. -1.
        -11    1    3    3    0    0  0.11187385180E+01  0.75693590946E+01  0.10885454246E+02  0.13305633671E+02  0.51100000000E-03 0.  1.
        -12    1    3    3    0    0  0.37503342515E+02 -0.39238879763E+01 -0.52097317983E+01  0.38066243603E+02  0.00000000000E+00 0.  1.
</event>
<event>
 7    1  0.3162486E-013  0.7246202E+02  0.7816164E-02  0.1226707E+00
        -11   -1    0    0    0    0  0.00000000000E+00  0.00000000000E+00  0.45593999997E+02  0.45594000000E+02  0.51100000000E-03 0. -1.
         11   -1    0    0    0    0 -0.00000000000E+00 -0.00000000000E+00 -0.45593999997E+02  0.45594000000E+02  0.51100000000E-03 0.  1.
    9900012    2    1    2    0    0  0.65871694337E+01  0.16532204050E+02 -0.58273165599E+01  0.72462023652E+02  0.70000590580E+02 0.  0.
         12    1    1    2    0    0 -0.65871694337E+01 -0.16532204050E+02  0.58273165599E+01  0.18725976348E+02  0.00000000000E+00 0. -1.
         11    1    3    3    0    0  0.11956872923E+01  0.18429784240E+02 -0.32746555647E+01  0.18756598427E+02  0.51100000000E-03 0. -1.
        -11    1    3    3    0    0 -0.41169800492E+01  0.24798842163E+02 -0.33155574332E+01  0.25355966136E+02  0.51100000000E-03 0.  1.
         12    1    3    3    0    0  0.95084621905E+01 -0.26696422353E+02  0.76289643807E+00  0.28349459089E+02  0.00000000000E+00 0. -1.
</event>
<event>
 7    1  0.3162486E-013  0.7246160E+02  0.7816164E-02  0.1226708E+00
        -11   -1    0    0    0    0  0.00000000000E+00  0.00000000000E+00  0.45593999997E+02  0.45594000000E+02  0.51100000000E-03 0.  1.
         11   -1    0    0    0    0 -0.00000000000E+00 -0.00000000000E+00 -0.45593999997E+02  0.45594000000E+02  0.51100000000E-03 0. -1.
    9900012    2    1    2    0    0 -0.13465116981E+02 -0.10262788956E+02 -0.80027401519E+01  0.72461599854E+02  0.70000038508E+02 0.  0.
         12    1    1    2    0    0  0.13465116981E+02  0.10262788956E+02  0.80027401519E+01  0.18726400146E+02  0.00000000000E+00 0. -1.
         11    1    3    3    0    0 -0.75598291678E+01  0.51224515925E+01 -0.13156241749E+02  0.16014906325E+02  0.51100000000E-03 0. -1.
        -11    1    3    3    0    0 -0.22096174175E+02 -0.26428024104E+02  0.10712357938E+02  0.36075420775E+02  0.51100000000E-03 0.  1.
         12    1    3    3    0    0  0.16190886362E+02  0.11042783556E+02 -0.55588563409E+01  0.20371272755E+02  0.00000000000E+00 0. -1.
</event>
<event>
 7    1  0.3162486E-013  0.7246161E+02  0.7816164E-02  0.1226708E+00
        -11   -1    0    0    0    0  0.00000000000E+00  0.00000000000E+00  0.45593999997E+02  0.45594000000E+02  0.51100000000E-03 0.  1.
         11   -1    0    0    0    0 -0.00000000000E+00 -0.00000000000E+00 -0.45593999997E+02  0.45594000000E+02  0.51100000000E-03 0. -1.
    9900012    2    1    2    0    0 -0.17415647708E+02  0.61165028992E+01 -0.31561680818E+01  0.72461607134E+02  0.70000047991E+02 0.  0.
         12    1    1    2    0    0  0.17415647708E+02 -0.61165028992E+01  0.31561680818E+01  0.18726392866E+02  0.00000000000E+00 0. -1.
         11    1    3    3    0    0 -0.28424806592E+02 -0.63669989066E+01 -0.16477492246E+02  0.33466640941E+02  0.51100000000E-03 0. -1.
        -11    1    3    3    0    0  0.22425393219E+01 -0.11056148248E+02  0.62622496875E+01  0.12902835662E+02  0.51100000000E-03 0.  1.
        -12    1    3    3    0    0  0.87666195623E+01  0.23539650054E+02  0.70590744762E+01  0.26092130532E+02  0.00000000000E+00 0.  1.
</event>
<event>
 7    1  0.3162486E-013  0.7246153E+02  0.7816164E-02  0.1226708E+00
        -11   -1    0    0    0    0  0.00000000000E+00  0.00000000000E+00  0.45593999997E+02  0.45594000000E+02  0.51100000000E-03 0.  1.
         11   -1    0    0    0    0 -0.00000000000E+00 -0.00000000000E+00 -0.45593999997E+02  0.45594000000E+02  0.51100000000E-03 0. -1.
    9900012    2    1    2    0    0 -0.95383213659E+01  0.15839462142E+02 -0.29686127620E+01  0.72461526836E+02  0.69999943388E+02 0.  0.
         12    1    1    2    0    0  0.95383213659E+01 -0.15839462142E+02  0.29686127620E+01  0.18726473164E+02  0.00000000000E+00 0. -1.
         11    1    3    3    0    0  0.16916652632E+02  0.21905811398E+02  0.13926164176E+02  0.30983475567E+02  0.51100000000E-03 0. -1.
        -11    1    3    3    0    0 -0.22646374260E+01  0.89621409922E+01 -0.58110763451E+01  0.10918661199E+02  0.51100000000E-03 0.  1.
        -12    1    3    3    0    0 -0.24190336572E+02 -0.15028490248E+02 -0.11083700592E+02  0.30559390070E+02  0.00000000000E+00 0.  1.
</event>
<event>
 7    1  0.3162486E-013  0.7246145E+02  0.7816164E-02  0.1226708E+00
        -11   -1    0    0    0    0  0.00000000000E+00  0.00000000000E+00  0.45593999997E+02  0.45594000000E+02  0.51100000000E-03 0. -1.
         11   -1    0    0    0    0 -0.00000000000E+00 -0.00000000000E+00 -0.45593999997E+02  0.45594000000E+02  0.51100000000E-03 0.  1.
    9900012    2    1    2    0    0 -0.44565186103E+00 -0.17605826357E+02 -0.63655323537E+01  0.72461448544E+02  0.69999841397E+02 0.  0.
         12    1    1    2    0    0  0.44565186103E+00  0.17605826357E+02  0.63655323537E+01  0.18726551456E+02  0.00000000000E+00 0. -1.
         11    1    3    3    0    0 -0.14304291291E+02 -0.14692479664E+02 -0.82356396996E+01  0.22097680184E+02  0.51100000000E-03 0. -1.
        -11    1    3    3    0    0 -0.15394967867E+02  0.24277161650E+01 -0.98092854770E+01  0.18415236171E+02  0.51100000000E-03 0.  1.
         12    1    3    3    0    0  0.29253607296E+02 -0.53410628579E+01  0.11679392823E+02  0.31948532189E+02  0.00000000000E+00 0. -1.
</event>
<event>
 7    1  0.3162486E-013  0.7246158E+02  0.7816164E-02  0.1226708E+00
        -11   -1    0    0    0    0  0.00000000000E+00  0.00000000000E+00  0.45593999997E+02  0.45594000000E+02  0.51100000000E-03 0. -1.
         11   -1    0    0    0    0 -0.00000000000E+00 -0.00000000000E+00 -0.45593999997E+02  0.45594000000E+02  0.51100000000E-03 0.  1.
    9900012    2    1    2    0    0  0.42098458864E+01  0.15165157922E+02 -0.10147612318E+02  0.72461578747E+02  0.70000011011E+02 0.  0.
         12    1    1    2    0    0 -0.42098458864E+01 -0.15165157922E+02  0.10147612318E+02  0.18726421253E+02  0.00000000000E+00 0. -1.
         11    1    3    3    0    0  0.82550559024E+01  0.23755597124E+02  0.95952075350E+01  0.26917324358E+02  0.51100000000E-03 0. -1.
        -11    1    3    3    0    0  0.28739997021E+01  0.10654192203E+02 -0.22352205781E+02  0.24927751389E+02  0.51100000000E-03 0.  1.
        -12    1    3    3    0    0 -0.69192097181E+01 -0.19244631405E+02  0.26093859275E+01  0.20616503000E+02  0.00000000000E+00 0.  1.
</event>
<event>
 7    1  0.3162486E-013  0.7246158E+02  0.7816164E-02  0.1226708E+00
        -11   -1    0    0    0    0  0.00000000000E+00  0.00000000000E+00  0.45593999997E+02  0.45594000000E+02  0.51100000000E-03 0.  1.
         11   -1    0    0    0    0 -0.00000000000E+00 -0.00000000000E+00 -0.45593999997E+02  0.45594000000E+02  0.51100000000E-03 0. -1.
    9900012    2    1    2    0    0 -0.82324292676E+01 -0.16819417655E+02  0.11488806213E+00  0.72461577459E+02  0.70000009334E+02 0.  0.
         12    1    1    2    0    0  0.82324292676E+01  0.16819417655E+02 -0.11488806213E+00  0.18726422541E+02  0.00000000000E+00 0. -1.
         11    1    3    3    0    0  0.18509123475E+02 -0.13412106387E+02 -0.14093879524E+02  0.26853485618E+02  0.51100000000E-03 0. -1.
        -11    1    3    3    0    0  0.47134085629E+01 -0.55830087599E+01  0.11937757298E+02  0.13996294390E+02  0.51100000000E-03 0.  1.
         12    1    3    3    0    0 -0.31454961306E+02  0.21756974919E+01  0.22710102878E+01  0.31611797451E+02  0.00000000000E+00 0. -1.
</event>
<event>
 7    1  0.3162486E-013  0.7246156E+02  0.7816164E-02  0.1226708E+00
        -11   -1    0    0    0    0  0.00000000000E+00  0.00000000000E+00  0.45593999997E+02  0.45594000000E+02  0.51100000000E-03 0.  1.
         11   -1    0    0    0    0 -0.00000000000E+00 -0.00000000000E+00 -0.45593999997E+02  0.45594000000E+02  0.51100000000E-03 0. -1.
    9900012    2    1    2    0    0 -0.11572724846E+01  0.17046687752E+02  0.76649016823E+01  0.72461559849E+02  0.69999986393E+02 0.  0.
         12    1    1    2    0    0  0.11572724846E+01 -0.17046687752E+02 -0.76649016823E+01  0.18726440151E+02  0.00000000000E+00 0. -1.
         11    1    3    3    0    0 -0.15800195897E+02 -0.14053201504E+02 -0.90421711101E+01  0.22997815582E+02  0.51100000000E-03 0. -1.
        -11    1    3    3    0    0  0.77951704245E+01 -0.57242156088E+00  0.15120009624E+02  0.17020782581E+02  0.51100000000E-03 0.  1.
        -12    1    3    3    0    0  0.68477529877E+01  0.31672310817E+02  0.15870631686E+01  0.32442961686E+02  0.00000000000E+00 0.  1.
</event>
<event>
 7    1  0.3162486E-013  0.7246152E+02  0.7816164E-02  0.1226708E+00
        -11   -1    0    0    0    0  0.00000000000E+00  0.00000000000E+00  0.45593999997E+02  0.45594000000E+02  0.51100000000E-03 0.  1.
         11   -1    0    0    0    0 -0.00000000000E+00 -0.00000000000E+00 -0.45593999997E+02  0.45594000000E+02  0.51100000000E-03 0. -1.
    9900012    2    1    2    0    0 -0.13995641004E+02  0.18529110779E+01  0.12303244584E+02  0.72461519448E+02  0.69999933763E+02 0.  0.
         12    1    1    2    0    0  0.13995641004E+02 -0.18529110779E+01 -0.12303244584E+02  0.18726480552E+02  0.00000000000E+00 0. -1.
         11    1    3    3    0    0 -0.51130375119E+01 -0.11184888529E+02 -0.13318010338E+02  0.18127721413E+02  0.51100000000E-03 0. -1.
        -11    1    3    3    0    0  0.18181584168E+02  0.92538600398E+01  0.13326435179E+02  0.24367966746E+02  0.51100000000E-03 0.  1.
         12    1    3    3    0    0 -0.27064187660E+02  0.37839395667E+01  0.12294819743E+02  0.29965831289E+02  0.00000000000E+00 0. -1.
</event>
<event>
 7    1  0.3162486E-013  0.7246161E+02  0.7816164E-02  0.1226708E+00
        -11   -1    0    0    0    0  0.00000000000E+00  0.00000000000E+00  0.45593999997E+02  0.45594000000E+02  0.51100000000E-03 0.  1.
         11   -1    0    0    0    0 -0.00000000000E+00 -0.00000000000E+00 -0.45593999997E+02  0.45594000000E+02  0.51100000000E-03 0. -1.
    9900012    2    1    2    0    0 -0.78285799338E+01 -0.93357345788E+01  0.14220942715E+02  0.72461606444E+02  0.70000047092E+02 0.  0.
         12    1    1    2    0    0  0.78285799338E+01  0.93357345788E+01 -0.14220942715E+02  0.18726393556E+02  0.00000000000E+00 0. -1.
         11    1    3    3    0    0 -0.18044868565E+01  0.20888550925E+02 -0.12657255983E+02  0.24490689289E+02  0.51100000000E-03 0. -1.
        -11    1    3    3    0    0 -0.10619952918E+02 -0.14062793553E+02  0.17039950700E+01  0.17704495530E+02  0.51100000000E-03 0.  1.
        -12    1    3    3    0    0  0.45958598409E+01 -0.16161491950E+02  0.25174203628E+02  0.30266421626E+02  0.00000000000E+00 0.  1.
</event>
<event>
 7    1  0.3162486E-013  0.7246156E+02  0.7816164E-02  0.1226708E+00
        -11   -1    0    0    0    0  0.00000000000E+00  0.00000000000E+00  0.45593999997E+02  0.45594000000E+02  0.51100000000E-03 0. -1.
         11   -1    0    0    0    0 -0.00000000000E+00 -0.00000000000E+00 -0.45593999997E+02  0.45594000000E+02  0.51100000000E-03 0.  1.
    9900012    2    1    2    0    0 -0.13767726282E+02 -0.12652041462E+02 -0.10271723233E+01  0.72461560853E+02  0.69999987701E+02 0.  0.
         12    1    1    2    0    0  0.13767726282E+02  0.12652041462E+02  0.10271723233E+01  0.18726439147E+02  0.00000000000E+00 0. -1.
         11    1    3    3    0    0 -0.16557592024E+02  0.18584620678E+01  0.12520849780E+02  0.20841770903E+02  0.51100000000E-03 0. -1.
        -11    1    3    3    0    0 -0.33811959429E+01  0.11335656969E+02 -0.20929387814E+02  0.24040983329E+02  0.51100000000E-03 0.  1.
        -12    1    3    3    0    0  0.61710616849E+01 -0.25846160499E+02  0.73813657109E+01  0.27578806621E+02  0.00000000000E+00 0.  1.
</event>
<event>
 7    1  0.3162486E-013  0.7246163E+02  0.7816164E-02  0.1226708E+00
        -11   -1    0    0    0    0  0.00000000000E+00  0.00000000000E+00  0.45593999997E+02  0.45594000000E+02  0.51100000000E-03 0.  1.
         11   -1    0    0    0    0 -0.00000000000E+00 -0.00000000000E+00 -0.45593999997E+02  0.45594000000E+02  0.51100000000E-03 0. -1.
    9900012    2    1    2    0    0 -0.24150008993E+01  0.11255228236E+02  0.14770391149E+02  0.72461632315E+02  0.70000080793E+02 0.  0.
         12    1    1    2    0    0  0.24150008993E+01 -0.11255228236E+02 -0.14770391149E+02  0.18726367685E+02  0.00000000000E+00 0. -1.
         11    1    3    3    0    0  0.14865378609E+02  0.36259895873E+00  0.18845035230E+01  0.14988739539E+02  0.51100000000E-03 0.  1.
        -11    1    3    3    0    0 -0.25731133135E+02  0.27148789211E+02  0.59146109710E+01  0.37869916704E+02  0.51100000000E-03 0. -1.
         12    1    3    3    0    0  0.84507536267E+01 -0.16256159934E+02  0.69712766552E+01  0.19602976071E+02  0.00000000000E+00 0. -1.
</event>
<event>
 7    1  0.3162486E-013  0.7246186E+02  0.7816164E-02  0.1226707E+00
        -11   -1    0    0    0    0  0.00000000000E+00  0.00000000000E+00  0.45593999997E+02  0.45594000000E+02  0.51100000000E-03 0.  1.
         11   -1    0    0    0    0 -0.00000000000E+00 -0.00000000000E+00 -0.45593999997E+02  0.45594000000E+02  0.51100000000E-03 0. -1.
    9900012    2    1    2    0    0  0.69629296672E+01 -0.51687159934E+01  0.16597293157E+02  0.72461864394E+02  0.70000383119E+02 0.  0.
         12    1    1    2    0    0 -0.69629296672E+01  0.51687159934E+01 -0.16597293157E+02  0.18726135606E+02  0.00000000000E+00 0. -1.
         11    1    3    3    0    0  0.15892780507E+02 -0.79232369526E+01 -0.86193699730E+01  0.19739597134E+02  0.51100000000E-03 0. -1.
        -11    1    3    3    0    0  0.16658562327E+02  0.53963544247E+01  0.12368752060E+01  0.17554435349E+02  0.51100000000E-03 0.  1.
         12    1    3    3    0    0 -0.25588413166E+02 -0.26418334655E+01  0.23979787924E+02  0.35167831911E+02  0.00000000000E+00 0. -1.
</event>
<event>
 7    1  0.3162486E-013  0.7246194E+02  0.7816164E-02  0.1226707E+00
        -11   -1    0    0    0    0  0.00000000000E+00  0.00000000000E+00  0.45593999997E+02  0.45594000000E+02  0.51100000000E-03 0. -1.
         11   -1    0    0    0    0 -0.00000000000E+00 -0.00000000000E+00 -0.45593999997E+02  0.45594000000E+02  0.51100000000E-03 0.  1.
    9900012    2    1    2    0    0  0.13442201533E+02 -0.25914717680E+01 -0.12777202276E+02  0.72461937787E+02  0.70000478726E+02 0.  0.
         12    1    1    2    0    0 -0.13442201533E+02  0.25914717680E+01  0.12777202276E+02  0.18726062213E+02  0.00000000000E+00 0. -1.
         11    1    3    3    0    0 -0.26186924836E+02  0.10522062925E+02 -0.50903192561E+01  0.28677171948E+02  0.51100000000E-03 0. -1.
        -11    1    3    3    0    0  0.71992685314E+01  0.17456426983E+01 -0.76348606771E+00  0.74471234080E+01  0.51100000000E-03 0.  1.
        -12    1    3    3    0    0  0.32429857838E+02 -0.14859177391E+02 -0.69233969525E+01  0.36337642431E+02  0.00000000000E+00 0.  1.
</event>
<event>
 7    1  0.3162486E-013  0.7246156E+02  0.7816164E-02  0.1226708E+00
        -11   -1    0    0    0    0  0.00000000000E+00  0.00000000000E+00  0.45593999997E+02  0.45594000000E+02  0.51100000000E-03 0. -1.
         11   -1    0    0    0    0 -0.00000000000E+00 -0.00000000000E+00 -0.45593999997E+02  0.45594000000E+02  0.51100000000E-03 0.  1.
    9900012    2    1    2    0    0  0.10424694465E+02 -0.78622947248E+00 -0.15536634395E+02  0.72461563612E+02  0.69999991295E+02 0.  0.
         12    1    1    2    0    0 -0.10424694465E+02  0.78622947248E+00  0.15536634395E+02  0.18726436388E+02  0.00000000000E+00 0. -1.
         11    1    3    3    0    0  0.12357934447E+02  0.68887466090E+01  0.11048499914E+02  0.17951120418E+02  0.51100000000E-03 0. -1.
        -11    1    3    3    0    0  0.11688334157E+02  0.90584590251E+01  0.55574310799E+01  0.15797400917E+02  0.51100000000E-03 0.  1.
        -12    1    3    3    0    0 -0.13621574139E+02 -0.16733435107E+02 -0.32142565390E+02  0.38713042277E+02  0.00000000000E+00 0.  1.
</event>
<event>
 7    1  0.3162486E-013  0.7246167E+02  0.7816164E-02  0.1226708E+00
        -11   -1    0    0    0    0  0.00000000000E+00  0.00000000000E+00  0.45593999997E+02  0.45594000000E+02  0.51100000000E-03 0.  1.
         11   -1    0    0    0    0 -0.00000000000E+00 -0.00000000000E+00 -0.45593999997E+02  0.45594000000E+02  0.51100000000E-03 0. -1.
    9900012    2    1    2    0    0 -0.12531038515E+02  0.78419385205E+01  0.11495757903E+02  0.72461671588E+02  0.70000131954E+02 0.  0.
         12    1    1    2    0    0  0.12531038515E+02 -0.78419385205E+01 -0.11495757903E+02  0.18726328412E+02  0.00000000000E+00 0. -1.
         11    1    3    3    0    0  0.81024471251E+01 -0.94695207822E+01  0.35787511907E+01  0.12966454165E+02  0.51100000000E-03 0.  1.
        -11    1    3    3    0    0  0.46378369701E+01 -0.90129787563E+01  0.18849000816E+02  0.21401592227E+02  0.51100000000E-03 0. -1.
         12    1    3    3    0    0 -0.25271322610E+02  0.26324438059E+02 -0.10931994103E+02  0.38093625197E+02  0.00000000000E+00 0. -1.
</event>
<event>
 7    1  0.3162486E-013  0.7246154E+02  0.7816164E-02  0.1226708E+00
        -11   -1    0    0    0    0  0.00000000000E+00  0.00000000000E+00  0.45593999997E+02  0.45594000000E+02  0.51100000000E-03 0. -1.
         11   -1    0    0    0    0 -0.00000000000E+00 -0.00000000000E+00 -0.45593999997E+02  0.45594000000E+02  0.51100000000E-03 0.  1.
    9900012    2    1    2    0    0  0.10889037041E+02 -0.12940696682E+02  0.80403736864E+01  0.72461538313E+02  0.69999958339E+02 0.  0.
         12    1    1    2    0    0 -0.10889037041E+02  0.12940696682E+02 -0.80403736864E+01  0.18726461687E+02  0.00000000000E+00 0. -1.
         11    1    3    3    0    0  0.20228348988E+02  0.72616538378E+01  0.21996411782E+02  0.30753208788E+02  0.51100000000E-03 0. -1.
        -11    1    3    3    0    0 -0.13064134741E+02 -0.19173733088E+02  0.38229692223E+01  0.23514224439E+02  0.51100000000E-03 0.  1.
        -12    1    3    3    0    0  0.37248227935E+01 -0.10286174320E+01 -0.17779007318E+02  0.18194105086E+02  0.00000000000E+00 0.  1.
</event>
<event>
 7    1  0.3162486E-013  0.7246156E+02  0.7816164E-02  0.1226708E+00
        -11   -1    0    0    0    0  0.00000000000E+00  0.00000000000E+00  0.45593999997E+02  0.45594000000E+02  0.51100000000E-03 0.  1.
         11   -1    0    0    0    0 -0.00000000000E+00 -0.00000000000E+00 -0.45593999997E+02  0.45594000000E+02  0.51100000000E-03 0. -1.
    9900012    2    1    2    0    0 -0.39280591758E+01  0.18308363231E+02  0.23149750890E+00  0.72461564029E+02  0.69999991838E+02 0.  0.
         12    1    1    2    0    0  0.39280591758E+01 -0.18308363231E+02 -0.23149750890E+00  0.18726435971E+02  0.00000000000E+00 0. -1.
         11    1    3    3    0    0  0.26454390467E+01  0.28793355411E+01  0.67702267548E+01  0.78182409455E+01  0.51100000000E-03 0. -1.
        -11    1    3    3    0    0  0.16413560204E+02  0.41239478919E+01  0.21040820810E+02  0.27002371107E+02  0.51100000000E-03 0.  1.
         12    1    3    3    0    0 -0.22987058427E+02  0.11305079798E+02 -0.27579550056E+02  0.37640951976E+02  0.00000000000E+00 0. -1.
</event>
<event>
 7    1  0.3162486E-013  0.7246158E+02  0.7816164E-02  0.1226708E+00
        -11   -1    0    0    0    0  0.00000000000E+00  0.00000000000E+00  0.45593999997E+02  0.45594000000E+02  0.51100000000E-03 0. -1.
         11   -1    0    0    0    0 -0.00000000000E+00 -0.00000000000E+00 -0.45593999997E+02  0.45594000000E+02  0.51100000000E-03 0.  1.
    9900012    2    1    2    0    0  0.31650158788E+01  0.18454488044E+02 -0.30560411915E+00  0.72461578870E+02  0.70000011171E+02 0.  0.
         12    1    1    2    0    0 -0.31650158788E+01 -0.18454488044E+02  0.30560411915E+00  0.18726421130E+02  0.00000000000E+00 0. -1.
         11    1    3    3    0    0 -0.15592493518E+02 -0.78639743889E+01 -0.41933117199E+01  0.17959727468E+02  0.51100000000E-03 0. -1.
        -11    1    3    3    0    0 -0.75432761219E+01 -0.25431980679E+01 -0.10245945577E+02  0.12974909329E+02  0.51100000000E-03 0.  1.
         12    1    3    3    0    0  0.26300785518E+02  0.28861660501E+02  0.14133653178E+02  0.41526942073E+02  0.00000000000E+00 0. -1.
</event>
<event>
 7    1  0.3162486E-013  0.7246164E+02  0.7816164E-02  0.1226708E+00
        -11   -1    0    0    0    0  0.00000000000E+00  0.00000000000E+00  0.45593999997E+02  0.45594000000E+02  0.51100000000E-03 0. -1.
         11   -1    0    0    0    0 -0.00000000000E+00 -0.00000000000E+00 -0.45593999997E+02  0.45594000000E+02  0.51100000000E-03 0.  1.
    9900012    2    1    2    0    0  0.10823835464E+02  0.11869126929E+02 -0.96252333389E+01  0.72461636097E+02  0.70000085720E+02 0.  0.
         12    1    1    2    0    0 -0.10823835464E+02 -0.11869126929E+02  0.96252333389E+01  0.18726363903E+02  0.00000000000E+00 0. -1.
         11    1    3    3    0    0  0.52279401389E+01  0.22940708357E+02  0.69067616114E+01  0.24521639714E+02  0.51100000000E-03 0. -1.
        -11    1    3    3    0    0 -0.15119289026E+01  0.10228598841E+02 -0.22451523493E+02  0.24718031287E+02  0.51100000000E-03 0.  1.
         12    1    3    3    0    0  0.71078242274E+01 -0.21300180270E+02  0.59195285431E+01  0.23221965096E+02  0.00000000000E+00 0. -1.
</event>
<event>
 7    1  0.3162486E-013  0.7246157E+02  0.7816164E-02  0.1226708E+00
        -11   -1    0    0    0    0  0.00000000000E+00  0.00000000000E+00  0.45593999997E+02  0.45594000000E+02  0.51100000000E-03 0. -1.
         11   -1    0    0    0    0 -0.00000000000E+00 -0.00000000000E+00 -0.45593999997E+02  0.45594000000E+02  0.51100000000E-03 0.  1.
    9900012    2    1    2    0    0  0.16313647023E+02  0.13997147651E+00  0.91937142162E+01  0.72461573424E+02  0.70000004077E+02 0.  0.
         12    1    1    2    0    0 -0.16313647023E+02 -0.13997147651E+00 -0.91937142162E+01  0.18726426576E+02  0.00000000000E+00 0. -1.
         11    1    3    3    0    0  0.31048999657E+02  0.15683976730E+02  0.17452404783E+02  0.38918041301E+02  0.51100000000E-03 0. -1.
        -11    1    3    3    0    0  0.82430999615E+00  0.58550866146E+01 -0.27367648261E+01  0.65154745191E+01  0.51100000000E-03 0.  1.
         12    1    3    3    0    0 -0.15559662630E+02 -0.21399091868E+02 -0.55219257408E+01  0.27028057604E+02  0.00000000000E+00 0. -1.
</event>
<event>
 7    1  0.3162486E-013  0.7246162E+02  0.7816164E-02  0.1226708E+00
        -11   -1    0    0    0    0  0.00000000000E+00  0.00000000000E+00  0.45593999997E+02  0.45594000000E+02  0.51100000000E-03 0.  1.
         11   -1    0    0    0    0 -0.00000000000E+00 -0.00000000000E+00 -0.45593999997E+02  0.45594000000E+02  0.51100000000E-03 0. -1.
    9900012    2    1    2    0    0  0.70860693157E+01  0.16756079907E+02  0.44383297749E+01  0.72461618519E+02  0.70000062822E+02 0.  0.
         12    1    1    2    0    0 -0.70860693157E+01 -0.16756079907E+02 -0.44383297749E+01  0.18726381481E+02  0.00000000000E+00 0. -1.
         11    1    3    3    0    0  0.47979929146E+01 -0.13828697129E+01  0.33590547977E+02  0.33959652211E+02  0.51100000000E-03 0.  1.
        -11    1    3    3    0    0 -0.60000518691E+01  0.14292397103E+01 -0.10135440606E+02  0.11864674674E+02  0.51100000000E-03 0. -1.
        -12    1    3    3    0    0  0.82881282702E+01  0.16709709909E+02 -0.19016777596E+02  0.26637291634E+02  0.00000000000E+00 0.  1.
</event>
<event>
 7    1  0.3162486E-013  0.7246156E+02  0.7816164E-02  0.1226708E+00
        -11   -1    0    0    0    0  0.00000000000E+00  0.00000000000E+00  0.45593999997E+02  0.45594000000E+02  0.51100000000E-03 0. -1.
         11   -1    0    0    0    0 -0.00000000000E+00 -0.00000000000E+00 -0.45593999997E+02  0.45594000000E+02  0.51100000000E-03 0.  1.
    9900012    2    1    2    0    0 -0.92954099273E+01  0.15962946867E+02 -0.30756059112E+01  0.72461556929E+02  0.69999982589E+02 0.  0.
         12    1    1    2    0    0  0.92954099273E+01 -0.15962946867E+02  0.30756059112E+01  0.18726443071E+02  0.00000000000E+00 0. -1.
         11    1    3    3    0    0 -0.13829105826E+02 -0.96569544555E+01 -0.92638618731E+01  0.19243702200E+02  0.51100000000E-03 0. -1.
        -11    1    3    3    0    0  0.51114335205E+01 -0.11197257889E+02 -0.69344146874E+01  0.14127683610E+02  0.51100000000E-03 0.  1.
         12    1    3    3    0    0 -0.57773762194E+00  0.36817159211E+02  0.13122670649E+02  0.39090171119E+02  0.00000000000E+00 0. -1.
</event>
<event>
 7    1  0.3162486E-013  0.7246153E+02  0.7816164E-02  0.1226708E+00
        -11   -1    0    0    0    0  0.00000000000E+00  0.00000000000E+00  0.45593999997E+02  0.45594000000E+02  0.51100000000E-03 0. -1.
         11   -1    0    0    0    0 -0.00000000000E+00 -0.00000000000E+00 -0.45593999997E+02  0.45594000000E+02  0.51100000000E-03 0.  1.
    9900012    2    1    2    0    0 -0.12414318185E+01 -0.16653043597E+02 -0.84744114913E+01  0.72461530388E+02  0.69999948015E+02 0.  0.
         12    1    1    2    0    0  0.12414318185E+01  0.16653043597E+02  0.84744114913E+01  0.18726469612E+02  0.00000000000E+00 0. -1.
         11    1    3    3    0    0  0.16162104490E+02 -0.66187979155E+01 -0.12373606509E+02  0.21403930614E+02  0.51100000000E-03 0. -1.
        -11    1    3    3    0    0  0.12082248232E+02 -0.32439234255E+01  0.14357917316E+02  0.19043464796E+02  0.51100000000E-03 0.  1.
        -12    1    3    3    0    0 -0.29485784541E+02 -0.67903222558E+01 -0.10458722298E+02  0.32014134979E+02  0.00000000000E+00 0.  1.
</event>
<event>
 7    1  0.3162486E-013  0.7246158E+02  0.7816164E-02  0.1226708E+00
        -11   -1    0    0    0    0  0.00000000000E+00  0.00000000000E+00  0.45593999997E+02  0.45594000000E+02  0.51100000000E-03 0.  1.
         11   -1    0    0    0    0 -0.00000000000E+00 -0.00000000000E+00 -0.45593999997E+02  0.45594000000E+02  0.51100000000E-03 0. -1.
    9900012    2    1    2    0    0 -0.17917164081E+02  0.54441769368E+01 -0.12173372474E+00  0.72461584157E+02  0.70000018058E+02 0.  0.
         12    1    1    2    0    0  0.17917164081E+02 -0.54441769368E+01  0.12173372474E+00  0.18726415843E+02  0.00000000000E+00 0. -1.
         11    1    3    3    0    0 -0.35950431481E+02  0.56644396006E+01 -0.22777963778E+01  0.36465158114E+02  0.51100000000E-03 0. -1.
        -11    1    3    3    0    0 -0.73768922826E+01 -0.22787846304E+01 -0.53824260259E+01  0.94117962859E+01  0.51100000000E-03 0.  1.
        -12    1    3    3    0    0  0.25410159682E+02  0.20585219666E+01  0.75384886789E+01  0.26584629757E+02  0.00000000000E+00 0.  1.
</event>
<event>
 7    1  0.3162486E-013  0.7246157E+02  0.7816164E-02  0.1226708E+00
        -11   -1    0    0    0    0  0.00000000000E+00  0.00000000000E+00  0.45593999997E+02  0.45594000000E+02  0.51100000000E-03 0. -1.
         11   -1    0    0    0    0 -0.00000000000E+00 -0.00000000000E+00 -0.45593999997E+02  0.45594000000E+02  0.51100000000E-03 0.  1.
    9900012    2    1    2    0    0 -0.10652179992E+02  0.13580098221E+02  0.72657493994E+01  0.72461571600E+02  0.70000001701E+02 0.  0.
         12    1    1    2    0    0  0.10652179992E+02 -0.13580098221E+02 -0.72657493994E+01  0.18726428400E+02  0.00000000000E+00 0. -1.
         11    1    3    3    0    0 -0.19308525560E+01 -0.14316761837E+02 -0.53336624452E+00  0.14456221530E+02  0.51100000000E-03 0. -1.
        -11    1    3    3    0    0 -0.14512475441E+02  0.25553016786E+02 -0.15958425471E+02  0.33440095007E+02  0.51100000000E-03 0.  1.
         12    1    3    3    0    0  0.57911480048E+01  0.23438432724E+01  0.23757541115E+02  0.24565255064E+02  0.00000000000E+00 0. -1.
</event>
<event>
 7    1  0.3162486E-013  0.7246157E+02  0.7816164E-02  0.1226708E+00
        -11   -1    0    0    0    0  0.00000000000E+00  0.00000000000E+00  0.45593999997E+02  0.45594000000E+02  0.51100000000E-03 0. -1.
         11   -1    0    0    0    0 -0.00000000000E+00 -0.00000000000E+00 -0.45593999997E+02  0.45594000000E+02  0.51100000000E-03 0.  1.
    9900012    2    1    2    0    0 -0.12464675201E+02  0.11034177207E+02 -0.85765931764E+01  0.72461570949E+02  0.70000000852E+02 0.  0.
         12    1    1    2    0    0  0.12464675201E+02 -0.11034177207E+02  0.85765931764E+01  0.18726429051E+02  0.00000000000E+00 0. -1.
         11    1    3    3    0    0 -0.46076036626E+01 -0.67191734274E+01  0.57109683965E+01  0.99494956327E+01  0.51100000000E-03 0. -1.
        -11    1    3    3    0    0  0.20577209400E+01 -0.18900263245E+02 -0.15488165148E+02  0.24522182328E+02  0.51100000000E-03 0.  1.
         12    1    3    3    0    0 -0.99147924788E+01  0.36653613879E+02  0.12006035754E+01  0.37989892988E+02  0.00000000000E+00 0. -1.
</event>
<event>
 7    1  0.3162486E-013  0.7246157E+02  0.7816164E-02  0.1226708E+00
        -11   -1    0    0    0    0  0.00000000000E+00  0.00000000000E+00  0.45593999997E+02  0.45594000000E+02  0.51100000000E-03 0. -1.
         11   -1    0    0    0    0 -0.00000000000E+00 -0.00000000000E+00 -0.45593999997E+02  0.45594000000E+02  0.51100000000E-03 0.  1.
    9900012    2    1    2    0    0  0.43052770239E+01 -0.14889551051E+02 -0.10509285665E+02  0.72461568788E+02  0.69999998038E+02 0.  0.
         12    1    1    2    0    0 -0.43052770239E+01  0.14889551051E+02  0.10509285665E+02  0.18726431212E+02  0.00000000000E+00 0. -1.
         11    1    3    3    0    0  0.23621163928E+01 -0.12163366639E+02  0.14398299264E+02  0.18995739095E+02  0.51100000000E-03 0. -1.
        -11    1    3    3    0    0  0.12089137614E+02 -0.22107927005E+02 -0.10665774623E+02  0.27361769556E+02  0.51100000000E-03 0.  1.
        -12    1    3    3    0    0 -0.10145976983E+02  0.19381742592E+02 -0.14241810305E+02  0.26104060136E+02  0.00000000000E+00 0.  1.
</event>
<event>
 7    1  0.3162486E-013  0.7246155E+02  0.7816164E-02  0.1226708E+00
        -11   -1    0    0    0    0  0.00000000000E+00  0.00000000000E+00  0.45593999997E+02  0.45594000000E+02  0.51100000000E-03 0.  1.
         11   -1    0    0    0    0 -0.00000000000E+00 -0.00000000000E+00 -0.45593999997E+02  0.45594000000E+02  0.51100000000E-03 0. -1.
    9900012    2    1    2    0    0  0.85153298032E+01 -0.16418936681E+02 -0.29304554603E+01  0.72461550988E+02  0.69999974850E+02 0.  0.
         12    1    1    2    0    0 -0.85153298032E+01  0.16418936681E+02  0.29304554603E+01  0.18726449012E+02  0.00000000000E+00 0. -1.
         11    1    3    3    0    0 -0.98179706165E+01 -0.21602873960E+02  0.18515188175E+02  0.30097988368E+02  0.51100000000E-03 0. -1.
        -11    1    3    3    0    0  0.10849564324E+02 -0.12499714551E+02 -0.56176233209E+01  0.17478947392E+02  0.51100000000E-03 0.  1.
         12    1    3    3    0    0  0.74837360960E+01  0.17683651830E+02 -0.15828020314E+02  0.24884615229E+02  0.00000000000E+00 0. -1.
</event>
<event>
 7    1  0.3162486E-013  0.7246157E+02  0.7816164E-02  0.1226708E+00
        -11   -1    0    0    0    0  0.00000000000E+00  0.00000000000E+00  0.45593999997E+02  0.45594000000E+02  0.51100000000E-03 0. -1.
         11   -1    0    0    0    0 -0.00000000000E+00 -0.00000000000E+00 -0.45593999997E+02  0.45594000000E+02  0.51100000000E-03 0.  1.
    9900012    2    1    2    0    0  0.37041875850E+01 -0.14464052723E+02 -0.11302628654E+02  0.72461568377E+02  0.69999997502E+02 0.  0.
         12    1    1    2    0    0 -0.37041875850E+01  0.14464052723E+02  0.11302628654E+02  0.18726431623E+02  0.00000000000E+00 0. -1.
         11    1    3    3    0    0 -0.68723393421E+01  0.16402928055E+02  0.16274535495E+02  0.24106961705E+02  0.51100000000E-03 0. -1.
        -11    1    3    3    0    0  0.17390947494E+01  0.89785848641E+00  0.28711033318E+01  0.34747424382E+01  0.51100000000E-03 0.  1.
        -12    1    3    3    0    0  0.88374321777E+01 -0.31764839265E+02 -0.30448267481E+02  0.44879864233E+02  0.00000000000E+00 0.  1.
</event>
<event>
 7    1  0.3162486E-013  0.7246158E+02  0.7816164E-02  0.1226708E+00
        -11   -1    0    0    0    0  0.00000000000E+00  0.00000000000E+00  0.45593999997E+02  0.45594000000E+02  0.51100000000E-03 0.  1.
         11   -1    0    0    0    0 -0.00000000000E+00 -0.00000000000E+00 -0.45593999997E+02  0.45594000000E+02  0.51100000000E-03 0. -1.
    9900012    2    1    2    0    0 -0.11085894368E+01  0.11381222181E+02  0.14829625228E+02  0.72461575534E+02  0.70000006826E+02 0.  0.
         12    1    1    2    0    0  0.11085894368E+01 -0.11381222181E+02 -0.14829625228E+02  0.18726424466E+02  0.00000000000E+00 0. -1.
         11    1    3    3    0    0 -0.17953256608E+00 -0.59478185472E+01 -0.15613085638E+01  0.61519478302E+01  0.51100000000E-03 0. -1.
        -11    1    3    3    0    0 -0.12402062308E+02  0.23175247247E+02 -0.16468019635E+02  0.31017719216E+02  0.51100000000E-03 0.  1.
         12    1    3    3    0    0  0.11473005437E+02 -0.58462065179E+01  0.32858953427E+02  0.35291908488E+02  0.00000000000E+00 0. -1.
</event>
<event>
 7    1  0.3162486E-013  0.7246157E+02  0.7816164E-02  0.1226708E+00
        -11   -1    0    0    0    0  0.00000000000E+00  0.00000000000E+00  0.45593999997E+02  0.45594000000E+02  0.51100000000E-03 0.  1.
         11   -1    0    0    0    0 -0.00000000000E+00 -0.00000000000E+00 -0.45593999997E+02  0.45594000000E+02  0.51100000000E-03 0. -1.
    9900012    2    1    2    0    0 -0.10588042659E+02 -0.11043503343E+02 -0.10798773309E+02  0.72461571659E+02  0.70000001778E+02 0.  0.
         12    1    1    2    0    0  0.10588042659E+02  0.11043503343E+02  0.10798773309E+02  0.18726428341E+02  0.00000000000E+00 0. -1.
         11    1    3    3    0    0 -0.34243588795E+01  0.22396292676E+02 -0.20417924136E+02  0.30499373529E+02  0.51100000000E-03 0. -1.
        -11    1    3    3    0    0 -0.69666503208E+01 -0.15659762177E+00 -0.96763472355E+00  0.70352723279E+01  0.51100000000E-03 0.  1.
        -12    1    3    3    0    0 -0.19703345915E+00 -0.33283198396E+02  0.10586785551E+02  0.34926925802E+02  0.00000000000E+00 0.  1.
</event>
<event>
 7    1  0.3162486E-013  0.7246148E+02  0.7816164E-02  0.1226708E+00
        -11   -1    0    0    0    0  0.00000000000E+00  0.00000000000E+00  0.45593999997E+02  0.45594000000E+02  0.51100000000E-03 0. -1.
         11   -1    0    0    0    0 -0.00000000000E+00 -0.00000000000E+00 -0.45593999997E+02  0.45594000000E+02  0.51100000000E-03 0.  1.
    9900012    2    1    2    0    0  0.29330973653E+01  0.81456062065E+00 -0.18477443951E+02  0.72461481260E+02  0.69999884016E+02 0.  0.
         12    1    1    2    0    0 -0.29330973653E+01 -0.81456062065E+00  0.18477443951E+02  0.18726518740E+02  0.00000000000E+00 0. -1.
         11    1    3    3    0    0  0.15265330276E+02 -0.14257875049E+02  0.13836666696E+02  0.25055351821E+02  0.51100000000E-03 0. -1.
        -11    1    3    3    0    0 -0.40452599755E+01 -0.76310735881E+01 -0.24306341873E+01  0.89724798796E+01  0.51100000000E-03 0.  1.
        -12    1    3    3    0    0 -0.82869729350E+01  0.22703509258E+02 -0.29883476460E+02  0.38433649559E+02  0.00000000000E+00 0.  1.
</event>
<event>
 7    1  0.3162486E-013  0.7246157E+02  0.7816164E-02  0.1226708E+00
        -11   -1    0    0    0    0  0.00000000000E+00  0.00000000000E+00  0.45593999997E+02  0.45594000000E+02  0.51100000000E-03 0. -1.
         11   -1    0    0    0    0 -0.00000000000E+00 -0.00000000000E+00 -0.45593999997E+02  0.45594000000E+02  0.51100000000E-03 0.  1.
    9900012    2    1    2    0    0 -0.11099602186E+01  0.28928841428E+01 -0.18468310928E+02  0.72461566840E+02  0.69999995500E+02 0.  0.
         12    1    1    2    0    0  0.11099602186E+01 -0.28928841428E+01  0.18468310928E+02  0.18726433160E+02  0.00000000000E+00 0. -1.
         11    1    3    3    0    0  0.50747372641E+01  0.26599273382E+01  0.16278209755E+02  0.17257122728E+02  0.51100000000E-03 0.  1.
        -11    1    3    3    0    0  0.37906966114E+01  0.61022307874E+01  0.80974119304E+01  0.10824725475E+02  0.51100000000E-03 0. -1.
        -12    1    3    3    0    0 -0.99753940941E+01 -0.58692739828E+01 -0.42843932614E+02  0.44379718637E+02  0.00000000000E+00 0.  1.
</event>
<event>
 7    1  0.3162486E-013  0.7246159E+02  0.7816164E-02  0.1226708E+00
        -11   -1    0    0    0    0  0.00000000000E+00  0.00000000000E+00  0.45593999997E+02  0.45594000000E+02  0.51100000000E-03 0.  1.
         11   -1    0    0    0    0 -0.00000000000E+00 -0.00000000000E+00 -0.45593999997E+02  0.45594000000E+02  0.51100000000E-03 0. -1.
    9900012    2    1    2    0    0  0.88020572948E+01  0.10389413352E+02  0.12855443530E+02  0.72461586815E+02  0.70000021521E+02 0.  0.
         12    1    1    2    0    0 -0.88020572948E+01 -0.10389413352E+02 -0.12855443530E+02  0.18726413185E+02  0.00000000000E+00 0. -1.
         11    1    3    3    0    0  0.17358802551E+02 -0.77835874214E+01 -0.11956666035E+02  0.22469404133E+02  0.51100000000E-03 0. -1.
        -11    1    3    3    0    0 -0.89850310816E+00  0.15857205920E+02 -0.68778250876E+01  0.17307881604E+02  0.51100000000E-03 0.  1.
        -12    1    3    3    0    0 -0.76582421486E+01  0.23157948538E+01  0.31689934653E+02  0.32684301078E+02  0.00000000000E+00 0.  1.
</event>
<event>
 7    1  0.3162486E-013  0.7246155E+02  0.7816164E-02  0.1226708E+00
        -11   -1    0    0    0    0  0.00000000000E+00  0.00000000000E+00  0.45593999997E+02  0.45594000000E+02  0.51100000000E-03 0.  1.
         11   -1    0    0    0    0 -0.00000000000E+00 -0.00000000000E+00 -0.45593999997E+02  0.45594000000E+02  0.51100000000E-03 0. -1.
    9900012    2    1    2    0    0 -0.71884249338E+01  0.12924783581E+02 -0.11487227262E+02  0.72461551489E+02  0.69999975503E+02 0.  0.
         12    1    1    2    0    0  0.71884249338E+01 -0.12924783581E+02  0.11487227262E+02  0.18726448511E+02  0.00000000000E+00 0. -1.
         11    1    3    3    0    0 -0.48971186445E+01  0.23717807791E+01  0.13135203458E+02  0.14217618831E+02  0.51100000000E-03 0. -1.
        -11    1    3    3    0    0 -0.16298655398E+02 -0.40589658718E+01  0.89570932855E+01  0.19035516597E+02  0.51100000000E-03 0.  1.
         12    1    3    3    0    0  0.14007349109E+02  0.14611968674E+02 -0.33579524006E+02  0.39208416061E+02  0.00000000000E+00 0. -1.
</event>
<event>
 7    1  0.3162486E-013  0.7246154E+02  0.7816164E-02  0.1226708E+00
        -11   -1    0    0    0    0  0.00000000000E+00  0.00000000000E+00  0.45593999997E+02  0.45594000000E+02  0.51100000000E-03 0.  1.
         11   -1    0    0    0    0 -0.00000000000E+00 -0.00000000000E+00 -0.45593999997E+02  0.45594000000E+02  0.51100000000E-03 0. -1.
    9900012    2    1    2    0    0  0.81860219702E+01 -0.56506353128E+01  0.15866311812E+02  0.72461535153E+02  0.69999954222E+02 0.  0.
         12    1    1    2    0    0 -0.81860219702E+01  0.56506353128E+01 -0.15866311812E+02  0.18726464847E+02  0.00000000000E+00 0. -1.
         11    1    3    3    0    0  0.26522053803E+01  0.10224031035E+02 -0.61214372839E+00  0.10580157096E+02  0.51100000000E-03 0. -1.
        -11    1    3    3    0    0 -0.78607181760E+01  0.77653987531E+01  0.29682105373E+02  0.31672064783E+02  0.51100000000E-03 0.  1.
         12    1    3    3    0    0  0.13394534766E+02 -0.23640065101E+02 -0.13203649832E+02  0.30209313273E+02  0.00000000000E+00 0. -1.
</event>
<event>
 7    1  0.3162486E-013  0.7246101E+02  0.7816164E-02  0.1226709E+00
        -11   -1    0    0    0    0  0.00000000000E+00  0.00000000000E+00  0.45593999997E+02  0.45594000000E+02  0.51100000000E-03 0. -1.
         11   -1    0    0    0    0 -0.00000000000E+00 -0.00000000000E+00 -0.45593999997E+02  0.45594000000E+02  0.51100000000E-03 0.  1.
    9900012    2    1    2    0    0 -0.15975409999E+02  0.21204846624E+01  0.95388597656E+01  0.72461013444E+02  0.69999274595E+02 0.  0.
         12    1    1    2    0    0  0.15975409999E+02 -0.21204846624E+01 -0.95388597656E+01  0.18726986556E+02  0.00000000000E+00 0. -1.
         11    1    3    3    0    0  0.21719099525E+01 -0.28901362851E+01 -0.76100523869E+01  0.84251396535E+01  0.51100000000E-03 0. -1.
        -11    1    3    3    0    0 -0.36007320053E+02  0.14073118950E+02  0.16210701323E+01  0.38693767496E+02  0.51100000000E-03 0.  1.
         12    1    3    3    0    0  0.17860000101E+02 -0.90624980028E+01  0.15527842020E+02  0.25342106295E+02  0.00000000000E+00 0. -1.
</event>
<event>
 7    1  0.3162486E-013  0.7246160E+02  0.7816164E-02  0.1226708E+00
        -11   -1    0    0    0    0  0.00000000000E+00  0.00000000000E+00  0.45593999997E+02  0.45594000000E+02  0.51100000000E-03 0.  1.
         11   -1    0    0    0    0 -0.00000000000E+00 -0.00000000000E+00 -0.45593999997E+02  0.45594000000E+02  0.51100000000E-03 0. -1.
    9900012    2    1    2    0    0  0.13523271912E+02  0.49280847461E+01  0.11979697390E+02  0.72461600132E+02  0.70000038869E+02 0.  0.
         12    1    1    2    0    0 -0.13523271912E+02 -0.49280847461E+01 -0.11979697390E+02  0.18726399868E+02  0.00000000000E+00 0. -1.
         11    1    3    3    0    0  0.27475248208E+02 -0.44042771881E+01  0.17327803392E+02  0.32780172243E+02  0.51100000000E-03 0. -1.
        -11    1    3    3    0    0 -0.15234848158E+02  0.10023995637E+01  0.12637188336E+02  0.19819281838E+02  0.51100000000E-03 0.  1.
         12    1    3    3    0    0  0.12828718620E+01  0.83299623705E+01 -0.17985294338E+02  0.19862146051E+02  0.00000000000E+00 0. -1.
</event>
<event>
 7    1  0.3162486E-013  0.7246155E+02  0.7816164E-02  0.1226708E+00
        -11   -1    0    0    0    0  0.00000000000E+00  0.00000000000E+00  0.45593999997E+02  0.45594000000E+02  0.51100000000E-03 0.  1.
         11   -1    0    0    0    0 -0.00000000000E+00 -0.00000000000E+00 -0.45593999997E+02  0.45594000000E+02  0.51100000000E-03 0. -1.
    9900012    2    1    2    0    0  0.14771861096E+02 -0.72703065924E+01  0.89227053762E+01  0.72461550539E+02  0.69999974265E+02 0.  0.
         12    1    1    2    0    0 -0.14771861096E+02  0.72703065924E+01 -0.89227053762E+01  0.18726449461E+02  0.00000000000E+00 0. -1.
         11    1    3    3    0    0 -0.32312297259E+01 -0.25284598796E+02  0.66933886391E+01  0.26354377882E+02  0.51100000000E-03 0. -1.
        -11    1    3    3    0    0  0.89438034301E+01 -0.77330406502E+01 -0.10662591623E+02  0.15921130546E+02  0.51100000000E-03 0.  1.
        -12    1    3    3    0    0  0.90592873918E+01  0.25747332854E+02  0.12891908360E+02  0.30186042110E+02  0.00000000000E+00 0.  1.
</event>
<event>
 7    1  0.3162486E-013  0.7246162E+02  0.7816164E-02  0.1226708E+00
        -11   -1    0    0    0    0  0.00000000000E+00  0.00000000000E+00  0.45593999997E+02  0.45594000000E+02  0.51100000000E-03 0.  1.
         11   -1    0    0    0    0 -0.00000000000E+00 -0.00000000000E+00 -0.45593999997E+02  0.45594000000E+02  0.51100000000E-03 0. -1.
    9900012    2    1    2    0    0  0.65247539965E+01 -0.80977214122E+01  0.15573436725E+02  0.72461616521E+02  0.70000060218E+02 0.  0.
         12    1    1    2    0    0 -0.65247539965E+01  0.80977214122E+01 -0.15573436725E+02  0.18726383479E+02  0.00000000000E+00 0. -1.
         11    1    3    3    0    0 -0.14861960916E+02  0.86533430685E+01 -0.69828753662E+01  0.18561217018E+02  0.51100000000E-03 0. -1.
        -11    1    3    3    0    0  0.90351760038E+00  0.12014022059E+02  0.12092578420E+02  0.17069959672E+02  0.51100000000E-03 0.  1.
         12    1    3    3    0    0  0.20483197313E+02 -0.28765086540E+02  0.10463733671E+02  0.36830439831E+02  0.00000000000E+00 0. -1.
</event>
<event>
 7    1  0.3162486E-013  0.7246159E+02  0.7816164E-02  0.1226708E+00
        -11   -1    0    0    0    0  0.00000000000E+00  0.00000000000E+00  0.45593999997E+02  0.45594000000E+02  0.51100000000E-03 0.  1.
         11   -1    0    0    0    0 -0.00000000000E+00 -0.00000000000E+00 -0.45593999997E+02  0.45594000000E+02  0.51100000000E-03 0. -1.
    9900012    2    1    2    0    0  0.38785716330E+00  0.71998407450E+01  0.17282658999E+02  0.72461589719E+02  0.70000025304E+02 0.  0.
         12    1    1    2    0    0 -0.38785716330E+00 -0.71998407450E+01 -0.17282658999E+02  0.18726410281E+02  0.00000000000E+00 0. -1.
         11    1    3    3    0    0 -0.14444296267E+02 -0.17941417720E+02  0.42278220997E+01  0.23418083705E+02  0.51100000000E-03 0. -1.
        -11    1    3    3    0    0 -0.20726122894E+01 -0.88552845459E+01  0.72229177087E+00  0.91232391044E+01  0.51100000000E-03 0.  1.
        -12    1    3    3    0    0  0.16904765719E+02  0.33996543011E+02  0.12332545129E+02  0.39920266909E+02  0.00000000000E+00 0.  1.
</event>
<event>
 7    1  0.3162486E-013  0.7246148E+02  0.7816164E-02  0.1226708E+00
        -11   -1    0    0    0    0  0.00000000000E+00  0.00000000000E+00  0.45593999997E+02  0.45594000000E+02  0.51100000000E-03 0.  1.
         11   -1    0    0    0    0 -0.00000000000E+00 -0.00000000000E+00 -0.45593999997E+02  0.45594000000E+02  0.51100000000E-03 0. -1.
    9900012    2    1    2    0    0 -0.10837535210E+02  0.41420581355E+01  0.14699441953E+02  0.72461483806E+02  0.69999887333E+02 0.  0.
         12    1    1    2    0    0  0.10837535210E+02 -0.41420581355E+01 -0.14699441953E+02  0.18726516194E+02  0.00000000000E+00 0. -1.
         11    1    3    3    0    0  0.32935686445E+00  0.68837439695E+01  0.34687390603E+01  0.77153456119E+01  0.51100000000E-03 0. -1.
        -11    1    3    3    0    0 -0.28848716990E+01  0.25310985835E+02  0.21917063649E+02  0.33605448486E+02  0.51100000000E-03 0.  1.
         12    1    3    3    0    0 -0.82820203759E+01 -0.28052671669E+02 -0.10686360756E+02  0.31140689708E+02  0.00000000000E+00 0. -1.
</event>
<event>
 7    1  0.3162486E-013  0.7246156E+02  0.7816164E-02  0.1226708E+00
        -11   -1    0    0    0    0  0.00000000000E+00  0.00000000000E+00  0.45593999997E+02  0.45594000000E+02  0.51100000000E-03 0. -1.
         11   -1    0    0    0    0 -0.00000000000E+00 -0.00000000000E+00 -0.45593999997E+02  0.45594000000E+02  0.51100000000E-03 0.  1.
    9900012    2    1    2    0    0  0.15080619384E+02  0.10725901304E+02 -0.28651979427E+01  0.72461564166E+02  0.69999992017E+02 0.  0.
         12    1    1    2    0    0 -0.15080619384E+02 -0.10725901304E+02  0.28651979427E+01  0.18726435834E+02  0.00000000000E+00 0. -1.
         11    1    3    3    0    0  0.52421984103E+01  0.21516742545E+02 -0.17172669250E+02  0.28024122169E+02  0.51100000000E-03 0. -1.
        -11    1    3    3    0    0 -0.39863077710E+01  0.13381327744E+02  0.71464605248E+01  0.15685103766E+02  0.51100000000E-03 0.  1.
         12    1    3    3    0    0  0.13824728744E+02 -0.24172168986E+02  0.71610107823E+01  0.28752338231E+02  0.00000000000E+00 0. -1.
</event>
<event>
 7    1  0.3162486E-013  0.7246151E+02  0.7816164E-02  0.1226708E+00
        -11   -1    0    0    0    0  0.00000000000E+00  0.00000000000E+00  0.45593999997E+02  0.45594000000E+02  0.51100000000E-03 0.  1.
         11   -1    0    0    0    0 -0.00000000000E+00 -0.00000000000E+00 -0.45593999997E+02  0.45594000000E+02  0.51100000000E-03 0. -1.
    9900012    2    1    2    0    0  0.11599781225E+02  0.14699707175E+02  0.21205293451E+00  0.72461513893E+02  0.69999926526E+02 0.  0.
         12    1    1    2    0    0 -0.11599781225E+02 -0.14699707175E+02 -0.21205293451E+00  0.18726486107E+02  0.00000000000E+00 0. -1.
         11    1    3    3    0    0 -0.18170419724E+02  0.24016971322E+02  0.64390036732E+01  0.30796750364E+02  0.51100000000E-03 0. -1.
        -11    1    3    3    0    0  0.10327956712E+02  0.31092876630E+01 -0.13676455789E+02  0.17417801320E+02  0.51100000000E-03 0.  1.
        -12    1    3    3    0    0  0.19442244237E+02 -0.12426551810E+02  0.74495050499E+01  0.24246962209E+02  0.00000000000E+00 0.  1.
</event>
<event>
 7    1  0.3162486E-013  0.7246152E+02  0.7816164E-02  0.1226708E+00
        -11   -1    0    0    0    0  0.00000000000E+00  0.00000000000E+00  0.45593999997E+02  0.45594000000E+02  0.51100000000E-03 0. -1.
         11   -1    0    0    0    0 -0.00000000000E+00 -0.00000000000E+00 -0.45593999997E+02  0.45594000000E+02  0.51100000000E-03 0.  1.
    9900012    2    1    2    0    0 -0.75982654560E+01  0.35515625792E+01 -0.16743176079E+02  0.72461516616E+02  0.69999930075E+02 0.  0.
         12    1    1    2    0    0  0.75982654560E+01 -0.35515625792E+01  0.16743176079E+02  0.18726483384E+02  0.00000000000E+00 0. -1.
         11    1    3    3    0    0 -0.19661912617E+02  0.29616765265E+01 -0.95090059893E+01  0.22040497516E+02  0.51100000000E-03 0. -1.
        -11    1    3    3    0    0 -0.44322426510E+01  0.21120918440E+02 -0.10287634949E+02  0.23907601380E+02  0.51100000000E-03 0.  1.
         12    1    3    3    0    0  0.16495889812E+02 -0.20531032387E+02  0.30534648586E+01  0.26513417720E+02  0.00000000000E+00 0. -1.
</event>
<event>
 7    1  0.3162486E-013  0.7246158E+02  0.7816164E-02  0.1226708E+00
        -11   -1    0    0    0    0  0.00000000000E+00  0.00000000000E+00  0.45593999997E+02  0.45594000000E+02  0.51100000000E-03 0. -1.
         11   -1    0    0    0    0 -0.00000000000E+00 -0.00000000000E+00 -0.45593999997E+02  0.45594000000E+02  0.51100000000E-03 0.  1.
    9900012    2    1    2    0    0  0.16571038808E+02  0.75370157535E+01 -0.43901012841E+01  0.72461576878E+02  0.70000008577E+02 0.  0.
         12    1    1    2    0    0 -0.16571038808E+02 -0.75370157535E+01  0.43901012841E+01  0.18726423122E+02  0.00000000000E+00 0. -1.
         11    1    3    3    0    0 -0.13423510994E+02  0.12229579197E+02 -0.53701333838E+01  0.18936514662E+02  0.51100000000E-03 0.  1.
        -11    1    3    3    0    0  0.56298234988E+01  0.42135666144E+01 -0.19336072894E+02  0.20575052162E+02  0.51100000000E-03 0. -1.
         12    1    3    3    0    0  0.24364726303E+02 -0.89061300581E+01  0.20316104994E+02  0.32950010054E+02  0.00000000000E+00 0. -1.
</event>
<event>
 7    1  0.3162486E-013  0.7246159E+02  0.7816164E-02  0.1226708E+00
        -11   -1    0    0    0    0  0.00000000000E+00  0.00000000000E+00  0.45593999997E+02  0.45594000000E+02  0.51100000000E-03 0.  1.
         11   -1    0    0    0    0 -0.00000000000E+00 -0.00000000000E+00 -0.45593999997E+02  0.45594000000E+02  0.51100000000E-03 0. -1.
    9900012    2    1    2    0    0 -0.24386198685E+01 -0.14552098504E+02 -0.11531168811E+02  0.72461593727E+02  0.70000030526E+02 0.  0.
         12    1    1    2    0    0  0.24386198685E+01  0.14552098504E+02  0.11531168811E+02  0.18726406273E+02  0.00000000000E+00 0. -1.
         11    1    3    3    0    0  0.16221704547E+02 -0.28011377332E+01 -0.17301954347E+02  0.23881953344E+02  0.51100000000E-03 0. -1.
        -11    1    3    3    0    0  0.12752268758E+02 -0.46816434994E+01 -0.52263835984E+01  0.14555178807E+02  0.51100000000E-03 0.  1.
        -12    1    3    3    0    0 -0.31412593173E+02 -0.70693172717E+01  0.10997169135E+02  0.34024461576E+02  0.00000000000E+00 0.  1.
</event>
<event>
 7    1  0.3162486E-013  0.7246154E+02  0.7816164E-02  0.1226708E+00
        -11   -1    0    0    0    0  0.00000000000E+00  0.00000000000E+00  0.45593999997E+02  0.45594000000E+02  0.51100000000E-03 0.  1.
         11   -1    0    0    0    0 -0.00000000000E+00 -0.00000000000E+00 -0.45593999997E+02  0.45594000000E+02  0.51100000000E-03 0. -1.
    9900012    2    1    2    0    0 -0.39613493395E+01  0.95429945382E+01  0.15617909669E+02  0.72461544496E+02  0.69999966392E+02 0.  0.
         12    1    1    2    0    0  0.39613493395E+01 -0.95429945382E+01 -0.15617909669E+02  0.18726455504E+02  0.00000000000E+00 0. -1.
         11    1    3    3    0    0  0.35332063123E+01 -0.14103181134E+02  0.17139816963E+01  0.14639706228E+02  0.51100000000E-03 0. -1.
        -11    1    3    3    0    0 -0.68991577142E-01 -0.85665522031E+01  0.22152055272E+02  0.23750876395E+02  0.51100000000E-03 0.  1.
         12    1    3    3    0    0 -0.74255640747E+01  0.32212727875E+02 -0.82481272997E+01  0.34070961873E+02  0.00000000000E+00 0. -1.
</event>
<event>
 7    1  0.3162486E-013  0.7246158E+02  0.7816164E-02  0.1226708E+00
        -11   -1    0    0    0    0  0.00000000000E+00  0.00000000000E+00  0.45593999997E+02  0.45594000000E+02  0.51100000000E-03 0. -1.
         11   -1    0    0    0    0 -0.00000000000E+00 -0.00000000000E+00 -0.45593999997E+02  0.45594000000E+02  0.51100000000E-03 0.  1.
    9900012    2    1    2    0    0  0.14718712822E+02 -0.10527129880E+02 -0.48184749693E+01  0.72461583587E+02  0.70000017316E+02 0.  0.
         12    1    1    2    0    0 -0.14718712822E+02  0.10527129880E+02  0.48184749693E+01  0.18726416413E+02  0.00000000000E+00 0. -1.
         11    1    3    3    0    0 -0.11982662806E+02  0.15233921266E+02 -0.17250921301E+02  0.25947077890E+02  0.51100000000E-03 0. -1.
        -11    1    3    3    0    0 -0.23899477322E+01  0.22340954540E+01 -0.17650103105E+01  0.37172966410E+01  0.51100000000E-03 0.  1.
        -12    1    3    3    0    0  0.29091323359E+02 -0.27995146600E+02  0.14197456642E+02  0.42797209056E+02  0.00000000000E+00 0.  1.
</event>
<event>
 7    1  0.3162486E-013  0.7246148E+02  0.7816164E-02  0.1226708E+00
        -11   -1    0    0    0    0  0.00000000000E+00  0.00000000000E+00  0.45593999997E+02  0.45594000000E+02  0.51100000000E-03 0. -1.
         11   -1    0    0    0    0 -0.00000000000E+00 -0.00000000000E+00 -0.45593999997E+02  0.45594000000E+02  0.51100000000E-03 0.  1.
    9900012    2    1    2    0    0 -0.28917377662E+01  0.16733197817E+02 -0.78943333370E+01  0.72461479893E+02  0.69999882235E+02 0.  0.
         12    1    1    2    0    0  0.28917377662E+01 -0.16733197817E+02  0.78943333370E+01  0.18726520107E+02  0.00000000000E+00 0. -1.
         11    1    3    3    0    0 -0.11682822540E+02 -0.13799677514E+02 -0.49723539068E+01  0.18752166425E+02  0.51100000000E-03 0. -1.
        -11    1    3    3    0    0 -0.12478137344E+02  0.14709502865E+02 -0.15138388920E+02  0.24520281513E+02  0.51100000000E-03 0.  1.
        -12    1    3    3    0    0  0.21269222117E+02  0.15823372466E+02  0.12216409490E+02  0.29189031955E+02  0.00000000000E+00 0.  1.
</event>
<event>
 7    1  0.3162486E-013  0.7246155E+02  0.7816164E-02  0.1226708E+00
        -11   -1    0    0    0    0  0.00000000000E+00  0.00000000000E+00  0.45593999997E+02  0.45594000000E+02  0.51100000000E-03 0. -1.
         11   -1    0    0    0    0 -0.00000000000E+00 -0.00000000000E+00 -0.45593999997E+02  0.45594000000E+02  0.51100000000E-03 0.  1.
    9900012    2    1    2    0    0  0.70782193750E+01  0.17329759447E+02 -0.50799049336E+00  0.72461553290E+02  0.69999977849E+02 0.  0.
         12    1    1    2    0    0 -0.70782193750E+01 -0.17329759447E+02  0.50799049336E+00  0.18726446710E+02  0.00000000000E+00 0. -1.
         11    1    3    3    0    0  0.27831884234E+02  0.16223794721E+01 -0.20266453007E+01  0.27952695516E+02  0.51100000000E-03 0.  1.
        -11    1    3    3    0    0 -0.11570179715E+02 -0.10013482383E+02 -0.55850002289E+01  0.16288987564E+02  0.51100000000E-03 0. -1.
        -12    1    3    3    0    0 -0.91834851442E+01  0.25720862358E+02  0.71036550362E+01  0.28219870211E+02  0.00000000000E+00 0.  1.
</event>
<event>
 7    1  0.3162486E-013  0.7246175E+02  0.7816164E-02  0.1226708E+00
        -11   -1    0    0    0    0  0.00000000000E+00  0.00000000000E+00  0.45593999997E+02  0.45594000000E+02  0.51100000000E-03 0. -1.
         11   -1    0    0    0    0 -0.00000000000E+00 -0.00000000000E+00 -0.45593999997E+02  0.45594000000E+02  0.51100000000E-03 0.  1.
    9900012    2    1    2    0    0  0.65733441451E+01 -0.12675779232E+02 -0.12115618059E+02  0.72461750153E+02  0.70000234299E+02 0.  0.
         12    1    1    2    0    0 -0.65733441451E+01  0.12675779232E+02  0.12115618059E+02  0.18726249847E+02  0.00000000000E+00 0. -1.
         11    1    3    3    0    0  0.93427894416E+01 -0.18791734014E+00  0.24054737988E+02  0.25806073847E+02  0.51100000000E-03 0. -1.
        -11    1    3    3    0    0  0.75643714817E+00  0.49741880373E+00  0.40990115222E+01  0.41977992265E+01  0.51100000000E-03 0.  1.
        -12    1    3    3    0    0 -0.35258824446E+01 -0.12985280695E+02 -0.40269367569E+02  0.42457877080E+02  0.00000000000E+00 0.  1.
</event>
<event>
 7    1  0.3162486E-013  0.7246157E+02  0.7816164E-02  0.1226708E+00
        -11   -1    0    0    0    0  0.00000000000E+00  0.00000000000E+00  0.45593999997E+02  0.45594000000E+02  0.51100000000E-03 0.  1.
         11   -1    0    0    0    0 -0.00000000000E+00 -0.00000000000E+00 -0.45593999997E+02  0.45594000000E+02  0.51100000000E-03 0. -1.
    9900012    2    1    2    0    0  0.83535007052E+01  0.18901385418E+01  0.16653092423E+02  0.72461572552E+02  0.70000002941E+02 0.  0.
         12    1    1    2    0    0 -0.83535007052E+01 -0.18901385418E+01 -0.16653092423E+02  0.18726427448E+02  0.00000000000E+00 0. -1.
         11    1    3    3    0    0  0.53169869881E+01 -0.49289492497E+01 -0.66056208756E+01  0.98081149438E+01  0.51100000000E-03 0. -1.
        -11    1    3    3    0    0 -0.18184174965E+02 -0.15269077341E+02  0.21403064484E+02  0.31967172405E+02  0.51100000000E-03 0.  1.
         12    1    3    3    0    0  0.21220688682E+02  0.22088165132E+02  0.18556488138E+01  0.30686285203E+02  0.00000000000E+00 0. -1.
</event>
<event>
 7    1  0.3162486E-013  0.7246159E+02  0.7816164E-02  0.1226708E+00
        -11   -1    0    0    0    0  0.00000000000E+00  0.00000000000E+00  0.45593999997E+02  0.45594000000E+02  0.51100000000E-03 0.  1.
         11   -1    0    0    0    0 -0.00000000000E+00 -0.00000000000E+00 -0.45593999997E+02  0.45594000000E+02  0.51100000000E-03 0. -1.
    9900012    2    1    2    0    0 -0.11247124243E+02 -0.97008927595E+01  0.11404975085E+02  0.72461586014E+02  0.70000020478E+02 0.  0.
         12    1    1    2    0    0  0.11247124243E+02  0.97008927595E+01 -0.11404975085E+02  0.18726413986E+02  0.00000000000E+00 0. -1.
         11    1    3    3    0    0  0.61742151160E+01 -0.22694480364E+01 -0.19363615052E+02  0.20450450235E+02  0.51100000000E-03 0. -1.
        -11    1    3    3    0    0 -0.62404373161E+01  0.58485845288E+01 -0.66024876681E+01  0.10804713904E+02  0.51100000000E-03 0.  1.
        -12    1    3    3    0    0 -0.11180902043E+02 -0.13280029252E+02  0.37371077805E+02  0.41206421875E+02  0.00000000000E+00 0.  1.
</event>
<event>
 7    1  0.3162486E-013  0.7246141E+02  0.7816164E-02  0.1226708E+00
        -11   -1    0    0    0    0  0.00000000000E+00  0.00000000000E+00  0.45593999997E+02  0.45594000000E+02  0.51100000000E-03 0. -1.
         11   -1    0    0    0    0 -0.00000000000E+00 -0.00000000000E+00 -0.45593999997E+02  0.45594000000E+02  0.51100000000E-03 0.  1.
    9900012    2    1    2    0    0 -0.10063984775E+02 -0.15770825338E+02  0.82615215033E+00  0.72461407977E+02  0.69999788552E+02 0.  0.
         12    1    1    2    0    0  0.10063984775E+02  0.15770825338E+02 -0.82615215033E+00  0.18726592023E+02  0.00000000000E+00 0. -1.
         11    1    3    3    0    0 -0.13635019206E+02  0.10589765889E+02  0.63377646034E+01  0.18390871398E+02  0.51100000000E-03 0. -1.
        -11    1    3    3    0    0 -0.19222822893E+02 -0.13260099142E+02  0.77757071608E+01  0.24613182878E+02  0.51100000000E-03 0.  1.
         12    1    3    3    0    0  0.22793857325E+02 -0.13100492085E+02 -0.13287319614E+02  0.29457353702E+02  0.00000000000E+00 0. -1.
</event>
<event>
 7    1  0.3162486E-013  0.7246154E+02  0.7816164E-02  0.1226708E+00
        -11   -1    0    0    0    0  0.00000000000E+00  0.00000000000E+00  0.45593999997E+02  0.45594000000E+02  0.51100000000E-03 0. -1.
         11   -1    0    0    0    0 -0.00000000000E+00 -0.00000000000E+00 -0.45593999997E+02  0.45594000000E+02  0.51100000000E-03 0.  1.
    9900012    2    1    2    0    0 -0.92133815383E+01  0.15510470694E+02  0.50218650410E+01  0.72461542006E+02  0.69999963149E+02 0.  0.
         12    1    1    2    0    0  0.92133815383E+01 -0.15510470694E+02 -0.50218650410E+01  0.18726457994E+02  0.00000000000E+00 0. -1.
         11    1    3    3    0    0 -0.17371591764E+02  0.69848459035E+01 -0.81114121725E+01  0.20404785723E+02  0.51100000000E-03 0. -1.
        -11    1    3    3    0    0 -0.18217295075E+02  0.94030333872E+01 -0.35917222844E+01  0.20813153196E+02  0.51100000000E-03 0.  1.
         12    1    3    3    0    0  0.26375505300E+02 -0.87740859668E+00  0.16724999498E+02  0.31243603087E+02  0.00000000000E+00 0. -1.
</event>
<event>
 7    1  0.3162486E-013  0.7246157E+02  0.7816164E-02  0.1226708E+00
        -11   -1    0    0    0    0  0.00000000000E+00  0.00000000000E+00  0.45593999997E+02  0.45594000000E+02  0.51100000000E-03 0.  1.
         11   -1    0    0    0    0 -0.00000000000E+00 -0.00000000000E+00 -0.45593999997E+02  0.45594000000E+02  0.51100000000E-03 0. -1.
    9900012    2    1    2    0    0  0.30477862916E+01 -0.18436550476E+02  0.12181266013E+01  0.72461568755E+02  0.69999997995E+02 0.  0.
         12    1    1    2    0    0 -0.30477862916E+01  0.18436550476E+02 -0.12181266013E+01  0.18726431245E+02  0.00000000000E+00 0. -1.
         11    1    3    3    0    0  0.24517738909E+01 -0.14284444810E+02  0.12888016535E+02  0.19394780979E+02  0.51100000000E-03 0. -1.
        -11    1    3    3    0    0  0.18317670175E+02 -0.16332748562E+02  0.59652644050E+01  0.25256288245E+02  0.51100000000E-03 0.  1.
         12    1    3    3    0    0 -0.17721657775E+02  0.12180642896E+02 -0.17635154339E+02  0.27810499531E+02  0.00000000000E+00 0. -1.
</event>
<event>
 7    1  0.3162486E-013  0.7246157E+02  0.7816164E-02  0.1226708E+00
        -11   -1    0    0    0    0  0.00000000000E+00  0.00000000000E+00  0.45593999997E+02  0.45594000000E+02  0.51100000000E-03 0. -1.
         11   -1    0    0    0    0 -0.00000000000E+00 -0.00000000000E+00 -0.45593999997E+02  0.45594000000E+02  0.51100000000E-03 0.  1.
    9900012    2    1    2    0    0 -0.15956462752E+02  0.56765742868E+01 -0.79904405447E+01  0.72461565762E+02  0.69999994095E+02 0.  0.
         12    1    1    2    0    0  0.15956462752E+02 -0.56765742868E+01  0.79904405447E+01  0.18726434238E+02  0.00000000000E+00 0. -1.
         11    1    3    3    0    0 -0.90263141297E+01 -0.16742908487E+02  0.31537307101E+01  0.19280698873E+02  0.51100000000E-03 0. -1.
        -11    1    3    3    0    0 -0.92384238418E+01 -0.12437163898E+02  0.24702527348E+01  0.15688647798E+02  0.51100000000E-03 0.  1.
         12    1    3    3    0    0  0.23082752196E+01  0.34856646672E+02 -0.13614423990E+02  0.37492219090E+02  0.00000000000E+00 0. -1.
</event>
<event>
 7    1  0.3162486E-013  0.7246160E+02  0.7816164E-02  0.1226708E+00
        -11   -1    0    0    0    0  0.00000000000E+00  0.00000000000E+00  0.45593999997E+02  0.45594000000E+02  0.51100000000E-03 0.  1.
         11   -1    0    0    0    0 -0.00000000000E+00 -0.00000000000E+00 -0.45593999997E+02  0.45594000000E+02  0.51100000000E-03 0. -1.
    9900012    2    1    2    0    0  0.15692237612E+02  0.37005652769E+01  0.95256193808E+01  0.72461603411E+02  0.70000043140E+02 0.  0.
         12    1    1    2    0    0 -0.15692237612E+02 -0.37005652769E+01 -0.95256193808E+01  0.18726396589E+02  0.00000000000E+00 0. -1.
         11    1    3    3    0    0 -0.18718083041E+02 -0.78611064689E+01  0.10313448287E+02  0.22771272329E+02  0.51100000000E-03 0. -1.
        -11    1    3    3    0    0  0.41902473651E+01 -0.69586587924E+01 -0.10179772054E+02  0.13023396811E+02  0.51100000000E-03 0.  1.
        -12    1    3    3    0    0  0.30220073287E+02  0.18520330538E+02  0.93919431474E+01  0.36666934271E+02  0.00000000000E+00 0.  1.
</event>
<event>
 7    1  0.3162486E-013  0.7246157E+02  0.7816164E-02  0.1226708E+00
        -11   -1    0    0    0    0  0.00000000000E+00  0.00000000000E+00  0.45593999997E+02  0.45594000000E+02  0.51100000000E-03 0.  1.
         11   -1    0    0    0    0 -0.00000000000E+00 -0.00000000000E+00 -0.45593999997E+02  0.45594000000E+02  0.51100000000E-03 0. -1.
    9900012    2    1    2    0    0  0.66882749386E+01  0.13695164675E+02  0.10880661290E+02  0.72461565549E+02  0.69999993818E+02 0.  0.
         12    1    1    2    0    0 -0.66882749386E+01 -0.13695164675E+02 -0.10880661290E+02  0.18726434451E+02  0.00000000000E+00 0. -1.
         11    1    3    3    0    0 -0.93825578052E+01  0.24894746176E+02 -0.20746372049E+01  0.26684918923E+02  0.51100000000E-03 0. -1.
        -11    1    3    3    0    0  0.74932212936E+01  0.47151515572E+01 -0.12029893569E+02  0.14936510942E+02  0.51100000000E-03 0.  1.
        -12    1    3    3    0    0  0.85776114501E+01 -0.15914733058E+02  0.24985192065E+02  0.30840135684E+02  0.00000000000E+00 0.  1.
</event>
<event>
 7    1  0.3162486E-013  0.7246153E+02  0.7816164E-02  0.1226708E+00
        -11   -1    0    0    0    0  0.00000000000E+00  0.00000000000E+00  0.45593999997E+02  0.45594000000E+02  0.51100000000E-03 0.  1.
         11   -1    0    0    0    0 -0.00000000000E+00 -0.00000000000E+00 -0.45593999997E+02  0.45594000000E+02  0.51100000000E-03 0. -1.
    9900012    2    1    2    0    0 -0.13034809378E+02 -0.10727019847E+02  0.81058879461E+01  0.72461531307E+02  0.69999949212E+02 0.  0.
         12    1    1    2    0    0  0.13034809378E+02  0.10727019847E+02 -0.81058879461E+01  0.18726468693E+02  0.00000000000E+00 0. -1.
         11    1    3    3    0    0  0.17281502377E+01  0.10693084356E+02 -0.13969162731E+02  0.17676709647E+02  0.51100000000E-03 0. -1.
        -11    1    3    3    0    0  0.71852278156E+01 -0.26387002510E+02  0.91721125685E+01  0.28844913754E+02  0.51100000000E-03 0.  1.
        -12    1    3    3    0    0 -0.21948187431E+02  0.49668983076E+01  0.12902938109E+02  0.25939907906E+02  0.00000000000E+00 0.  1.
</event>
<event>
 7    1  0.3162486E-013  0.7246151E+02  0.7816164E-02  0.1226708E+00
        -11   -1    0    0    0    0  0.00000000000E+00  0.00000000000E+00  0.45593999997E+02  0.45594000000E+02  0.51100000000E-03 0.  1.
         11   -1    0    0    0    0 -0.00000000000E+00 -0.00000000000E+00 -0.45593999997E+02  0.45594000000E+02  0.51100000000E-03 0. -1.
    9900012    2    1    2    0    0 -0.13353657537E+01 -0.35363240478E+01  0.18341013913E+02  0.72461505912E+02  0.69999916130E+02 0.  0.
         12    1    1    2    0    0  0.13353657537E+01  0.35363240478E+01 -0.18341013913E+02  0.18726494088E+02  0.00000000000E+00 0. -1.
         11    1    3    3    0    0 -0.51187086232E+01  0.76489190796E+01 -0.56308287045E+01  0.10789502918E+02  0.51100000000E-03 0. -1.
        -11    1    3    3    0    0 -0.78600429136E+01  0.19583193810E+02  0.23198469243E+00  0.21102975419E+02  0.51100000000E-03 0.  1.
        -12    1    3    3    0    0  0.11643385783E+02 -0.30768436937E+02  0.23739857925E+02  0.40569027575E+02  0.00000000000E+00 0.  1.
</event>
<event>
 7    1  0.3162486E-013  0.7246157E+02  0.7816164E-02  0.1226708E+00
        -11   -1    0    0    0    0  0.00000000000E+00  0.00000000000E+00  0.45593999997E+02  0.45594000000E+02  0.51100000000E-03 0.  1.
         11   -1    0    0    0    0 -0.00000000000E+00 -0.00000000000E+00 -0.45593999997E+02  0.45594000000E+02  0.51100000000E-03 0. -1.
    9900012    2    1    2    0    0 -0.15893995920E+02 -0.95112927197E+01  0.27559415103E+01  0.72461574577E+02  0.70000005579E+02 0.  0.
         12    1    1    2    0    0  0.15893995920E+02  0.95112927197E+01 -0.27559415103E+01  0.18726425423E+02  0.00000000000E+00 0. -1.
         11    1    3    3    0    0  0.14551438132E+02  0.83156436711E+01 -0.14915757098E+02  0.22435999899E+02  0.51100000000E-03 0. -1.
        -11    1    3    3    0    0  0.37592738859E+01 -0.73179168317E+01  0.10820464367E+02  0.13592884031E+02  0.51100000000E-03 0.  1.
        -12    1    3    3    0    0 -0.34204707938E+02 -0.10509019559E+02  0.68512342416E+01  0.36432690648E+02  0.00000000000E+00 0.  1.
</event>
<event>
 7    1  0.3162486E-013  0.7246157E+02  0.7816164E-02  0.1226708E+00
        -11   -1    0    0    0    0  0.00000000000E+00  0.00000000000E+00  0.45593999997E+02  0.45594000000E+02  0.51100000000E-03 0.  1.
         11   -1    0    0    0    0 -0.00000000000E+00 -0.00000000000E+00 -0.45593999997E+02  0.45594000000E+02  0.51100000000E-03 0. -1.
    9900012    2    1    2    0    0 -0.19870058898E+01  0.44519901435E+01  0.18080677045E+02  0.72461567050E+02  0.69999995774E+02 0.  0.
         12    1    1    2    0    0  0.19870058898E+01 -0.44519901435E+01 -0.18080677045E+02  0.18726432950E+02  0.00000000000E+00 0. -1.
         11    1    3    3    0    0  0.12853404832E+01  0.22642091904E+01 -0.16884778680E+02  0.17084334776E+02  0.51100000000E-03 0. -1.
        -11    1    3    3    0    0 -0.39182403370E+01  0.17463758469E+02  0.76453236284E+00  0.17914239510E+02  0.51100000000E-03 0.  1.
         12    1    3    3    0    0  0.64589396397E+00 -0.15275977516E+02  0.34200923361E+02  0.37462992764E+02  0.00000000000E+00 0. -1.
</event>
<event>
 7    1  0.3162486E-013  0.7246158E+02  0.7816164E-02  0.1226708E+00
        -11   -1    0    0    0    0  0.00000000000E+00  0.00000000000E+00  0.45593999997E+02  0.45594000000E+02  0.51100000000E-03 0. -1.
         11   -1    0    0    0    0 -0.00000000000E+00 -0.00000000000E+00 -0.45593999997E+02  0.45594000000E+02  0.51100000000E-03 0.  1.
    9900012    2    1    2    0    0 -0.68916041656E+00  0.96973448699E+01 -0.16005171454E+02  0.72461576079E+02  0.70000007535E+02 0.  0.
         12    1    1    2    0    0  0.68916041656E+00 -0.96973448699E+01  0.16005171454E+02  0.18726423921E+02  0.00000000000E+00 0. -1.
         11    1    3    3    0    0 -0.89601077147E+01  0.22410289311E+01 -0.75211915344E+00  0.92666835713E+01  0.51100000000E-03 0. -1.
        -11    1    3    3    0    0  0.19110308749E+02  0.29152842720E+02 -0.60938873027E+00  0.34863498017E+02  0.51100000000E-03 0.  1.
         12    1    3    3    0    0 -0.10839361451E+02 -0.21696526781E+02 -0.14643663570E+02  0.28331394490E+02  0.00000000000E+00 0. -1.
</event>
<event>
 7    1  0.3162486E-013  0.7246155E+02  0.7816164E-02  0.1226708E+00
        -11   -1    0    0    0    0  0.00000000000E+00  0.00000000000E+00  0.45593999997E+02  0.45594000000E+02  0.51100000000E-03 0.  1.
         11   -1    0    0    0    0 -0.00000000000E+00 -0.00000000000E+00 -0.45593999997E+02  0.45594000000E+02  0.51100000000E-03 0. -1.
    9900012    2    1    2    0    0 -0.83415428362E+01  0.56844983534E+01  0.15772919163E+02  0.72461552464E+02  0.69999976772E+02 0.  0.
         12    1    1    2    0    0  0.83415428362E+01 -0.56844983534E+01 -0.15772919163E+02  0.18726447536E+02  0.00000000000E+00 0. -1.
         11    1    3    3    0    0 -0.10619002456E+02  0.50356078667E+00  0.20249285445E+02  0.22870294006E+02  0.51100000000E-03 0. -1.
        -11    1    3    3    0    0 -0.10083006566E+02  0.82953789123E+01  0.18896417223E+02  0.22968563665E+02  0.51100000000E-03 0.  1.
         12    1    3    3    0    0  0.12360466186E+02 -0.31144413455E+01 -0.23372783505E+02  0.26622694793E+02  0.00000000000E+00 0. -1.
</event>
<event>
 7    1  0.3162486E-013  0.7246157E+02  0.7816164E-02  0.1226708E+00
        -11   -1    0    0    0    0  0.00000000000E+00  0.00000000000E+00  0.45593999997E+02  0.45594000000E+02  0.51100000000E-03 0. -1.
         11   -1    0    0    0    0 -0.00000000000E+00 -0.00000000000E+00 -0.45593999997E+02  0.45594000000E+02  0.51100000000E-03 0.  1.
    9900012    2    1    2    0    0  0.50618909434E+01 -0.10226715730E+02 -0.14848262616E+02  0.72461565282E+02  0.69999993470E+02 0.  0.
         12    1    1    2    0    0 -0.50618909434E+01  0.10226715730E+02  0.14848262616E+02  0.18726434718E+02  0.00000000000E+00 0. -1.
         11    1    3    3    0    0  0.95109031660E+00 -0.17473335255E+01 -0.67300476441E+01  0.70179262459E+01  0.51100000000E-03 0. -1.
        -11    1    3    3    0    0 -0.28414247492E+02 -0.10155005281E+01 -0.13780929719E+02  0.31596118844E+02  0.51100000000E-03 0.  1.
         12    1    3    3    0    0  0.32525048119E+02 -0.74638816769E+01  0.56627147471E+01  0.33847520192E+02  0.00000000000E+00 0. -1.
</event>
<event>
 7    1  0.3162486E-013  0.7246136E+02  0.7816164E-02  0.1226709E+00
        -11   -1    0    0    0    0  0.00000000000E+00  0.00000000000E+00  0.45593999997E+02  0.45594000000E+02  0.51100000000E-03 0. -1.
         11   -1    0    0    0    0 -0.00000000000E+00 -0.00000000000E+00 -0.45593999997E+02  0.45594000000E+02  0.51100000000E-03 0.  1.
    9900012    2    1    2    0    0 -0.15356284902E+01 -0.18473748909E+02 -0.26550654355E+01  0.72461363193E+02  0.69999730212E+02 0.  0.
         12    1    1    2    0    0  0.15356284902E+01  0.18473748909E+02  0.26550654355E+01  0.18726636807E+02  0.00000000000E+00 0. -1.
         11    1    3    3    0    0 -0.15504491781E+02  0.78281453879E+01 -0.11100310133E+02  0.20612763301E+02  0.51100000000E-03 0. -1.
        -11    1    3    3    0    0  0.25156867954E+02 -0.13649532989E+02 -0.64388456336E+01  0.29336606644E+02  0.51100000000E-03 0.  1.
         12    1    3    3    0    0 -0.11188004663E+02 -0.12652361308E+02  0.14884090331E+02  0.22511993248E+02  0.00000000000E+00 0. -1.
</event>
<event>
 7    1  0.3162486E-013  0.7246158E+02  0.7816164E-02  0.1226708E+00
        -11   -1    0    0    0    0  0.00000000000E+00  0.00000000000E+00  0.45593999997E+02  0.45594000000E+02  0.51100000000E-03 0. -1.
         11   -1    0    0    0    0 -0.00000000000E+00 -0.00000000000E+00 -0.45593999997E+02  0.45594000000E+02  0.51100000000E-03 0.  1.
    9900012    2    1    2    0    0  0.52498956928E+01 -0.14342105879E+02 -0.10836110240E+02  0.72461583072E+02  0.70000016645E+02 0.  0.
         12    1    1    2    0    0 -0.52498956928E+01  0.14342105879E+02  0.10836110240E+02  0.18726416928E+02  0.00000000000E+00 0. -1.
         11    1    3    3    0    0  0.63015224997E+01 -0.12400017833E+02  0.40258230646E+01  0.14480223744E+02  0.51100000000E-03 0. -1.
        -11    1    3    3    0    0  0.11135642822E+02 -0.16768983161E+02 -0.28172216214E+02  0.34624775869E+02  0.51100000000E-03 0.  1.
        -12    1    3    3    0    0 -0.12187269629E+02  0.14826895115E+02  0.13310282909E+02  0.23356583459E+02  0.00000000000E+00 0.  1.
</event>
<event>
 7    1  0.3162486E-013  0.7246162E+02  0.7816164E-02  0.1226708E+00
        -11   -1    0    0    0    0  0.00000000000E+00  0.00000000000E+00  0.45593999997E+02  0.45594000000E+02  0.51100000000E-03 0. -1.
         11   -1    0    0    0    0 -0.00000000000E+00 -0.00000000000E+00 -0.45593999997E+02  0.45594000000E+02  0.51100000000E-03 0.  1.
    9900012    2    1    2    0    0  0.19336815805E+01  0.69222181470E+01 -0.17292227691E+02  0.72461618421E+02  0.70000062694E+02 0.  0.
         12    1    1    2    0    0 -0.19336815805E+01 -0.69222181470E+01  0.17292227691E+02  0.18726381579E+02  0.00000000000E+00 0. -1.
         11    1    3    3    0    0  0.31370456310E+02  0.10687312647E+02  0.14479044534E+01  0.33172588206E+02  0.51100000000E-03 0. -1.
        -11    1    3    3    0    0  0.24321609443E+01 -0.54575772664E+00 -0.11392436813E+01  0.27406449572E+01  0.51100000000E-03 0.  1.
        -12    1    3    3    0    0 -0.31868935674E+02 -0.32193367735E+01 -0.17600888463E+02  0.36548385258E+02  0.00000000000E+00 0.  1.
</event>
<event>
 7    1  0.3162486E-013  0.7246159E+02  0.7816164E-02  0.1226708E+00
        -11   -1    0    0    0    0  0.00000000000E+00  0.00000000000E+00  0.45593999997E+02  0.45594000000E+02  0.51100000000E-03 0. -1.
         11   -1    0    0    0    0 -0.00000000000E+00 -0.00000000000E+00 -0.45593999997E+02  0.45594000000E+02  0.51100000000E-03 0.  1.
    9900012    2    1    2    0    0 -0.17472847129E+02 -0.67039988936E+01 -0.65915197150E+00  0.72461588991E+02  0.70000024355E+02 0.  0.
         12    1    1    2    0    0  0.17472847129E+02  0.67039988936E+01  0.65915197150E+00  0.18726411009E+02  0.00000000000E+00 0. -1.
         11    1    3    3    0    0 -0.12995733920E+02  0.54458938854E+01  0.77927718175E+01  0.16101992212E+02  0.51100000000E-03 0.  1.
        -11    1    3    3    0    0 -0.18005885577E+02 -0.93640862825E+01 -0.26659496610E+02  0.33505623216E+02  0.51100000000E-03 0. -1.
         12    1    3    3    0    0  0.13528772368E+02 -0.27858064966E+01  0.18207572821E+02  0.22853973563E+02  0.00000000000E+00 0. -1.
</event>
<event>
 7    1  0.3162486E-013  0.7246157E+02  0.7816164E-02  0.1226708E+00
        -11   -1    0    0    0    0  0.00000000000E+00  0.00000000000E+00  0.45593999997E+02  0.45594000000E+02  0.51100000000E-03 0.  1.
         11   -1    0    0    0    0 -0.00000000000E+00 -0.00000000000E+00 -0.45593999997E+02  0.45594000000E+02  0.51100000000E-03 0. -1.
    9900012    2    1    2    0    0 -0.16704402233E+02 -0.34474418701E+01  0.77302797546E+01  0.72461571230E+02  0.70000001219E+02 0.  0.
         12    1    1    2    0    0  0.16704402233E+02  0.34474418701E+01 -0.77302797546E+01  0.18726428770E+02  0.00000000000E+00 0. -1.
         11    1    3    3    0    0 -0.30675127698E+02 -0.62267588969E+01 -0.17637535069E+02  0.35927964446E+02  0.51100000000E-03 0. -1.
        -11    1    3    3    0    0 -0.38338160966E+01  0.44377728515E+01  0.47468594387E+00  0.58836468921E+01  0.51100000000E-03 0.  1.
        -12    1    3    3    0    0  0.17804541562E+02 -0.16584558247E+01  0.24893128879E+02  0.30649959892E+02  0.00000000000E+00 0.  1.
</event>
<event>
 7    1  0.3162486E-013  0.7246094E+02  0.7816164E-02  0.1226710E+00
        -11   -1    0    0    0    0  0.00000000000E+00  0.00000000000E+00  0.45593999997E+02  0.45594000000E+02  0.51100000000E-03 0.  1.
         11   -1    0    0    0    0 -0.00000000000E+00 -0.00000000000E+00 -0.45593999997E+02  0.45594000000E+02  0.51100000000E-03 0. -1.
    9900012    2    1    2    0    0 -0.64819307034E+01 -0.19906292312E+01  0.17456371663E+02  0.72460935574E+02  0.69999173154E+02 0.  0.
         12    1    1    2    0    0  0.64819307034E+01  0.19906292312E+01 -0.17456371663E+02  0.18727064426E+02  0.00000000000E+00 0. -1.
         11    1    3    3    0    0  0.17841875339E+01 -0.31701601589E+01 -0.19520833336E+02  0.19856892380E+02  0.51100000000E-03 0. -1.
        -11    1    3    3    0    0  0.34216244218E+01  0.17225260338E+02  0.17620929608E+02  0.24877987618E+02  0.51100000000E-03 0.  1.
        -12    1    3    3    0    0 -0.11687742659E+02 -0.16045729411E+02  0.19356275391E+02  0.27726055576E+02  0.00000000000E+00 0.  1.
</event>
<event>
 7    1  0.3162486E-013  0.7246148E+02  0.7816164E-02  0.1226708E+00
        -11   -1    0    0    0    0  0.00000000000E+00  0.00000000000E+00  0.45593999997E+02  0.45594000000E+02  0.51100000000E-03 0.  1.
         11   -1    0    0    0    0 -0.00000000000E+00 -0.00000000000E+00 -0.45593999997E+02  0.45594000000E+02  0.51100000000E-03 0. -1.
    9900012    2    1    2    0    0 -0.12632470893E+02  0.68224390558E+01  0.12023206287E+02  0.72461481772E+02  0.69999884683E+02 0.  0.
         12    1    1    2    0    0  0.12632470893E+02 -0.68224390558E+01 -0.12023206287E+02  0.18726518228E+02  0.00000000000E+00 0. -1.
         11    1    3    3    0    0  0.18575998062E+01  0.17039997827E+02  0.24349038953E+02  0.29777305137E+02  0.51100000000E-03 0. -1.
        -11    1    3    3    0    0 -0.69519150884E+01 -0.54330364841E+01  0.13067326855E+02  0.15767118958E+02  0.51100000000E-03 0.  1.
         12    1    3    3    0    0 -0.75381556105E+01 -0.47845222874E+01 -0.25393159521E+02  0.26917057677E+02  0.00000000000E+00 0. -1.
</event>
<event>
 7    1  0.3162486E-013  0.7246160E+02  0.7816164E-02  0.1226708E+00
        -11   -1    0    0    0    0  0.00000000000E+00  0.00000000000E+00  0.45593999997E+02  0.45594000000E+02  0.51100000000E-03 0. -1.
         11   -1    0    0    0    0 -0.00000000000E+00 -0.00000000000E+00 -0.45593999997E+02  0.45594000000E+02  0.51100000000E-03 0.  1.
    9900012    2    1    2    0    0 -0.12754535421E+02  0.13711203280E+02 -0.54069209602E-01  0.72461596376E+02  0.70000033977E+02 0.  0.
         12    1    1    2    0    0  0.12754535421E+02 -0.13711203280E+02  0.54069209602E-01  0.18726403624E+02  0.00000000000E+00 0. -1.
         11    1    3    3    0    0  0.65905706592E+01 -0.17603949213E+02  0.17287038104E+02  0.25537743365E+02  0.51100000000E-03 0. -1.
        -11    1    3    3    0    0 -0.58854531556E+01 -0.21575547067E+01 -0.69938035068E+01  0.93918522620E+01  0.51100000000E-03 0.  1.
        -12    1    3    3    0    0 -0.13459652924E+02  0.33472707200E+02 -0.10347303807E+02  0.37532000749E+02  0.00000000000E+00 0.  1.
</event>
<event>
 7    1  0.3162486E-013  0.7246154E+02  0.7816164E-02  0.1226708E+00
        -11   -1    0    0    0    0  0.00000000000E+00  0.00000000000E+00  0.45593999997E+02  0.45594000000E+02  0.51100000000E-03 0. -1.
         11   -1    0    0    0    0 -0.00000000000E+00 -0.00000000000E+00 -0.45593999997E+02  0.45594000000E+02  0.51100000000E-03 0.  1.
    9900012    2    1    2    0    0  0.17552326302E+01  0.14644375113E+02 -0.11538704501E+02  0.72461541029E+02  0.69999961877E+02 0.  0.
         12    1    1    2    0    0 -0.17552326302E+01 -0.14644375113E+02  0.11538704501E+02  0.18726458971E+02  0.00000000000E+00 0. -1.
         11    1    3    3    0    0  0.79245344047E+01 -0.39343997338E+01 -0.91138148650E+01  0.12701943491E+02  0.51100000000E-03 0. -1.
        -11    1    3    3    0    0  0.28647068902E+01 -0.14821106619E+02  0.14772751094E+02  0.21121219711E+02  0.51100000000E-03 0.  1.
        -12    1    3    3    0    0 -0.90340086647E+01  0.33399881465E+02 -0.17197640729E+02  0.38638377827E+02  0.00000000000E+00 0.  1.
</event>
<event>
 7    1  0.3162486E-013  0.7246159E+02  0.7816164E-02  0.1226708E+00
        -11   -1    0    0    0    0  0.00000000000E+00  0.00000000000E+00  0.45593999997E+02  0.45594000000E+02  0.51100000000E-03 0.  1.
         11   -1    0    0    0    0 -0.00000000000E+00 -0.00000000000E+00 -0.45593999997E+02  0.45594000000E+02  0.51100000000E-03 0. -1.
    9900012    2    1    2    0    0 -0.33653889303E+01  0.11118786186E+02  0.14687584059E+02  0.72461591525E+02  0.70000027657E+02 0.  0.
         12    1    1    2    0    0  0.33653889303E+01 -0.11118786186E+02 -0.14687584059E+02  0.18726408475E+02  0.00000000000E+00 0. -1.
         11    1    3    3    0    0 -0.24816192985E+01  0.12842050971E+01  0.78541722219E+01  0.83364044183E+01  0.51100000000E-03 0. -1.
        -11    1    3    3    0    0  0.30870012890E+02  0.55822354806E+01  0.67460548256E+01  0.32087821752E+02  0.51100000000E-03 0.  1.
         12    1    3    3    0    0 -0.31753782522E+02  0.42523456082E+01  0.87357011280E-01  0.32037365355E+02  0.00000000000E+00 0. -1.
</event>
<event>
 7    1  0.3162486E-013  0.7246157E+02  0.7816164E-02  0.1226708E+00
        -11   -1    0    0    0    0  0.00000000000E+00  0.00000000000E+00  0.45593999997E+02  0.45594000000E+02  0.51100000000E-03 0.  1.
         11   -1    0    0    0    0 -0.00000000000E+00 -0.00000000000E+00 -0.45593999997E+02  0.45594000000E+02  0.51100000000E-03 0. -1.
    9900012    2    1    2    0    0  0.12170433166E+02 -0.51404578375E+01 -0.13271608723E+02  0.72461565520E+02  0.69999993781E+02 0.  0.
         12    1    1    2    0    0 -0.12170433166E+02  0.51404578375E+01  0.13271608723E+02  0.18726434480E+02  0.00000000000E+00 0. -1.
         11    1    3    3    0    0 -0.35999123419E+01  0.98210114785E+00 -0.11464476497E+02  0.12056455248E+02  0.51100000000E-03 0. -1.
        -11    1    3    3    0    0 -0.10386834508E+02  0.13543042468E+02 -0.17208441317E+02  0.24236971412E+02  0.51100000000E-03 0.  1.
        -12    1    3    3    0    0  0.26157180016E+02 -0.19665601454E+02  0.15401309091E+02  0.36168138860E+02  0.00000000000E+00 0.  1.
</event>
<event>
 7    1  0.3162486E-013  0.7246158E+02  0.7816164E-02  0.1226708E+00
        -11   -1    0    0    0    0  0.00000000000E+00  0.00000000000E+00  0.45593999997E+02  0.45594000000E+02  0.51100000000E-03 0. -1.
         11   -1    0    0    0    0 -0.00000000000E+00 -0.00000000000E+00 -0.45593999997E+02  0.45594000000E+02  0.51100000000E-03 0.  1.
    9900012    2    1    2    0    0 -0.10716664429E+02  0.13816638041E+02  0.67031525362E+01  0.72461584508E+02  0.70000018516E+02 0.  0.
         12    1    1    2    0    0  0.10716664429E+02 -0.13816638041E+02 -0.67031525362E+01  0.18726415492E+02  0.00000000000E+00 0. -1.
         11    1    3    3    0    0  0.81583357723E+01  0.62069092469E+01  0.74914841516E+01  0.12696712174E+02  0.51100000000E-03 0. -1.
        -11    1    3    3    0    0  0.50904027760E+01 -0.28689322867E+01  0.23412286297E+02  0.24130439755E+02  0.51100000000E-03 0.  1.
        -12    1    3    3    0    0 -0.23965402977E+02  0.10478661081E+02 -0.24200617912E+02  0.35634432579E+02  0.00000000000E+00 0.  1.
</event>
<event>
 7    1  0.3549568E-013  0.7246172E+02  0.7816164E-02  0.1226708E+00
        -11   -1    0    0    0    0  0.00000000000E+00  0.00000000000E+00  0.45593999997E+02  0.45594000000E+02  0.51100000000E-03 0.  1.
         11   -1    0    0    0    0 -0.00000000000E+00 -0.00000000000E+00 -0.45593999997E+02  0.45594000000E+02  0.51100000000E-03 0. -1.
    9900012    2    1    2    0    0  0.13338437654E+02  0.12288798631E+02  0.46631749516E+01  0.72461716560E+02  0.70000190538E+02 0.  0.
         12    1    1    2    0    0 -0.13338437654E+02 -0.12288798631E+02 -0.46631749516E+01  0.18726283440E+02  0.00000000000E+00 0. -1.
         11    1    3    3    0    0 -0.65806385169E+01  0.36174237088E+01 -0.22451097620E+02  0.23673663472E+02  0.51100000000E-03 0. -1.
        -11    1    3    3    0    0  0.21262025472E+01 -0.10388626660E+02 -0.74531481350E+00  0.10630136198E+02  0.51100000000E-03 0.  1.
        -12    1    3    3    0    0  0.17792873624E+02  0.19060001583E+02  0.27859587385E+02  0.38157916890E+02  0.00000000000E+00 0.  1.
</event>
<event>
 7    1  0.3162486E-013  0.7246161E+02  0.7816164E-02  0.1226708E+00
        -11   -1    0    0    0    0  0.00000000000E+00  0.00000000000E+00  0.45593999997E+02  0.45594000000E+02  0.51100000000E-03 0.  1.
         11   -1    0    0    0    0 -0.00000000000E+00 -0.00000000000E+00 -0.45593999997E+02  0.45594000000E+02  0.51100000000E-03 0. -1.
    9900012    2    1    2    0    0  0.18471715181E+02 -0.52400036532E+00  0.30329879001E+01  0.72461605427E+02  0.70000045767E+02 0.  0.
         12    1    1    2    0    0 -0.18471715181E+02  0.52400036532E+00 -0.30329879001E+01  0.18726394573E+02  0.00000000000E+00 0. -1.
         11    1    3    3    0    0  0.18405528712E+02  0.83752044353E+01  0.70090074937E+01  0.21401722426E+02  0.51100000000E-03 0. -1.
        -11    1    3    3    0    0  0.12904466357E+02  0.13231656685E+02  0.10907113115E+02  0.21460827276E+02  0.51100000000E-03 0.  1.
         12    1    3    3    0    0 -0.12838279888E+02 -0.22130861485E+02 -0.14883132709E+02  0.29599055725E+02  0.00000000000E+00 0. -1.
</event>
<event>
 7    1  0.3162486E-013  0.7246164E+02  0.7816164E-02  0.1226708E+00
        -11   -1    0    0    0    0  0.00000000000E+00  0.00000000000E+00  0.45593999997E+02  0.45594000000E+02  0.51100000000E-03 0.  1.
         11   -1    0    0    0    0 -0.00000000000E+00 -0.00000000000E+00 -0.45593999997E+02  0.45594000000E+02  0.51100000000E-03 0. -1.
    9900012    2    1    2    0    0 -0.13048613522E+02 -0.40317295153E+01  0.12812313216E+02  0.72461640832E+02  0.70000091888E+02 0.  0.
         12    1    1    2    0    0  0.13048613522E+02  0.40317295153E+01 -0.12812313216E+02  0.18726359168E+02  0.00000000000E+00 0. -1.
         11    1    3    3    0    0 -0.12413519617E+02 -0.17419084662E+01 -0.41546948847E+01  0.13205726191E+02  0.51100000000E-03 0. -1.
        -11    1    3    3    0    0 -0.24779364216E+02 -0.62638069803E+01 -0.53788873051E+01  0.26118663782E+02  0.51100000000E-03 0.  1.
         12    1    3    3    0    0  0.24144270311E+02  0.39739859313E+01  0.22345895406E+02  0.33137250859E+02  0.00000000000E+00 0. -1.
</event>
<event>
 7    1  0.3162486E-013  0.7246151E+02  0.7816164E-02  0.1226708E+00
        -11   -1    0    0    0    0  0.00000000000E+00  0.00000000000E+00  0.45593999997E+02  0.45594000000E+02  0.51100000000E-03 0. -1.
         11   -1    0    0    0    0 -0.00000000000E+00 -0.00000000000E+00 -0.45593999997E+02  0.45594000000E+02  0.51100000000E-03 0.  1.
    9900012    2    1    2    0    0  0.15024509874E+02 -0.10965191386E+02 -0.21702744832E+01  0.72461510462E+02  0.69999922057E+02 0.  0.
         12    1    1    2    0    0 -0.15024509874E+02  0.10965191386E+02  0.21702744832E+01  0.18726489538E+02  0.00000000000E+00 0. -1.
         11    1    3    3    0    0  0.12836783887E+02 -0.27072325501E+02 -0.98477791208E+01  0.31538430247E+02  0.51100000000E-03 0. -1.
        -11    1    3    3    0    0  0.11473398898E+02 -0.38063322426E+01 -0.74933560333E+01  0.14222427090E+02  0.51100000000E-03 0.  1.
         12    1    3    3    0    0 -0.92856729118E+01  0.19913466358E+02  0.15170860671E+02  0.26700653125E+02  0.00000000000E+00 0. -1.
</event>
<event>
 7    1  0.3162486E-013  0.7246157E+02  0.7816164E-02  0.1226708E+00
        -11   -1    0    0    0    0  0.00000000000E+00  0.00000000000E+00  0.45593999997E+02  0.45594000000E+02  0.51100000000E-03 0.  1.
         11   -1    0    0    0    0 -0.00000000000E+00 -0.00000000000E+00 -0.45593999997E+02  0.45594000000E+02  0.51100000000E-03 0. -1.
    9900012    2    1    2    0    0  0.12261915513E+01  0.10815678918E+02  0.15238006328E+02  0.72461566997E+02  0.69999995704E+02 0.  0.
         12    1    1    2    0    0 -0.12261915513E+01 -0.10815678918E+02 -0.15238006328E+02  0.18726433003E+02  0.00000000000E+00 0. -1.
         11    1    3    3    0    0  0.78388794765E+01  0.46814021268E+00  0.70707507715E+01  0.10567057464E+02  0.51100000000E-03 0. -1.
        -11    1    3    3    0    0 -0.30431140750E+02  0.15540264369E+02  0.13838827537E+02  0.36865529860E+02  0.51100000000E-03 0.  1.
         12    1    3    3    0    0  0.23818452824E+02 -0.51927256632E+01 -0.56715719805E+01  0.25028979673E+02  0.00000000000E+00 0. -1.
</event>
<event>
 7    1  0.3162486E-013  0.7246151E+02  0.7816164E-02  0.1226708E+00
        -11   -1    0    0    0    0  0.00000000000E+00  0.00000000000E+00  0.45593999997E+02  0.45594000000E+02  0.51100000000E-03 0.  1.
         11   -1    0    0    0    0 -0.00000000000E+00 -0.00000000000E+00 -0.45593999997E+02  0.45594000000E+02  0.51100000000E-03 0. -1.
    9900012    2    1    2    0    0 -0.11191088622E+02 -0.79649640808E+01  0.12727931445E+02  0.72461511908E+02  0.69999923942E+02 0.  0.
         12    1    1    2    0    0  0.11191088622E+02  0.79649640808E+01 -0.12727931445E+02  0.18726488092E+02  0.00000000000E+00 0. -1.
         11    1    3    3    0    0 -0.34054988382E+01 -0.77636045377E+01  0.17564365588E+02  0.19503279635E+02  0.51100000000E-03 0. -1.
        -11    1    3    3    0    0 -0.28631439181E+02  0.72773362726E+01  0.24509011311E+01  0.29643310366E+02  0.51100000000E-03 0.  1.
         12    1    3    3    0    0  0.20845849397E+02 -0.74786958157E+01 -0.72873352734E+01  0.23314921908E+02  0.00000000000E+00 0. -1.
</event>
<event>
 7    1  0.3162486E-013  0.7246159E+02  0.7816164E-02  0.1226708E+00
        -11   -1    0    0    0    0  0.00000000000E+00  0.00000000000E+00  0.45593999997E+02  0.45594000000E+02  0.51100000000E-03 0. -1.
         11   -1    0    0    0    0 -0.00000000000E+00 -0.00000000000E+00 -0.45593999997E+02  0.45594000000E+02  0.51100000000E-03 0.  1.
    9900012    2    1    2    0    0  0.18493200175E+02  0.27042273196E+01 -0.11692254131E+01  0.72461591209E+02  0.70000027246E+02 0.  0.
         12    1    1    2    0    0 -0.18493200175E+02 -0.27042273196E+01  0.11692254131E+01  0.18726408791E+02  0.00000000000E+00 0. -1.
         11    1    3    3    0    0 -0.90821807816E+01  0.60094479553E+01  0.48927678863E+01  0.11938955161E+02  0.51100000000E-03 0. -1.
        -11    1    3    3    0    0 -0.11065957113E+02  0.11534760590E+02 -0.10139646240E+02  0.18929303601E+02  0.51100000000E-03 0.  1.
        -12    1    3    3    0    0  0.38641338070E+02 -0.14839981226E+02  0.40776529404E+01  0.41593332448E+02  0.00000000000E+00 0.  1.
</event>
<event>
 7    1  0.3162486E-013  0.7246178E+02  0.7816164E-02  0.1226707E+00
        -11   -1    0    0    0    0  0.00000000000E+00  0.00000000000E+00  0.45593999997E+02  0.45594000000E+02  0.51100000000E-03 0.  1.
         11   -1    0    0    0    0 -0.00000000000E+00 -0.00000000000E+00 -0.45593999997E+02  0.45594000000E+02  0.51100000000E-03 0. -1.
    9900012    2    1    2    0    0  0.15663051167E+02 -0.46772054584E+01  0.91358653403E+01  0.72461776187E+02  0.70000268213E+02 0.  0.
         12    1    1    2    0    0 -0.15663051167E+02  0.46772054584E+01 -0.91358653403E+01  0.18726223813E+02  0.00000000000E+00 0. -1.
         11    1    3    3    0    0 -0.61115869360E+01 -0.32620004932E+01 -0.52150450153E+01  0.86711496854E+01  0.51100000000E-03 0. -1.
        -11    1    3    3    0    0 -0.13203721557E+02  0.76121539197E+01 -0.11732478687E+02  0.19233673769E+02  0.51100000000E-03 0.  1.
        -12    1    3    3    0    0  0.34978359660E+02 -0.90273588850E+01  0.26083389042E+02  0.44556952733E+02  0.00000000000E+00 0.  1.
</event>
<event>
 7    1  0.3339066E-013  0.7246160E+02  0.7816164E-02  0.1226708E+00
        -11   -1    0    0    0    0  0.00000000000E+00  0.00000000000E+00  0.45593999997E+02  0.45594000000E+02  0.51100000000E-03 0. -1.
         11   -1    0    0    0    0 -0.00000000000E+00 -0.00000000000E+00 -0.45593999997E+02  0.45594000000E+02  0.51100000000E-03 0.  1.
    9900012    2    1    2    0    0 -0.72522928137E+01 -0.16386410987E+02 -0.54376453030E+01  0.72461596114E+02  0.70000033634E+02 0.  0.
         12    1    1    2    0    0  0.72522928137E+01  0.16386410987E+02  0.54376453030E+01  0.18726403886E+02  0.00000000000E+00 0. -1.
         11    1    3    3    0    0 -0.11503441589E+02  0.28330509726E+01  0.25960459496E+02  0.28535956330E+02  0.51100000000E-03 0. -1.
        -11    1    3    3    0    0 -0.75617872660E+01  0.23543544688E+00 -0.49911001495E+01  0.90635058046E+01  0.51100000000E-03 0.  1.
        -12    1    3    3    0    0  0.11812936041E+02 -0.19454897406E+02 -0.26407004649E+02  0.34862133979E+02  0.00000000000E+00 0.  1.
</event>
<event>
 7    1  0.3162486E-013  0.7246134E+02  0.7816164E-02  0.1226709E+00
        -11   -1    0    0    0    0  0.00000000000E+00  0.00000000000E+00  0.45593999997E+02  0.45594000000E+02  0.51100000000E-03 0.  1.
         11   -1    0    0    0    0 -0.00000000000E+00 -0.00000000000E+00 -0.45593999997E+02  0.45594000000E+02  0.51100000000E-03 0. -1.
    9900012    2    1    2    0    0 -0.11106952786E+02 -0.10815622677E+02  0.10504554094E+02  0.72461341173E+02  0.69999701527E+02 0.  0.
         12    1    1    2    0    0  0.11106952786E+02  0.10815622677E+02 -0.10504554094E+02  0.18726658827E+02  0.00000000000E+00 0. -1.
         11    1    3    3    0    0  0.24586609729E+01 -0.11111404209E+02 -0.11721196171E+02  0.16336913944E+02  0.51100000000E-03 0. -1.
        -11    1    3    3    0    0 -0.54974577359E+01 -0.24008323376E+02  0.46496245588E+01  0.25064729037E+02  0.51100000000E-03 0.  1.
         12    1    3    3    0    0 -0.80681560233E+01  0.24304104908E+02  0.17576125706E+02  0.31059698193E+02  0.00000000000E+00 0. -1.
</event>
<event>
 7    1  0.3162486E-013  0.7246158E+02  0.7816164E-02  0.1226708E+00
        -11   -1    0    0    0    0  0.00000000000E+00  0.00000000000E+00  0.45593999997E+02  0.45594000000E+02  0.51100000000E-03 0.  1.
         11   -1    0    0    0    0 -0.00000000000E+00 -0.00000000000E+00 -0.45593999997E+02  0.45594000000E+02  0.51100000000E-03 0. -1.
    9900012    2    1    2    0    0  0.18030429212E+02  0.46659212364E+01  0.19523634790E+01  0.72461576911E+02  0.70000008620E+02 0.  0.
         12    1    1    2    0    0 -0.18030429212E+02 -0.46659212364E+01 -0.19523634790E+01  0.18726423089E+02  0.00000000000E+00 0. -1.
         11    1    3    3    0    0  0.21368920021E+02  0.84307080838E+01  0.80015420079E+00  0.22985817990E+02  0.51100000000E-03 0. -1.
        -11    1    3    3    0    0 -0.15996698239E+02 -0.68529837435E+01 -0.18817616441E+02  0.25631239328E+02  0.51100000000E-03 0.  1.
         12    1    3    3    0    0  0.12658207429E+02  0.30881968961E+01  0.19969825719E+02  0.23844519593E+02  0.00000000000E+00 0. -1.
</event>
<event>
 7    1  0.3162486E-013  0.7246164E+02  0.7816164E-02  0.1226708E+00
        -11   -1    0    0    0    0  0.00000000000E+00  0.00000000000E+00  0.45593999997E+02  0.45594000000E+02  0.51100000000E-03 0. -1.
         11   -1    0    0    0    0 -0.00000000000E+00 -0.00000000000E+00 -0.45593999997E+02  0.45594000000E+02  0.51100000000E-03 0.  1.
    9900012    2    1    2    0    0 -0.14340790898E+00 -0.11751996568E+02 -0.14578977123E+02  0.72461639886E+02  0.70000090656E+02 0.  0.
         12    1    1    2    0    0  0.14340790898E+00  0.11751996568E+02  0.14578977123E+02  0.18726360114E+02  0.00000000000E+00 0. -1.
         11    1    3    3    0    0  0.17656759182E+02  0.76696891517E+01 -0.81605702289E+01  0.20908854182E+02  0.51100000000E-03 0.  1.
        -11    1    3    3    0    0  0.14345207064E+02 -0.43318395189E+01  0.18303776028E+01  0.15096359884E+02  0.51100000000E-03 0. -1.
         12    1    3    3    0    0 -0.32145374154E+02 -0.15089846201E+02 -0.82487844967E+01  0.36456425820E+02  0.00000000000E+00 0. -1.
</event>
<event>
 7    1  0.3162486E-013  0.7246151E+02  0.7816164E-02  0.1226708E+00
        -11   -1    0    0    0    0  0.00000000000E+00  0.00000000000E+00  0.45593999997E+02  0.45594000000E+02  0.51100000000E-03 0.  1.
         11   -1    0    0    0    0 -0.00000000000E+00 -0.00000000000E+00 -0.45593999997E+02  0.45594000000E+02  0.51100000000E-03 0. -1.
    9900012    2    1    2    0    0  0.24309920158E+01 -0.18194852662E+02  0.37039025450E+01  0.72461513954E+02  0.69999926606E+02 0.  0.
         12    1    1    2    0    0 -0.24309920158E+01  0.18194852662E+02 -0.37039025450E+01  0.18726486046E+02  0.00000000000E+00 0. -1.
         11    1    3    3    0    0 -0.12121474954E+02 -0.27447637903E+02 -0.21803815365E+02  0.37090556025E+02  0.51100000000E-03 0. -1.
        -11    1    3    3    0    0 -0.34424742241E+01  0.38942149111E+00  0.81807512955E+00  0.35597085640E+01  0.51100000000E-03 0.  1.
        -12    1    3    3    0    0  0.17994941194E+02  0.88633637501E+01  0.24689642780E+02  0.31811249365E+02  0.00000000000E+00 0.  1.
</event>
<event>
 7    1  0.3162486E-013  0.7246127E+02  0.7816164E-02  0.1226709E+00
        -11   -1    0    0    0    0  0.00000000000E+00  0.00000000000E+00  0.45593999997E+02  0.45594000000E+02  0.51100000000E-03 0. -1.
         11   -1    0    0    0    0 -0.00000000000E+00 -0.00000000000E+00 -0.45593999997E+02  0.45594000000E+02  0.51100000000E-03 0.  1.
    9900012    2    1    2    0    0  0.12474263479E+02  0.48815382817E+01 -0.13086399975E+02  0.72461266979E+02  0.69999604875E+02 0.  0.
         12    1    1    2    0    0 -0.12474263479E+02 -0.48815382817E+01  0.13086399975E+02  0.18726733021E+02  0.00000000000E+00 0. -1.
         11    1    3    3    0    0 -0.13125422202E+02 -0.12877398643E+02 -0.71606679288E+01  0.19732695438E+02  0.51100000000E-03 0. -1.
        -11    1    3    3    0    0 -0.84985933033E+01 -0.47014752459E+01 -0.68537383349E+01  0.11887122740E+02  0.51100000000E-03 0.  1.
         12    1    3    3    0    0  0.34098278983E+02  0.22460412171E+02  0.92800628893E+00  0.40841448801E+02  0.00000000000E+00 0. -1.
</event>
<event>
 7    1  0.3162486E-013  0.7246161E+02  0.7816164E-02  0.1226708E+00
        -11   -1    0    0    0    0  0.00000000000E+00  0.00000000000E+00  0.45593999997E+02  0.45594000000E+02  0.51100000000E-03 0. -1.
         11   -1    0    0    0    0 -0.00000000000E+00 -0.00000000000E+00 -0.45593999997E+02  0.45594000000E+02  0.51100000000E-03 0.  1.
    9900012    2    1    2    0    0  0.16057495527E+02  0.94787596402E+01  0.17284575375E+01  0.72461611870E+02  0.70000054161E+02 0.  0.
         12    1    1    2    0    0 -0.16057495527E+02 -0.94787596402E+01 -0.17284575375E+01  0.18726388130E+02  0.00000000000E+00 0. -1.
         11    1    3    3    0    0  0.24978271242E+01 -0.38104860737E+01 -0.44369319072E+01  0.63596626853E+01  0.51100000000E-03 0. -1.
        -11    1    3    3    0    0  0.17116523785E+02  0.37562492178E+02  0.41625602489E+01  0.41487867060E+02  0.51100000000E-03 0.  1.
         12    1    3    3    0    0 -0.35568553816E+01 -0.24273246464E+02  0.20028291958E+01  0.24614082126E+02  0.00000000000E+00 0. -1.
</event>
<event>
 7    1  0.3162486E-013  0.7246152E+02  0.7816164E-02  0.1226708E+00
        -11   -1    0    0    0    0  0.00000000000E+00  0.00000000000E+00  0.45593999997E+02  0.45594000000E+02  0.51100000000E-03 0.  1.
         11   -1    0    0    0    0 -0.00000000000E+00 -0.00000000000E+00 -0.45593999997E+02  0.45594000000E+02  0.51100000000E-03 0. -1.
    9900012    2    1    2    0    0  0.33873618604E+01  0.16309214104E+02  0.85566642493E+01  0.72461516397E+02  0.69999929789E+02 0.  0.
         12    1    1    2    0    0 -0.33873618604E+01 -0.16309214104E+02 -0.85566642493E+01  0.18726483603E+02  0.00000000000E+00 0. -1.
         11    1    3    3    0    0 -0.24787744698E+02 -0.10710595576E+02 -0.84637924000E+01  0.28298143523E+02  0.51100000000E-03 0. -1.
        -11    1    3    3    0    0  0.55546060084E+01  0.71058109178E+01 -0.95959430173E+00  0.90701167684E+01  0.51100000000E-03 0.  1.
        -12    1    3    3    0    0  0.22620500550E+02  0.19913998762E+02  0.17980050951E+02  0.35093256105E+02  0.00000000000E+00 0.  1.
</event>
<event>
 7    1  0.3162486E-013  0.7246156E+02  0.7816164E-02  0.1226708E+00
        -11   -1    0    0    0    0  0.00000000000E+00  0.00000000000E+00  0.45593999997E+02  0.45594000000E+02  0.51100000000E-03 0.  1.
         11   -1    0    0    0    0 -0.00000000000E+00 -0.00000000000E+00 -0.45593999997E+02  0.45594000000E+02  0.51100000000E-03 0. -1.
    9900012    2    1    2    0    0  0.16219184269E+02  0.34735610658E+01 -0.86920734319E+01  0.72461555987E+02  0.69999981362E+02 0.  0.
         12    1    1    2    0    0 -0.16219184269E+02 -0.34735610658E+01  0.86920734319E+01  0.18726444013E+02  0.00000000000E+00 0. -1.
         11    1    3    3    0    0  0.43361768135E+01 -0.13263490961E+01  0.93661354874E+01  0.10406061960E+02  0.51100000000E-03 0. -1.
        -11    1    3    3    0    0  0.29465133662E+02  0.20309907760E+02 -0.12967728179E+02  0.38063741662E+02  0.51100000000E-03 0.  1.
         12    1    3    3    0    0 -0.17582126206E+02 -0.15509997598E+02 -0.50904807405E+01  0.23991752366E+02  0.00000000000E+00 0. -1.
</event>
<event>
 7    1  0.3162486E-013  0.7246157E+02  0.7816164E-02  0.1226708E+00
        -11   -1    0    0    0    0  0.00000000000E+00  0.00000000000E+00  0.45593999997E+02  0.45594000000E+02  0.51100000000E-03 0.  1.
         11   -1    0    0    0    0 -0.00000000000E+00 -0.00000000000E+00 -0.45593999997E+02  0.45594000000E+02  0.51100000000E-03 0. -1.
    9900012    2    1    2    0    0 -0.18414303946E+02  0.33506823129E+01  0.60456132860E+00  0.72461570651E+02  0.70000000464E+02 0.  0.
         12    1    1    2    0    0  0.18414303946E+02 -0.33506823129E+01 -0.60456132860E+00  0.18726429349E+02  0.00000000000E+00 0. -1.
         11    1    3    3    0    0 -0.16252508549E+02 -0.36109503630E+01 -0.16815330102E+02  0.23663015940E+02  0.51100000000E-03 0. -1.
        -11    1    3    3    0    0 -0.23285908992E+02  0.28531416260E+01  0.13029035658E+02  0.26835233279E+02  0.51100000000E-03 0.  1.
        -12    1    3    3    0    0  0.21124113595E+02  0.41084910499E+01  0.43908557727E+01  0.21963321432E+02  0.00000000000E+00 0.  1.
</event>
<event>
 7    1  0.3162486E-013  0.7246157E+02  0.7816164E-02  0.1226708E+00
        -11   -1    0    0    0    0  0.00000000000E+00  0.00000000000E+00  0.45593999997E+02  0.45594000000E+02  0.51100000000E-03 0. -1.
         11   -1    0    0    0    0 -0.00000000000E+00 -0.00000000000E+00 -0.45593999997E+02  0.45594000000E+02  0.51100000000E-03 0.  1.
    9900012    2    1    2    0    0 -0.35860639216E+01  0.13018736631E+02 -0.12974280025E+02  0.72461566808E+02  0.69999995459E+02 0.  0.
         12    1    1    2    0    0  0.35860639216E+01 -0.13018736631E+02  0.12974280025E+02  0.18726433192E+02  0.00000000000E+00 0. -1.
         11    1    3    3    0    0  0.21787644392E+02  0.86355941859E+01 -0.20171910622E+02  0.30922175109E+02  0.51100000000E-03 0. -1.
        -11    1    3    3    0    0 -0.60024195122E+01 -0.65170527133E+01 -0.10055241658E+02  0.13401824545E+02  0.51100000000E-03 0.  1.
        -12    1    3    3    0    0 -0.19371288801E+02  0.10900195159E+02  0.17252872255E+02  0.28137567154E+02  0.00000000000E+00 0.  1.
</event>
<event>
 7    1  0.3162486E-013  0.7246139E+02  0.7816164E-02  0.1226708E+00
        -11   -1    0    0    0    0  0.00000000000E+00  0.00000000000E+00  0.45593999997E+02  0.45594000000E+02  0.51100000000E-03 0. -1.
         11   -1    0    0    0    0 -0.00000000000E+00 -0.00000000000E+00 -0.45593999997E+02  0.45594000000E+02  0.51100000000E-03 0.  1.
    9900012    2    1    2    0    0 -0.14521789324E+02  0.34645116617E+01 -0.11304893446E+02  0.72461392671E+02  0.69999768613E+02 0.  0.
         12    1    1    2    0    0  0.14521789324E+02 -0.34645116617E+01  0.11304893446E+02  0.18726607329E+02  0.00000000000E+00 0. -1.
         11    1    3    3    0    0 -0.10436247802E+02  0.95182439447E+01 -0.24033303305E+02  0.27876726924E+02  0.51100000000E-03 0. -1.
        -11    1    3    3    0    0 -0.20462058604E+02 -0.31955785495E+01 -0.38972224447E+01  0.21073583170E+02  0.51100000000E-03 0.  1.
         12    1    3    3    0    0  0.16376517082E+02 -0.28581537334E+01  0.16625632303E+02  0.23511082578E+02  0.00000000000E+00 0. -1.
</event>
<event>
 7    1  0.3162486E-013  0.7246161E+02  0.7816164E-02  0.1226708E+00
        -11   -1    0    0    0    0  0.00000000000E+00  0.00000000000E+00  0.45593999997E+02  0.45594000000E+02  0.51100000000E-03 0.  1.
         11   -1    0    0    0    0 -0.00000000000E+00 -0.00000000000E+00 -0.45593999997E+02  0.45594000000E+02  0.51100000000E-03 0. -1.
    9900012    2    1    2    0    0  0.61213427478E+01 -0.92857318770E+01  0.15065927843E+02  0.72461605918E+02  0.70000046407E+02 0.  0.
         12    1    1    2    0    0 -0.61213427478E+01  0.92857318770E+01 -0.15065927843E+02  0.18726394082E+02  0.00000000000E+00 0. -1.
         11    1    3    3    0    0  0.23820305051E+02 -0.25301132462E+02 -0.76616992725E+01  0.35584489213E+02  0.51100000000E-03 0. -1.
        -11    1    3    3    0    0 -0.23143547164E+01 -0.25959369696E+01  0.76660375623E+01  0.84180317575E+01  0.51100000000E-03 0.  1.
        -12    1    3    3    0    0 -0.15384607586E+02  0.18611337555E+02  0.15061589553E+02  0.28459084947E+02  0.00000000000E+00 0.  1.
</event>
<event>
 7    1  0.3162486E-013  0.7246154E+02  0.7816164E-02  0.1226708E+00
        -11   -1    0    0    0    0  0.00000000000E+00  0.00000000000E+00  0.45593999997E+02  0.45594000000E+02  0.51100000000E-03 0. -1.
         11   -1    0    0    0    0 -0.00000000000E+00 -0.00000000000E+00 -0.45593999997E+02  0.45594000000E+02  0.51100000000E-03 0.  1.
    9900012    2    1    2    0    0  0.59802555199E+01  0.15348011453E+02  0.89081658810E+01  0.72461539282E+02  0.69999959601E+02 0.  0.
         12    1    1    2    0    0 -0.59802555199E+01 -0.15348011453E+02 -0.89081658810E+01  0.18726460718E+02  0.00000000000E+00 0. -1.
         11    1    3    3    0    0  0.11306551141E+02 -0.22244602427E+02  0.26519970198E+01  0.25093694911E+02  0.51100000000E-03 0. -1.
        -11    1    3    3    0    0 -0.95930647264E+01  0.15551301762E+02 -0.88557713332E+01  0.20305037885E+02  0.51100000000E-03 0.  1.
        -12    1    3    3    0    0  0.42667691049E+01  0.22041312118E+02  0.15111940194E+02  0.27062806486E+02  0.00000000000E+00 0.  1.
</event>
<event>
 7    1  0.3162486E-013  0.7246156E+02  0.7816164E-02  0.1226708E+00
        -11   -1    0    0    0    0  0.00000000000E+00  0.00000000000E+00  0.45593999997E+02  0.45594000000E+02  0.51100000000E-03 0.  1.
         11   -1    0    0    0    0 -0.00000000000E+00 -0.00000000000E+00 -0.45593999997E+02  0.45594000000E+02  0.51100000000E-03 0. -1.
    9900012    2    1    2    0    0 -0.97416792834E+00  0.74655327832E+01  0.17146317514E+02  0.72461564482E+02  0.69999992429E+02 0.  0.
         12    1    1    2    0    0  0.97416792834E+00 -0.74655327832E+01 -0.17146317514E+02  0.18726435518E+02  0.00000000000E+00 0. -1.
         11    1    3    3    0    0 -0.10526197264E+02 -0.47159717188E+01 -0.50420465403E+01  0.12588226709E+02  0.51100000000E-03 0. -1.
        -11    1    3    3    0    0 -0.15290766979E+02  0.20013464614E+02  0.22574455421E+02  0.33822364768E+02  0.51100000000E-03 0.  1.
         12    1    3    3    0    0  0.24842796315E+02 -0.78319601122E+01 -0.38609136683E+00  0.26050973005E+02  0.00000000000E+00 0. -1.
</event>
<event>
 7    1  0.3162486E-013  0.7246157E+02  0.7816164E-02  0.1226708E+00
        -11   -1    0    0    0    0  0.00000000000E+00  0.00000000000E+00  0.45593999997E+02  0.45594000000E+02  0.51100000000E-03 0. -1.
         11   -1    0    0    0    0 -0.00000000000E+00 -0.00000000000E+00 -0.45593999997E+02  0.45594000000E+02  0.51100000000E-03 0.  1.
    9900012    2    1    2    0    0 -0.40556363331E+01  0.14978889538E+01 -0.18220514384E+02  0.72461574773E+02  0.70000005834E+02 0.  0.
         12    1    1    2    0    0  0.40556363331E+01 -0.14978889538E+01  0.18220514384E+02  0.18726425227E+02  0.00000000000E+00 0. -1.
         11    1    3    3    0    0 -0.11711417443E+02  0.13583296095E+01  0.38649650819E+01  0.12407268564E+02  0.51100000000E-03 0. -1.
        -11    1    3    3    0    0 -0.10413403139E+02 -0.22138844166E+02 -0.10593129024E+01  0.24488559166E+02  0.51100000000E-03 0.  1.
         12    1    3    3    0    0  0.18069184249E+02  0.22278403510E+02 -0.21026166563E+02  0.35565747043E+02  0.00000000000E+00 0. -1.
</event>
<event>
 7    1  0.3162486E-013  0.7246158E+02  0.7816164E-02  0.1226708E+00
        -11   -1    0    0    0    0  0.00000000000E+00  0.00000000000E+00  0.45593999997E+02  0.45594000000E+02  0.51100000000E-03 0.  1.
         11   -1    0    0    0    0 -0.00000000000E+00 -0.00000000000E+00 -0.45593999997E+02  0.45594000000E+02  0.51100000000E-03 0. -1.
    9900012    2    1    2    0    0 -0.12788287035E+02 -0.11897109757E+02 -0.67525813109E+01  0.72461578553E+02  0.70000010758E+02 0.  0.
         12    1    1    2    0    0  0.12788287035E+02  0.11897109757E+02  0.67525813109E+01  0.18726421447E+02  0.00000000000E+00 0. -1.
         11    1    3    3    0    0 -0.79103499571E+01 -0.11902618784E+02  0.58171576407E+01  0.15430012755E+02  0.51100000000E-03 0. -1.
        -11    1    3    3    0    0 -0.15130408679E+02  0.10308188712E+01  0.18718197013E+02  0.24090719251E+02  0.51100000000E-03 0.  1.
         12    1    3    3    0    0  0.10252471602E+02 -0.10253098451E+01 -0.31287935965E+02  0.32940846546E+02  0.00000000000E+00 0. -1.
</event>
<event>
 7    1  0.3162486E-013  0.7246156E+02  0.7816164E-02  0.1226708E+00
        -11   -1    0    0    0    0  0.00000000000E+00  0.00000000000E+00  0.45593999997E+02  0.45594000000E+02  0.51100000000E-03 0. -1.
         11   -1    0    0    0    0 -0.00000000000E+00 -0.00000000000E+00 -0.45593999997E+02  0.45594000000E+02  0.51100000000E-03 0.  1.
    9900012    2    1    2    0    0 -0.14153227081E+02 -0.97440833761E+00 -0.12223591296E+02  0.72461561668E+02  0.69999988762E+02 0.  0.
         12    1    1    2    0    0  0.14153227081E+02  0.97440833761E+00  0.12223591296E+02  0.18726438332E+02  0.00000000000E+00 0. -1.
         11    1    3    3    0    0  0.57862191224E+00  0.43264081542E+01 -0.10564797942E+01  0.44909643342E+01  0.51100000000E-03 0. -1.
        -11    1    3    3    0    0 -0.24825779791E+02  0.18898711328E+02 -0.23435721412E+02  0.39021963950E+02  0.51100000000E-03 0.  1.
         12    1    3    3    0    0  0.10093930798E+02 -0.24199527820E+02  0.12268609910E+02  0.28948633384E+02  0.00000000000E+00 0. -1.
</event>
<event>
 7    1  0.3162486E-013  0.7246158E+02  0.7816164E-02  0.1226708E+00
        -11   -1    0    0    0    0  0.00000000000E+00  0.00000000000E+00  0.45593999997E+02  0.45594000000E+02  0.51100000000E-03 0.  1.
         11   -1    0    0    0    0 -0.00000000000E+00 -0.00000000000E+00 -0.45593999997E+02  0.45594000000E+02  0.51100000000E-03 0. -1.
    9900012    2    1    2    0    0 -0.90026559582E+01  0.15488148810E+02 -0.54541779393E+01  0.72461584837E+02  0.70000018945E+02 0.  0.
         12    1    1    2    0    0  0.90026559582E+01 -0.15488148810E+02  0.54541779393E+01  0.18726415163E+02  0.00000000000E+00 0. -1.
         11    1    3    3    0    0 -0.17469783962E+02  0.10482297078E+02 -0.22718242976E+02  0.30515413612E+02  0.51100000000E-03 0. -1.
        -11    1    3    3    0    0  0.26159182284E+01 -0.14363430009E+02 -0.10735872737E+01  0.14639116766E+02  0.51100000000E-03 0.  1.
        -12    1    3    3    0    0  0.58512097752E+01  0.19369281741E+02  0.18337652311E+02  0.27307054460E+02  0.00000000000E+00 0.  1.
</event>
<event>
 7    1  0.3162486E-013  0.7246149E+02  0.7816164E-02  0.1226708E+00
        -11   -1    0    0    0    0  0.00000000000E+00  0.00000000000E+00  0.45593999997E+02  0.45594000000E+02  0.51100000000E-03 0.  1.
         11   -1    0    0    0    0 -0.00000000000E+00 -0.00000000000E+00 -0.45593999997E+02  0.45594000000E+02  0.51100000000E-03 0. -1.
    9900012    2    1    2    0    0  0.18291229590E+02  0.36275054084E+01  0.17188254965E+01  0.72461488405E+02  0.69999893324E+02 0.  0.
         12    1    1    2    0    0 -0.18291229590E+02 -0.36275054084E+01 -0.17188254965E+01  0.18726511595E+02  0.00000000000E+00 0. -1.
         11    1    3    3    0    0 -0.13523228341E+02  0.19707737351E+02 -0.69180938965E+01  0.24882376085E+02  0.51100000000E-03 0. -1.
        -11    1    3    3    0    0 -0.22398939073E+01  0.44860111184E+01 -0.33493220335E+01  0.60298738639E+01  0.51100000000E-03 0.  1.
        -12    1    3    3    0    0  0.34054351838E+02 -0.20566243061E+02  0.11986241426E+02  0.41549238456E+02  0.00000000000E+00 0.  1.
</event>
<event>
 7    1  0.3162486E-013  0.7246155E+02  0.7816164E-02  0.1226708E+00
        -11   -1    0    0    0    0  0.00000000000E+00  0.00000000000E+00  0.45593999997E+02  0.45594000000E+02  0.51100000000E-03 0. -1.
         11   -1    0    0    0    0 -0.00000000000E+00 -0.00000000000E+00 -0.45593999997E+02  0.45594000000E+02  0.51100000000E-03 0.  1.
    9900012    2    1    2    0    0 -0.15170759138E+02 -0.13104190178E+01 -0.10900031290E+02  0.72461553115E+02  0.69999977620E+02 0.  0.
         12    1    1    2    0    0  0.15170759138E+02  0.13104190178E+01  0.10900031290E+02  0.18726446885E+02  0.00000000000E+00 0. -1.
         11    1    3    3    0    0 -0.20199760997E+02  0.92567924968E+01 -0.97790253671E+01  0.24276488401E+02  0.51100000000E-03 0. -1.
        -11    1    3    3    0    0 -0.16906035400E+02  0.46016584089E+01 -0.98795871345E+01  0.20114560280E+02  0.51100000000E-03 0.  1.
         12    1    3    3    0    0  0.21935037259E+02 -0.15168869923E+02  0.87585812116E+01  0.28070504434E+02  0.00000000000E+00 0. -1.
</event>
<event>
 7    1  0.3162486E-013  0.7246158E+02  0.7816164E-02  0.1226708E+00
        -11   -1    0    0    0    0  0.00000000000E+00  0.00000000000E+00  0.45593999997E+02  0.45594000000E+02  0.51100000000E-03 0.  1.
         11   -1    0    0    0    0 -0.00000000000E+00 -0.00000000000E+00 -0.45593999997E+02  0.45594000000E+02  0.51100000000E-03 0. -1.
    9900012    2    1    2    0    0  0.15943378489E+02  0.76302407904E+01  0.61860122660E+01  0.72461584435E+02  0.70000018421E+02 0.  0.
         12    1    1    2    0    0 -0.15943378489E+02 -0.76302407904E+01 -0.61860122660E+01  0.18726415565E+02  0.00000000000E+00 0. -1.
         11    1    3    3    0    0  0.23978051927E+01  0.10841491490E+02  0.14027259783E+01  0.11191740164E+02  0.51100000000E-03 0. -1.
        -11    1    3    3    0    0  0.29375724175E+02  0.88394602925E+01  0.19652714284E+02  0.36432106830E+02  0.51100000000E-03 0.  1.
         12    1    3    3    0    0 -0.15830150879E+02 -0.12050710992E+02 -0.14869427996E+02  0.24837737441E+02  0.00000000000E+00 0. -1.
</event>
<event>
 7    1  0.3162486E-013  0.7246104E+02  0.7816164E-02  0.1226709E+00
        -11   -1    0    0    0    0  0.00000000000E+00  0.00000000000E+00  0.45593999997E+02  0.45594000000E+02  0.51100000000E-03 0. -1.
         11   -1    0    0    0    0 -0.00000000000E+00 -0.00000000000E+00 -0.45593999997E+02  0.45594000000E+02  0.51100000000E-03 0.  1.
    9900012    2    1    2    0    0 -0.15623830649E+02 -0.85280290173E+01 -0.58196038532E+01  0.72461036763E+02  0.69999304973E+02 0.  0.
         12    1    1    2    0    0  0.15623830649E+02  0.85280290173E+01  0.58196038532E+01  0.18726963237E+02  0.00000000000E+00 0. -1.
         11    1    3    3    0    0 -0.29548763556E+01 -0.10351352579E+02 -0.12165625731E+02  0.16244514280E+02  0.51100000000E-03 0. -1.
        -11    1    3    3    0    0  0.38133482398E+01  0.14026636381E+02 -0.18802518996E+02  0.23766002478E+02  0.51100000000E-03 0.  1.
         12    1    3    3    0    0 -0.16482302533E+02 -0.12203312819E+02  0.25148540873E+02  0.32450520005E+02  0.00000000000E+00 0. -1.
</event>
<event>
 7    1  0.3162486E-013  0.7246157E+02  0.7816164E-02  0.1226708E+00
        -11   -1    0    0    0    0  0.00000000000E+00  0.00000000000E+00  0.45593999997E+02  0.45594000000E+02  0.51100000000E-03 0. -1.
         11   -1    0    0    0    0 -0.00000000000E+00 -0.00000000000E+00 -0.45593999997E+02  0.45594000000E+02  0.51100000000E-03 0.  1.
    9900012    2    1    2    0    0  0.40673985791E+01  0.50826672974E+01 -0.17558530170E+02  0.72461568953E+02  0.69999998252E+02 0.  0.
         12    1    1    2    0    0 -0.40673985791E+01 -0.50826672974E+01  0.17558530170E+02  0.18726431047E+02  0.00000000000E+00 0. -1.
         11    1    3    3    0    0 -0.17681339725E+01  0.48223581379E+01  0.76998775996E+01  0.92557847353E+01  0.51100000000E-03 0.  1.
        -11    1    3    3    0    0 -0.93229749574E+01 -0.25843601128E+02 -0.89428016621E+01  0.28892616412E+02  0.51100000000E-03 0. -1.
        -12    1    3    3    0    0  0.15158507509E+02  0.26103910287E+02 -0.16315606107E+02  0.34313167805E+02  0.00000000000E+00 0.  1.
</event>
<event>
 7    1  0.3162486E-013  0.7246159E+02  0.7816164E-02  0.1226708E+00
        -11   -1    0    0    0    0  0.00000000000E+00  0.00000000000E+00  0.45593999997E+02  0.45594000000E+02  0.51100000000E-03 0.  1.
         11   -1    0    0    0    0 -0.00000000000E+00 -0.00000000000E+00 -0.45593999997E+02  0.45594000000E+02  0.51100000000E-03 0. -1.
    9900012    2    1    2    0    0  0.20801290444E+01 -0.18014099562E+02  0.46737364283E+01  0.72461587314E+02  0.70000022172E+02 0.  0.
         12    1    1    2    0    0 -0.20801290444E+01  0.18014099562E+02 -0.46737364283E+01  0.18726412686E+02  0.00000000000E+00 0. -1.
         11    1    3    3    0    0  0.25153833677E+02  0.11667422637E+02  0.38162529214E+01  0.27989424543E+02  0.51100000000E-03 0. -1.
        -11    1    3    3    0    0 -0.19333769441E+01  0.37364211237E+01  0.25018406957E+01  0.48946906286E+01  0.51100000000E-03 0.  1.
         12    1    3    3    0    0 -0.21140327688E+02 -0.33417943323E+02 -0.16443571888E+01  0.39577472143E+02  0.00000000000E+00 0. -1.
</event>
<event>
 7    1  0.3162486E-013  0.7246197E+02  0.7816164E-02  0.1226707E+00
        -11   -1    0    0    0    0  0.00000000000E+00  0.00000000000E+00  0.45593999997E+02  0.45594000000E+02  0.51100000000E-03 0. -1.
         11   -1    0    0    0    0 -0.00000000000E+00 -0.00000000000E+00 -0.45593999997E+02  0.45594000000E+02  0.51100000000E-03 0.  1.
    9900012    2    1    2    0    0 -0.18177923585E+02  0.41074742586E+01 -0.18319450899E+01  0.72461968027E+02  0.70000518119E+02 0.  0.
         12    1    1    2    0    0  0.18177923585E+02 -0.41074742586E+01  0.18319450899E+01  0.18726031973E+02  0.00000000000E+00 0. -1.
         11    1    3    3    0    0 -0.89553930053E+01  0.24404096152E+02  0.16085291156E+02  0.30569520191E+02  0.51100000000E-03 0. -1.
        -11    1    3    3    0    0  0.14342190510E+01  0.46400886839E+01  0.45659975462E+01  0.66660138864E+01  0.51100000000E-03 0.  1.
        -12    1    3    3    0    0 -0.10656749630E+02 -0.24936710577E+02 -0.22483233792E+02  0.35226433950E+02  0.00000000000E+00 0.  1.
</event>
<event>
 7    1  0.3162486E-013  0.7246171E+02  0.7816164E-02  0.1226708E+00
        -11   -1    0    0    0    0  0.00000000000E+00  0.00000000000E+00  0.45593999997E+02  0.45594000000E+02  0.51100000000E-03 0.  1.
         11   -1    0    0    0    0 -0.00000000000E+00 -0.00000000000E+00 -0.45593999997E+02  0.45594000000E+02  0.51100000000E-03 0. -1.
    9900012    2    1    2    0    0 -0.12397744508E+02 -0.39827219445E+01  0.13457627989E+02  0.72461711151E+02  0.70000183492E+02 0.  0.
         12    1    1    2    0    0  0.12397744508E+02  0.39827219445E+01 -0.13457627989E+02  0.18726288849E+02  0.00000000000E+00 0. -1.
         11    1    3    3    0    0 -0.35435044217E+00 -0.29999095546E+01  0.82638211997E+01  0.87986227703E+01  0.51100000000E-03 0. -1.
        -11    1    3    3    0    0 -0.56286893256E+01  0.55484289812E+01  0.33236838324E+02  0.34163644854E+02  0.51100000000E-03 0.  1.
         12    1    3    3    0    0 -0.64147047398E+01 -0.65312413711E+01 -0.28043031535E+02  0.29499443527E+02  0.00000000000E+00 0. -1.
</event>
<event>
 7    1  0.3162486E-013  0.7246152E+02  0.7816164E-02  0.1226708E+00
        -11   -1    0    0    0    0  0.00000000000E+00  0.00000000000E+00  0.45593999997E+02  0.45594000000E+02  0.51100000000E-03 0.  1.
         11   -1    0    0    0    0 -0.00000000000E+00 -0.00000000000E+00 -0.45593999997E+02  0.45594000000E+02  0.51100000000E-03 0. -1.
    9900012    2    1    2    0    0  0.16754897287E+02 -0.55109683267E+01  0.62915532079E+01  0.72461521507E+02  0.69999936445E+02 0.  0.
         12    1    1    2    0    0 -0.16754897287E+02  0.55109683267E+01 -0.62915532079E+01  0.18726478493E+02  0.00000000000E+00 0. -1.
         11    1    3    3    0    0  0.30027370670E+02 -0.11685584527E+02  0.12844399091E+02  0.34686805321E+02  0.51100000000E-03 0. -1.
        -11    1    3    3    0    0  0.11680758631E+00 -0.93448766961E+01  0.82702079028E+01  0.12479451250E+02  0.51100000000E-03 0.  1.
         12    1    3    3    0    0 -0.13389280969E+02  0.15519492896E+02 -0.14823053786E+02  0.25295264936E+02  0.00000000000E+00 0. -1.
</event>
<event>
 7    1  0.3162486E-013  0.7246156E+02  0.7816164E-02  0.1226708E+00
        -11   -1    0    0    0    0  0.00000000000E+00  0.00000000000E+00  0.45593999997E+02  0.45594000000E+02  0.51100000000E-03 0. -1.
         11   -1    0    0    0    0 -0.00000000000E+00 -0.00000000000E+00 -0.45593999997E+02  0.45594000000E+02  0.51100000000E-03 0.  1.
    9900012    2    1    2    0    0 -0.16614147339E+02 -0.60942953888E+01 -0.61244759746E+01  0.72461560562E+02  0.69999987321E+02 0.  0.
         12    1    1    2    0    0  0.16614147339E+02  0.60942953888E+01  0.61244759746E+01  0.18726439438E+02  0.00000000000E+00 0. -1.
         11    1    3    3    0    0 -0.12855539972E+02  0.14990982367E+02  0.86816936442E+01  0.21572349550E+02  0.51100000000E-03 0. -1.
        -11    1    3    3    0    0 -0.19065170793E+02 -0.48397046564E+01 -0.19915150192E+02  0.27991368062E+02  0.51100000000E-03 0.  1.
         12    1    3    3    0    0  0.15306563427E+02 -0.16245573099E+02  0.51089805737E+01  0.22897842950E+02  0.00000000000E+00 0. -1.
</event>
<event>
 7    1  0.3162486E-013  0.7246155E+02  0.7816164E-02  0.1226708E+00
        -11   -1    0    0    0    0  0.00000000000E+00  0.00000000000E+00  0.45593999997E+02  0.45594000000E+02  0.51100000000E-03 0. -1.
         11   -1    0    0    0    0 -0.00000000000E+00 -0.00000000000E+00 -0.45593999997E+02  0.45594000000E+02  0.51100000000E-03 0.  1.
    9900012    2    1    2    0    0  0.34278511272E+01 -0.16040582721E+02 -0.90349086904E+01  0.72461547255E+02  0.69999969986E+02 0.  0.
         12    1    1    2    0    0 -0.34278511272E+01  0.16040582721E+02  0.90349086904E+01  0.18726452745E+02  0.00000000000E+00 0. -1.
         11    1    3    3    0    0  0.99362467714E+01  0.11284328250E+02 -0.41584160119E+01  0.15599919485E+02  0.51100000000E-03 0. -1.
        -11    1    3    3    0    0  0.87330902538E+01 -0.15938314363E+02 -0.23854765906E+02  0.29989107803E+02  0.51100000000E-03 0.  1.
        -12    1    3    3    0    0 -0.15241485898E+02 -0.11386596608E+02  0.18978273227E+02  0.26872519967E+02  0.00000000000E+00 0.  1.
</event>
<event>
 7    1  0.3162486E-013  0.7246158E+02  0.7816164E-02  0.1226708E+00
        -11   -1    0    0    0    0  0.00000000000E+00  0.00000000000E+00  0.45593999997E+02  0.45594000000E+02  0.51100000000E-03 0. -1.
         11   -1    0    0    0    0 -0.00000000000E+00 -0.00000000000E+00 -0.45593999997E+02  0.45594000000E+02  0.51100000000E-03 0.  1.
    9900012    2    1    2    0    0 -0.12093838339E+02 -0.83126490321E+01 -0.11632615349E+02  0.72461580173E+02  0.70000012868E+02 0.  0.
         12    1    1    2    0    0  0.12093838339E+02  0.83126490321E+01  0.11632615349E+02  0.18726419827E+02  0.00000000000E+00 0. -1.
         11    1    3    3    0    0 -0.45183815386E+01 -0.16340491270E+01  0.15708438287E+02  0.16426835421E+02  0.51100000000E-03 0. -1.
        -11    1    3    3    0    0  0.87428596024E+01  0.17446940570E+02 -0.81128852848E+01  0.21134148603E+02  0.51100000000E-03 0.  1.
         12    1    3    3    0    0 -0.16318316403E+02 -0.24125540475E+02 -0.19228168351E+02  0.34900596149E+02  0.00000000000E+00 0. -1.
</event>
<event>
 7    1  0.3162486E-013  0.7246157E+02  0.7816164E-02  0.1226708E+00
        -11   -1    0    0    0    0  0.00000000000E+00  0.00000000000E+00  0.45593999997E+02  0.45594000000E+02  0.51100000000E-03 0. -1.
         11   -1    0    0    0    0 -0.00000000000E+00 -0.00000000000E+00 -0.45593999997E+02  0.45594000000E+02  0.51100000000E-03 0.  1.
    9900012    2    1    2    0    0  0.94001077686E+01 -0.40192941829E+01  0.15689559897E+02  0.72461573711E+02  0.70000004451E+02 0.  0.
         12    1    1    2    0    0 -0.94001077686E+01  0.40192941829E+01 -0.15689559897E+02  0.18726426289E+02  0.00000000000E+00 0. -1.
         11    1    3    3    0    0  0.11181255149E+01  0.27962327893E+01  0.37840882572E+01  0.48361603239E+01  0.51100000000E-03 0. -1.
        -11    1    3    3    0    0 -0.16539212051E+01 -0.29549647781E+02  0.25735769640E+02  0.39220491820E+02  0.51100000000E-03 0.  1.
         12    1    3    3    0    0  0.99359034589E+01  0.22734120809E+02 -0.13830298000E+02  0.28404921568E+02  0.00000000000E+00 0. -1.
</event>
<event>
 7    1  0.3162486E-013  0.7246156E+02  0.7816164E-02  0.1226708E+00
        -11   -1    0    0    0    0  0.00000000000E+00  0.00000000000E+00  0.45593999997E+02  0.45594000000E+02  0.51100000000E-03 0. -1.
         11   -1    0    0    0    0 -0.00000000000E+00 -0.00000000000E+00 -0.45593999997E+02  0.45594000000E+02  0.51100000000E-03 0.  1.
    9900012    2    1    2    0    0 -0.13238874470E+02  0.92669555400E+01 -0.94623065094E+01  0.72461561292E+02  0.69999988272E+02 0.  0.
         12    1    1    2    0    0  0.13238874470E+02 -0.92669555400E+01  0.94623065094E+01  0.18726438708E+02  0.00000000000E+00 0. -1.
         11    1    3    3    0    0 -0.15514310072E+02 -0.18188273807E+02  0.11384123456E+02  0.26478394744E+02  0.51100000000E-03 0. -1.
        -11    1    3    3    0    0  0.84528175000E+01  0.78451818875E+00  0.36558505928E+01  0.92428803030E+01  0.51100000000E-03 0.  1.
        -12    1    3    3    0    0 -0.61773818985E+01  0.26670711158E+02 -0.24502280558E+02  0.36740286245E+02  0.00000000000E+00 0.  1.
</event>
<event>
 7    1  0.3162486E-013  0.7246157E+02  0.7816164E-02  0.1226708E+00
        -11   -1    0    0    0    0  0.00000000000E+00  0.00000000000E+00  0.45593999997E+02  0.45594000000E+02  0.51100000000E-03 0. -1.
         11   -1    0    0    0    0 -0.00000000000E+00 -0.00000000000E+00 -0.45593999997E+02  0.45594000000E+02  0.51100000000E-03 0.  1.
    9900012    2    1    2    0    0 -0.87261697812E+01  0.79274097523E+01 -0.14549544367E+02  0.72461571998E+02  0.70000002219E+02 0.  0.
         12    1    1    2    0    0  0.87261697812E+01 -0.79274097523E+01  0.14549544367E+02  0.18726428002E+02  0.00000000000E+00 0. -1.
         11    1    3    3    0    0 -0.24630055961E+02  0.19253967878E+02 -0.29206010466E+00  0.31264040607E+02  0.51100000000E-03 0. -1.
        -11    1    3    3    0    0  0.25030726948E+01 -0.20152746090E+02 -0.91404664985E+00  0.20328158535E+02  0.51100000000E-03 0.  1.
        -12    1    3    3    0    0  0.13400813485E+02  0.88261879644E+01 -0.13343437613E+02  0.20869372855E+02  0.00000000000E+00 0.  1.
</event>
<event>
 7    1  0.3162486E-013  0.7246144E+02  0.7816164E-02  0.1226708E+00
        -11   -1    0    0    0    0  0.00000000000E+00  0.00000000000E+00  0.45593999997E+02  0.45594000000E+02  0.51100000000E-03 0. -1.
         11   -1    0    0    0    0 -0.00000000000E+00 -0.00000000000E+00 -0.45593999997E+02  0.45594000000E+02  0.51100000000E-03 0.  1.
    9900012    2    1    2    0    0 -0.14583640212E+02  0.23018515614E+01 -0.11519678072E+02  0.72461439576E+02  0.69999829715E+02 0.  0.
         12    1    1    2    0    0  0.14583640212E+02 -0.23018515614E+01  0.11519678072E+02  0.18726560424E+02  0.00000000000E+00 0. -1.
         11    1    3    3    0    0 -0.42451659673E+01  0.21577436681E+01 -0.34655856101E+01  0.58896159221E+01  0.51100000000E-03 0. -1.
        -11    1    3    3    0    0 -0.38006155339E+02  0.37003229188E+01 -0.44206235389E+01  0.38440891588E+02  0.51100000000E-03 0.  1.
         12    1    3    3    0    0  0.27667681095E+02 -0.35562150255E+01 -0.36334689225E+01  0.28130932066E+02  0.00000000000E+00 0. -1.
</event>
<event>
 7    1  0.3162486E-013  0.7246152E+02  0.7816164E-02  0.1226708E+00
        -11   -1    0    0    0    0  0.00000000000E+00  0.00000000000E+00  0.45593999997E+02  0.45594000000E+02  0.51100000000E-03 0. -1.
         11   -1    0    0    0    0 -0.00000000000E+00 -0.00000000000E+00 -0.45593999997E+02  0.45594000000E+02  0.51100000000E-03 0.  1.
    9900012    2    1    2    0    0 -0.12208517510E+02 -0.91433209082E+01 -0.10864292267E+02  0.72461519725E+02  0.69999934125E+02 0.  0.
         12    1    1    2    0    0  0.12208517510E+02  0.91433209082E+01  0.10864292267E+02  0.18726480275E+02  0.00000000000E+00 0. -1.
         11    1    3    3    0    0  0.22153263204E+01 -0.53654970043E+01  0.17679273515E+02  0.18607873094E+02  0.51100000000E-03 0. -1.
        -11    1    3    3    0    0 -0.19949649213E+02 -0.17597602176E+02 -0.67194102684E+01  0.27437466732E+02  0.51100000000E-03 0.  1.
        -12    1    3    3    0    0  0.55258053822E+01  0.13819778272E+02 -0.21824155513E+02  0.26416179899E+02  0.00000000000E+00 0.  1.
</event>
<event>
 7    1  0.3162486E-013  0.7246151E+02  0.7816164E-02  0.1226708E+00
        -11   -1    0    0    0    0  0.00000000000E+00  0.00000000000E+00  0.45593999997E+02  0.45594000000E+02  0.51100000000E-03 0.  1.
         11   -1    0    0    0    0 -0.00000000000E+00 -0.00000000000E+00 -0.45593999997E+02  0.45594000000E+02  0.51100000000E-03 0. -1.
    9900012    2    1    2    0    0  0.10355147627E+02 -0.15397526574E+02  0.25236147634E+01  0.72461507043E+02  0.69999917603E+02 0.  0.
         12    1    1    2    0    0 -0.10355147627E+02  0.15397526574E+02 -0.25236147634E+01  0.18726492957E+02  0.00000000000E+00 0. -1.
         11    1    3    3    0    0 -0.18677120398E+02  0.86651666230E+01 -0.11867281806E+02  0.23764518019E+02  0.51100000000E-03 0. -1.
        -11    1    3    3    0    0 -0.20812664449E+01 -0.84230275952E+01 -0.37265393800E+01  0.94427834824E+01  0.51100000000E-03 0.  1.
        -12    1    3    3    0    0  0.31113534470E+02 -0.15639665602E+02  0.18117435949E+02  0.39254205542E+02  0.00000000000E+00 0.  1.
</event>
<event>
 7    1  0.3162486E-013  0.7246158E+02  0.7816164E-02  0.1226708E+00
        -11   -1    0    0    0    0  0.00000000000E+00  0.00000000000E+00  0.45593999997E+02  0.45594000000E+02  0.51100000000E-03 0. -1.
         11   -1    0    0    0    0 -0.00000000000E+00 -0.00000000000E+00 -0.45593999997E+02  0.45594000000E+02  0.51100000000E-03 0.  1.
    9900012    2    1    2    0    0  0.60432565000E+01 -0.10895169540E+02 -0.13980449563E+02  0.72461584475E+02  0.70000018473E+02 0.  0.
         12    1    1    2    0    0 -0.60432565000E+01  0.10895169540E+02  0.13980449563E+02  0.18726415525E+02  0.00000000000E+00 0. -1.
         11    1    3    3    0    0 -0.19391407226E+02 -0.14049948929E+01 -0.37385328501E+01  0.19798416932E+02  0.51100000000E-03 0. -1.
        -11    1    3    3    0    0 -0.11664553579E+02 -0.17919767018E+00  0.32390545378E+01  0.12107245623E+02  0.51100000000E-03 0.  1.
         12    1    3    3    0    0  0.37099217306E+02 -0.93109769771E+01 -0.13480971251E+02  0.40555921920E+02  0.00000000000E+00 0. -1.
</event>
<event>
 7    1  0.3162486E-013  0.7246157E+02  0.7816164E-02  0.1226708E+00
        -11   -1    0    0    0    0  0.00000000000E+00  0.00000000000E+00  0.45593999997E+02  0.45594000000E+02  0.51100000000E-03 0. -1.
         11   -1    0    0    0    0 -0.00000000000E+00 -0.00000000000E+00 -0.45593999997E+02  0.45594000000E+02  0.51100000000E-03 0.  1.
    9900012    2    1    2    0    0 -0.17226235538E+01  0.18586141248E+02 -0.15056359075E+01  0.72461574343E+02  0.70000005275E+02 0.  0.
         12    1    1    2    0    0  0.17226235538E+01 -0.18586141248E+02  0.15056359075E+01  0.18726425657E+02  0.00000000000E+00 0. -1.
         11    1    3    3    0    0 -0.12236715588E+02  0.15416018764E+02  0.42164130531E+01  0.20128809756E+02  0.51100000000E-03 0. -1.
        -11    1    3    3    0    0  0.12207513324E+02  0.25273064526E+02 -0.99251224711E+01  0.29770106288E+02  0.51100000000E-03 0.  1.
         12    1    3    3    0    0 -0.16934212894E+01 -0.22102942042E+02  0.42030735105E+01  0.22562658299E+02  0.00000000000E+00 0. -1.
</event>
<event>
 7    1  0.3162486E-013  0.7246141E+02  0.7816164E-02  0.1226708E+00
        -11   -1    0    0    0    0  0.00000000000E+00  0.00000000000E+00  0.45593999997E+02  0.45594000000E+02  0.51100000000E-03 0.  1.
         11   -1    0    0    0    0 -0.00000000000E+00 -0.00000000000E+00 -0.45593999997E+02  0.45594000000E+02  0.51100000000E-03 0. -1.
    9900012    2    1    2    0    0 -0.57776110655E+01 -0.17351258002E+02  0.40296848968E+01  0.72461406497E+02  0.69999786623E+02 0.  0.
         12    1    1    2    0    0  0.57776110655E+01  0.17351258002E+02 -0.40296848968E+01  0.18726593503E+02  0.00000000000E+00 0. -1.
         11    1    3    3    0    0 -0.19643706615E+02  0.10146032457E-01  0.10166391667E+02  0.22118563071E+02  0.51100000000E-03 0.  1.
        -11    1    3    3    0    0  0.25021654367E+01 -0.97076182792E+01 -0.25053946750E+02  0.26985161340E+02  0.51100000000E-03 0. -1.
         12    1    3    3    0    0  0.11363930113E+02 -0.76537857551E+01  0.18917239979E+02  0.23357682086E+02  0.00000000000E+00 0. -1.
</event>
<event>
 7    1  0.3162486E-013  0.7246155E+02  0.7816164E-02  0.1226708E+00
        -11   -1    0    0    0    0  0.00000000000E+00  0.00000000000E+00  0.45593999997E+02  0.45594000000E+02  0.51100000000E-03 0.  1.
         11   -1    0    0    0    0 -0.00000000000E+00 -0.00000000000E+00 -0.45593999997E+02  0.45594000000E+02  0.51100000000E-03 0. -1.
    9900012    2    1    2    0    0 -0.17168963106E+02 -0.29267409110E+01  0.68804676186E+01  0.72461549692E+02  0.69999973162E+02 0.  0.
         12    1    1    2    0    0  0.17168963106E+02  0.29267409110E+01 -0.68804676186E+01  0.18726450308E+02  0.00000000000E+00 0. -1.
         11    1    3    3    0    0 -0.78279481315E+01  0.15021754654E+01 -0.24738916494E+02  0.25991292631E+02  0.51100000000E-03 0. -1.
        -11    1    3    3    0    0 -0.19486619628E+02  0.31879420264E+01  0.11999043517E+02  0.23105591628E+02  0.51100000000E-03 0.  1.
        -12    1    3    3    0    0  0.10145604654E+02 -0.76168584028E+01  0.19620340595E+02  0.23364665433E+02  0.00000000000E+00 0.  1.
</event>
<event>
 7    1  0.3162486E-013  0.7246159E+02  0.7816164E-02  0.1226708E+00
        -11   -1    0    0    0    0  0.00000000000E+00  0.00000000000E+00  0.45593999997E+02  0.45594000000E+02  0.51100000000E-03 0.  1.
         11   -1    0    0    0    0 -0.00000000000E+00 -0.00000000000E+00 -0.45593999997E+02  0.45594000000E+02  0.51100000000E-03 0. -1.
    9900012    2    1    2    0    0  0.11795752894E+02  0.46829709964E+01 -0.13769836318E+02  0.72461590950E+02  0.70000026908E+02 0.  0.
         12    1    1    2    0    0 -0.11795752894E+02 -0.46829709964E+01  0.13769836318E+02  0.18726409050E+02  0.00000000000E+00 0. -1.
         11    1    3    3    0    0 -0.15152145268E+01  0.43251539741E+01 -0.61047587202E+01  0.76335385802E+01  0.51100000000E-03 0. -1.
        -11    1    3    3    0    0  0.36124370080E+02 -0.12450927725E+02 -0.46242305589E+01  0.38488689552E+02  0.51100000000E-03 0.  1.
         12    1    3    3    0    0 -0.22813402660E+02  0.12808744747E+02 -0.30408470389E+01  0.26339362818E+02  0.00000000000E+00 0. -1.
</event>
<event>
 7    1  0.3162486E-013  0.7246157E+02  0.7816164E-02  0.1226708E+00
        -11   -1    0    0    0    0  0.00000000000E+00  0.00000000000E+00  0.45593999997E+02  0.45594000000E+02  0.51100000000E-03 0.  1.
         11   -1    0    0    0    0 -0.00000000000E+00 -0.00000000000E+00 -0.45593999997E+02  0.45594000000E+02  0.51100000000E-03 0. -1.
    9900012    2    1    2    0    0  0.13135022008E+02 -0.11447924035E+02  0.68626084118E+01  0.72461570493E+02  0.70000000259E+02 0.  0.
         12    1    1    2    0    0 -0.13135022008E+02  0.11447924035E+02 -0.68626084118E+01  0.18726429507E+02  0.00000000000E+00 0. -1.
         11    1    3    3    0    0  0.24576017897E+02  0.78005211389E+01 -0.15414128905E+02  0.30040375428E+02  0.51100000000E-03 0. -1.
        -11    1    3    3    0    0 -0.89676689158E+01  0.58845090624E+01  0.50826505236E+01  0.11869282594E+02  0.51100000000E-03 0.  1.
        -12    1    3    3    0    0 -0.24733269738E+01 -0.25132954237E+02  0.17194086793E+02  0.30551912471E+02  0.00000000000E+00 0.  1.
</event>
<event>
 7    1  0.3162486E-013  0.7246162E+02  0.7816164E-02  0.1226708E+00
        -11   -1    0    0    0    0  0.00000000000E+00  0.00000000000E+00  0.45593999997E+02  0.45594000000E+02  0.51100000000E-03 0. -1.
         11   -1    0    0    0    0 -0.00000000000E+00 -0.00000000000E+00 -0.45593999997E+02  0.45594000000E+02  0.51100000000E-03 0.  1.
    9900012    2    1    2    0    0  0.11103996131E+02 -0.51447991325E+01 -0.14174255768E+02  0.72461622487E+02  0.70000067990E+02 0.  0.
         12    1    1    2    0    0 -0.11103996131E+02  0.51447991325E+01  0.14174255768E+02  0.18726377513E+02  0.00000000000E+00 0. -1.
         11    1    3    3    0    0 -0.20763784904E+02 -0.92676169961E+01  0.14766366241E+02  0.27112157062E+02  0.51100000000E-03 0. -1.
        -11    1    3    3    0    0 -0.81943950234E+00  0.13122552307E+01  0.78666935442E-01  0.15490912292E+01  0.51100000000E-03 0.  1.
        -12    1    3    3    0    0  0.32687220538E+02  0.28105626329E+01 -0.29019288945E+02  0.43800374195E+02  0.00000000000E+00 0.  1.
</event>
<event>
 7    1  0.3162486E-013  0.7246148E+02  0.7816164E-02  0.1226708E+00
        -11   -1    0    0    0    0  0.00000000000E+00  0.00000000000E+00  0.45593999997E+02  0.45594000000E+02  0.51100000000E-03 0. -1.
         11   -1    0    0    0    0 -0.00000000000E+00 -0.00000000000E+00 -0.45593999997E+02  0.45594000000E+02  0.51100000000E-03 0.  1.
    9900012    2    1    2    0    0  0.94627457136E+01 -0.11686714542E+02 -0.11160633717E+02  0.72461478749E+02  0.69999880745E+02 0.  0.
         12    1    1    2    0    0 -0.94627457136E+01  0.11686714542E+02  0.11160633717E+02  0.18726521251E+02  0.00000000000E+00 0. -1.
         11    1    3    3    0    0 -0.10275735137E+02  0.14394556028E+02 -0.12448598384E+02  0.21627796417E+02  0.51100000000E-03 0.  1.
        -11    1    3    3    0    0 -0.81048336957E+01  0.39952826983E+01  0.37285778291E+01  0.97751166726E+01  0.51100000000E-03 0. -1.
        -12    1    3    3    0    0  0.27843314546E+02 -0.30076553268E+02 -0.24406131621E+01  0.41058565659E+02  0.00000000000E+00 0.  1.
</event>
<event>
 7    1  0.3162486E-013  0.7246158E+02  0.7816164E-02  0.1226708E+00
        -11   -1    0    0    0    0  0.00000000000E+00  0.00000000000E+00  0.45593999997E+02  0.45594000000E+02  0.51100000000E-03 0.  1.
         11   -1    0    0    0    0 -0.00000000000E+00 -0.00000000000E+00 -0.45593999997E+02  0.45594000000E+02  0.51100000000E-03 0. -1.
    9900012    2    1    2    0    0  0.61539935642E+01  0.91924845649E+00  0.17662445588E+02  0.72461584469E+02  0.70000018465E+02 0.  0.
         12    1    1    2    0    0 -0.61539935642E+01 -0.91924845649E+00 -0.17662445588E+02  0.18726415531E+02  0.00000000000E+00 0. -1.
         11    1    3    3    0    0 -0.29547921187E+01 -0.59525818699E+01  0.21377390459E+01  0.69809709834E+01  0.51100000000E-03 0. -1.
        -11    1    3    3    0    0 -0.10079020664E+01  0.26739345779E+02  0.28976650814E+02  0.39441789664E+02  0.51100000000E-03 0.  1.
         12    1    3    3    0    0  0.10116687749E+02 -0.19867515453E+02 -0.13451944272E+02  0.26038823821E+02  0.00000000000E+00 0. -1.
</event>
<event>
 7    1  0.3162486E-013  0.7246155E+02  0.7816164E-02  0.1226708E+00
        -11   -1    0    0    0    0  0.00000000000E+00  0.00000000000E+00  0.45593999997E+02  0.45594000000E+02  0.51100000000E-03 0.  1.
         11   -1    0    0    0    0 -0.00000000000E+00 -0.00000000000E+00 -0.45593999997E+02  0.45594000000E+02  0.51100000000E-03 0. -1.
    9900012    2    1    2    0    0  0.11623820293E+02 -0.12944059082E+02  0.69295030306E+01  0.72461551431E+02  0.69999975427E+02 0.  0.
         12    1    1    2    0    0 -0.11623820293E+02  0.12944059082E+02 -0.69295030306E+01  0.18726448569E+02  0.00000000000E+00 0. -1.
         11    1    3    3    0    0 -0.35939971691E+01 -0.24928842761E+01 -0.34842026363E+00  0.43877881224E+01  0.51100000000E-03 0. -1.
        -11    1    3    3    0    0 -0.14904458484E+02 -0.22018141908E+02  0.20122374693E+02  0.33344436107E+02  0.51100000000E-03 0.  1.
        -12    1    3    3    0    0  0.30122275947E+02  0.11566967101E+02 -0.12844451398E+02  0.34729327202E+02  0.00000000000E+00 0.  1.
</event>
<event>
 7    1  0.3162486E-013  0.7246156E+02  0.7816164E-02  0.1226708E+00
        -11   -1    0    0    0    0  0.00000000000E+00  0.00000000000E+00  0.45593999997E+02  0.45594000000E+02  0.51100000000E-03 0. -1.
         11   -1    0    0    0    0 -0.00000000000E+00 -0.00000000000E+00 -0.45593999997E+02  0.45594000000E+02  0.51100000000E-03 0.  1.
    9900012    2    1    2    0    0 -0.48796963589E+01 -0.87713111154E+01 -0.15809242548E+02  0.72461561866E+02  0.69999989021E+02 0.  0.
         12    1    1    2    0    0  0.48796963589E+01  0.87713111154E+01  0.15809242548E+02  0.18726438134E+02  0.00000000000E+00 0. -1.
         11    1    3    3    0    0 -0.86520347895E+01 -0.14123431595E+02 -0.72515580245E+01  0.18080766579E+02  0.51100000000E-03 0. -1.
        -11    1    3    3    0    0 -0.15454488843E+02 -0.27893821024E+01  0.15814914486E+02  0.22287516649E+02  0.51100000000E-03 0.  1.
        -12    1    3    3    0    0  0.19226827273E+02  0.81415025823E+01 -0.24372599010E+02  0.32093278639E+02  0.00000000000E+00 0.  1.
</event>
<event>
 7    1  0.3162486E-013  0.7246159E+02  0.7816164E-02  0.1226708E+00
        -11   -1    0    0    0    0  0.00000000000E+00  0.00000000000E+00  0.45593999997E+02  0.45594000000E+02  0.51100000000E-03 0. -1.
         11   -1    0    0    0    0 -0.00000000000E+00 -0.00000000000E+00 -0.45593999997E+02  0.45594000000E+02  0.51100000000E-03 0.  1.
    9900012    2    1    2    0    0  0.76090820208E+00  0.13123096637E+02 -0.13337313198E+02  0.72461586302E+02  0.70000020853E+02 0.  0.
         12    1    1    2    0    0 -0.76090820208E+00 -0.13123096637E+02  0.13337313198E+02  0.18726413698E+02  0.00000000000E+00 0. -1.
         11    1    3    3    0    0  0.21425493557E+02 -0.10830567424E+02  0.50645778856E+01  0.24535747682E+02  0.51100000000E-03 0. -1.
        -11    1    3    3    0    0 -0.13794044320E+01  0.17158705824E+02 -0.21177340370E+02  0.27291091725E+02  0.51100000000E-03 0.  1.
        -12    1    3    3    0    0 -0.19285180923E+02  0.67949582380E+01  0.27754492864E+01  0.20634746895E+02  0.00000000000E+00 0.  1.
</event>
<event>
 7    1  0.3162486E-013  0.7246201E+02  0.7816164E-02  0.1226707E+00
        -11   -1    0    0    0    0  0.00000000000E+00  0.00000000000E+00  0.45593999997E+02  0.45594000000E+02  0.51100000000E-03 0. -1.
         11   -1    0    0    0    0 -0.00000000000E+00 -0.00000000000E+00 -0.45593999997E+02  0.45594000000E+02  0.51100000000E-03 0.  1.
    9900012    2    1    2    0    0 -0.10303116918E+02 -0.30485834389E+01 -0.15336711788E+02  0.72462007165E+02  0.70000569103E+02 0.  0.
         12    1    1    2    0    0  0.10303116918E+02  0.30485834389E+01  0.15336711788E+02  0.18725992835E+02  0.00000000000E+00 0. -1.
         11    1    3    3    0    0 -0.68438409688E+00 -0.35767021452E+01 -0.37621448062E+01  0.52359252890E+01  0.51100000000E-03 0. -1.
        -11    1    3    3    0    0  0.80988141505E+01  0.88901510655E+01 -0.34812630324E+02  0.36831301999E+02  0.51100000000E-03 0.  1.
         12    1    3    3    0    0 -0.17717546971E+02 -0.83620323592E+01  0.23238063342E+02  0.30394779877E+02  0.00000000000E+00 0. -1.
</event>
<event>
 7    1  0.3162486E-013  0.7246160E+02  0.7816164E-02  0.1226708E+00
        -11   -1    0    0    0    0  0.00000000000E+00  0.00000000000E+00  0.45593999997E+02  0.45594000000E+02  0.51100000000E-03 0.  1.
         11   -1    0    0    0    0 -0.00000000000E+00 -0.00000000000E+00 -0.45593999997E+02  0.45594000000E+02  0.51100000000E-03 0. -1.
    9900012    2    1    2    0    0 -0.60608510103E+01  0.74309813759E+01  0.16084921144E+02  0.72461599188E+02  0.70000037639E+02 0.  0.
         12    1    1    2    0    0  0.60608510103E+01 -0.74309813759E+01 -0.16084921144E+02  0.18726400812E+02  0.00000000000E+00 0. -1.
         11    1    3    3    0    0 -0.84960557761E+01 -0.13989692309E+02 -0.14023033744E+02  0.21553188402E+02  0.51100000000E-03 0. -1.
        -11    1    3    3    0    0  0.15264767069E+01 -0.53613583901E+01 -0.44818792956E+01  0.71527293536E+01  0.51100000000E-03 0.  1.
        -12    1    3    3    0    0  0.90872805881E+00  0.26782032075E+02  0.34589834184E+02  0.43755681432E+02  0.00000000000E+00 0.  1.
</event>
<event>
 7    1  0.3162486E-013  0.7246159E+02  0.7816164E-02  0.1226708E+00
        -11   -1    0    0    0    0  0.00000000000E+00  0.00000000000E+00  0.45593999997E+02  0.45594000000E+02  0.51100000000E-03 0. -1.
         11   -1    0    0    0    0 -0.00000000000E+00 -0.00000000000E+00 -0.45593999997E+02  0.45594000000E+02  0.51100000000E-03 0.  1.
    9900012    2    1    2    0    0  0.17959722861E+02  0.11868588058E+01  0.51689705520E+01  0.72461587219E+02  0.70000022047E+02 0.  0.
         12    1    1    2    0    0 -0.17959722861E+02 -0.11868588058E+01 -0.51689705520E+01  0.18726412781E+02  0.00000000000E+00 0. -1.
         11    1    3    3    0    0  0.22837764516E+02  0.24280100195E+01  0.42497759484E+00  0.22970401105E+02  0.51100000000E-03 0. -1.
        -11    1    3    3    0    0  0.20500636496E+02 -0.30836274317E+01 -0.64225995207E+01  0.21703332457E+02  0.51100000000E-03 0.  1.
         12    1    3    3    0    0 -0.25378678150E+02  0.18424762180E+01  0.11166592478E+02  0.27787853657E+02  0.00000000000E+00 0. -1.
</event>
<event>
 7    1  0.3162486E-013  0.7246153E+02  0.7816164E-02  0.1226708E+00
        -11   -1    0    0    0    0  0.00000000000E+00  0.00000000000E+00  0.45593999997E+02  0.45594000000E+02  0.51100000000E-03 0.  1.
         11   -1    0    0    0    0 -0.00000000000E+00 -0.00000000000E+00 -0.45593999997E+02  0.45594000000E+02  0.51100000000E-03 0. -1.
    9900012    2    1    2    0    0 -0.10099971820E+02  0.14123704970E+02  0.70137150819E+01  0.72461530175E+02  0.69999947737E+02 0.  0.
         12    1    1    2    0    0  0.10099971820E+02 -0.14123704970E+02 -0.70137150819E+01  0.18726469825E+02  0.00000000000E+00 0. -1.
         11    1    3    3    0    0  0.17237513312E+02  0.40584387907E+01  0.67090693117E+01  0.18937117043E+02  0.51100000000E-03 0. -1.
        -11    1    3    3    0    0  0.44421045724E+01 -0.13300540477E+02 -0.99589400148E+00  0.14058039519E+02  0.51100000000E-03 0.  1.
        -12    1    3    3    0    0 -0.31779589704E+02  0.23365806656E+02  0.13005397717E+01  0.39466373613E+02  0.00000000000E+00 0.  1.
</event>
<event>
 7    1  0.3162486E-013  0.7246158E+02  0.7816164E-02  0.1226708E+00
        -11   -1    0    0    0    0  0.00000000000E+00  0.00000000000E+00  0.45593999997E+02  0.45594000000E+02  0.51100000000E-03 0. -1.
         11   -1    0    0    0    0 -0.00000000000E+00 -0.00000000000E+00 -0.45593999997E+02  0.45594000000E+02  0.51100000000E-03 0.  1.
    9900012    2    1    2    0    0 -0.23692553853E+01 -0.16953012536E+02 -0.75934619964E+01  0.72461583626E+02  0.70000017367E+02 0.  0.
         12    1    1    2    0    0  0.23692553853E+01  0.16953012536E+02  0.75934619964E+01  0.18726416374E+02  0.00000000000E+00 0. -1.
         11    1    3    3    0    0  0.49588905706E+01  0.50366820844E+01 -0.21281951621E+02  0.22424991130E+02  0.51100000000E-03 0. -1.
        -11    1    3    3    0    0 -0.12300838509E+02 -0.28570231870E+01 -0.12135991425E+02  0.17514436835E+02  0.51100000000E-03 0.  1.
         12    1    3    3    0    0  0.49726925533E+01 -0.19132671433E+02  0.25824481049E+02  0.32522155661E+02  0.00000000000E+00 0. -1.
</event>
<event>
 7    1  0.3162486E-013  0.7246156E+02  0.7816164E-02  0.1226708E+00
        -11   -1    0    0    0    0  0.00000000000E+00  0.00000000000E+00  0.45593999997E+02  0.45594000000E+02  0.51100000000E-03 0.  1.
         11   -1    0    0    0    0 -0.00000000000E+00 -0.00000000000E+00 -0.45593999997E+02  0.45594000000E+02  0.51100000000E-03 0. -1.
    9900012    2    1    2    0    0  0.28905627189E+00 -0.10760088491E+02  0.15323722488E+02  0.72461560703E+02  0.69999987506E+02 0.  0.
         12    1    1    2    0    0 -0.28905627189E+00  0.10760088491E+02 -0.15323722488E+02  0.18726439297E+02  0.00000000000E+00 0. -1.
         11    1    3    3    0    0 -0.28436888163E+01 -0.23168329279E+02 -0.62871719569E+01  0.24174089004E+02  0.51100000000E-03 0. -1.
        -11    1    3    3    0    0  0.63437425737E+01 -0.14481286416E+02  0.53020641455E+01  0.16675209461E+02  0.51100000000E-03 0.  1.
         12    1    3    3    0    0 -0.32109974855E+01  0.26889527204E+02  0.16308830299E+02  0.31612262239E+02  0.00000000000E+00 0. -1.
</event>
<event>
 7    1  0.3162486E-013  0.7246150E+02  0.7816164E-02  0.1226708E+00
        -11   -1    0    0    0    0  0.00000000000E+00  0.00000000000E+00  0.45593999997E+02  0.45594000000E+02  0.51100000000E-03 0.  1.
         11   -1    0    0    0    0 -0.00000000000E+00 -0.00000000000E+00 -0.45593999997E+02  0.45594000000E+02  0.51100000000E-03 0. -1.
    9900012    2    1    2    0    0  0.36862237634E+01 -0.17171940223E+02  0.64975455572E+01  0.72461498060E+02  0.69999905901E+02 0.  0.
         12    1    1    2    0    0 -0.36862237634E+01  0.17171940223E+02 -0.64975455572E+01  0.18726501940E+02  0.00000000000E+00 0. -1.
         11    1    3    3    0    0  0.20451196344E+02 -0.16657370762E+01  0.54951775135E+01  0.21242012336E+02  0.51100000000E-03 0. -1.
        -11    1    3    3    0    0 -0.73971824608E+01 -0.28808010649E+02  0.11465525481E+02  0.31875979369E+02  0.51100000000E-03 0.  1.
        -12    1    3    3    0    0 -0.93677901199E+01  0.13301807503E+02 -0.10463157437E+02  0.19343506355E+02  0.00000000000E+00 0.  1.
</event>
<event>
 7    1  0.3162486E-013  0.7246203E+02  0.7816164E-02  0.1226707E+00
        -11   -1    0    0    0    0  0.00000000000E+00  0.00000000000E+00  0.45593999997E+02  0.45594000000E+02  0.51100000000E-03 0.  1.
         11   -1    0    0    0    0 -0.00000000000E+00 -0.00000000000E+00 -0.45593999997E+02  0.45594000000E+02  0.51100000000E-03 0. -1.
    9900012    2    1    2    0    0 -0.55976310480E+01 -0.15842491393E+02  0.82670503351E+01  0.72462025309E+02  0.70000592738E+02 0.  0.
         12    1    1    2    0    0  0.55976310480E+01  0.15842491393E+02 -0.82670503351E+01  0.18725974691E+02  0.00000000000E+00 0. -1.
         11    1    3    3    0    0 -0.18276464421E+02 -0.16026874179E+02  0.10533744182E+02  0.26492444479E+02  0.51100000000E-03 0. -1.
        -11    1    3    3    0    0  0.16817134751E+02 -0.29462534924E+01  0.18141480728E+02  0.24912040345E+02  0.51100000000E-03 0.  1.
         12    1    3    3    0    0 -0.41383013778E+01  0.31306362781E+01 -0.20408174575E+02  0.21057540485E+02  0.00000000000E+00 0. -1.
</event>
<event>
 7    1  0.3162486E-013  0.7246152E+02  0.7816164E-02  0.1226708E+00
        -11   -1    0    0    0    0  0.00000000000E+00  0.00000000000E+00  0.45593999997E+02  0.45594000000E+02  0.51100000000E-03 0.  1.
         11   -1    0    0    0    0 -0.00000000000E+00 -0.00000000000E+00 -0.45593999997E+02  0.45594000000E+02  0.51100000000E-03 0. -1.
    9900012    2    1    2    0    0  0.78897096106E+01 -0.88251539493E+01  0.14510349181E+02  0.72461518929E+02  0.69999933086E+02 0.  0.
         12    1    1    2    0    0 -0.78897096106E+01  0.88251539493E+01 -0.14510349181E+02  0.18726481071E+02  0.00000000000E+00 0. -1.
         11    1    3    3    0    0 -0.97617447456E+01 -0.17474459883E+02  0.16445596213E+02  0.25905714500E+02  0.51100000000E-03 0. -1.
        -11    1    3    3    0    0  0.62415326893E+01 -0.15266237711E+02 -0.94559243351E+01  0.19011292682E+02  0.51100000000E-03 0.  1.
         12    1    3    3    0    0  0.11409921667E+02  0.23915543645E+02  0.75206773031E+01  0.27544511747E+02  0.00000000000E+00 0. -1.
</event>
<event>
 7    1  0.3162486E-013  0.7246145E+02  0.7816164E-02  0.1226708E+00
        -11   -1    0    0    0    0  0.00000000000E+00  0.00000000000E+00  0.45593999997E+02  0.45594000000E+02  0.51100000000E-03 0.  1.
         11   -1    0    0    0    0 -0.00000000000E+00 -0.00000000000E+00 -0.45593999997E+02  0.45594000000E+02  0.51100000000E-03 0. -1.
    9900012    2    1    2    0    0 -0.14408360336E+02 -0.81718838268E+01  0.87351700711E+01  0.72461448555E+02  0.69999841412E+02 0.  0.
         12    1    1    2    0    0  0.14408360336E+02  0.81718838268E+01 -0.87351700711E+01  0.18726551445E+02  0.00000000000E+00 0. -1.
         11    1    3    3    0    0 -0.83091615335E+01  0.12002130561E+02 -0.17855275450E+02  0.23063047609E+02  0.51100000000E-03 0. -1.
        -11    1    3    3    0    0  0.83368586600E+01  0.29778748566E+01 -0.28105762768E+01  0.92881801365E+01  0.51100000000E-03 0.  1.
        -12    1    3    3    0    0 -0.14436057462E+02 -0.23151889244E+02  0.29401021798E+02  0.40110220809E+02  0.00000000000E+00 0.  1.
</event>
<event>
 7    1  0.3162486E-013  0.7246137E+02  0.7816164E-02  0.1226709E+00
        -11   -1    0    0    0    0  0.00000000000E+00  0.00000000000E+00  0.45593999997E+02  0.45594000000E+02  0.51100000000E-03 0. -1.
         11   -1    0    0    0    0 -0.00000000000E+00 -0.00000000000E+00 -0.45593999997E+02  0.45594000000E+02  0.51100000000E-03 0.  1.
    9900012    2    1    2    0    0  0.10541077405E+02 -0.12858680654E+02 -0.86154868827E+01  0.72461372027E+02  0.69999741720E+02 0.  0.
         12    1    1    2    0    0 -0.10541077405E+02  0.12858680654E+02  0.86154868827E+01  0.18726627973E+02  0.00000000000E+00 0. -1.
         11    1    3    3    0    0  0.32351208928E+01 -0.12669827674E+02  0.86214329245E+01  0.15662683244E+02  0.51100000000E-03 0. -1.
        -11    1    3    3    0    0 -0.13808794044E+02  0.18811256549E+02 -0.16138707021E+02  0.28372592946E+02  0.51100000000E-03 0.  1.
         12    1    3    3    0    0  0.21114750557E+02 -0.19000109529E+02 -0.10982127858E+01  0.28426095836E+02  0.00000000000E+00 0. -1.
</event>
<event>
 7    1  0.3162486E-013  0.7246157E+02  0.7816164E-02  0.1226708E+00
        -11   -1    0    0    0    0  0.00000000000E+00  0.00000000000E+00  0.45593999997E+02  0.45594000000E+02  0.51100000000E-03 0.  1.
         11   -1    0    0    0    0 -0.00000000000E+00 -0.00000000000E+00 -0.45593999997E+02  0.45594000000E+02  0.51100000000E-03 0. -1.
    9900012    2    1    2    0    0 -0.10269094974E+02 -0.11644591415E+01  0.15616302984E+02  0.72461569598E+02  0.69999999093E+02 0.  0.
         12    1    1    2    0    0  0.10269094974E+02  0.11644591415E+01 -0.15616302984E+02  0.18726430402E+02  0.00000000000E+00 0. -1.
         11    1    3    3    0    0 -0.29114025815E+01  0.10362746287E+01  0.83966092407E+01  0.89472441064E+01  0.51100000000E-03 0. -1.
        -11    1    3    3    0    0 -0.22521822488E+02 -0.22026935047E+02  0.18047885164E+02  0.36306259996E+02  0.51100000000E-03 0.  1.
         12    1    3    3    0    0  0.15164130095E+02  0.19826201277E+02 -0.10828191420E+02  0.27208065496E+02  0.00000000000E+00 0. -1.
</event>
<event>
 7    1  0.3162486E-013  0.7246161E+02  0.7816164E-02  0.1226708E+00
        -11   -1    0    0    0    0  0.00000000000E+00  0.00000000000E+00  0.45593999997E+02  0.45594000000E+02  0.51100000000E-03 0. -1.
         11   -1    0    0    0    0 -0.00000000000E+00 -0.00000000000E+00 -0.45593999997E+02  0.45594000000E+02  0.51100000000E-03 0.  1.
    9900012    2    1    2    0    0  0.99012171268E+01  0.75144598668E+01 -0.14006305389E+02  0.72461606906E+02  0.70000047693E+02 0.  0.
         12    1    1    2    0    0 -0.99012171268E+01 -0.75144598668E+01  0.14006305389E+02  0.18726393094E+02  0.00000000000E+00 0. -1.
         11    1    3    3    0    0  0.34650338423E+01  0.17621048758E+02  0.14507903446E+01  0.18017008957E+02  0.51100000000E-03 0. -1.
        -11    1    3    3    0    0  0.24774966310E+02  0.55792036407E+01  0.69671642653E+00  0.25404957843E+02  0.51100000000E-03 0.  1.
         12    1    3    3    0    0 -0.18338783026E+02 -0.15685792532E+02 -0.16153812160E+02  0.29039640107E+02  0.00000000000E+00 0. -1.
</event>
<event>
 7    1  0.3162486E-013  0.7246157E+02  0.7816164E-02  0.1226708E+00
        -11   -1    0    0    0    0  0.00000000000E+00  0.00000000000E+00  0.45593999997E+02  0.45594000000E+02  0.51100000000E-03 0.  1.
         11   -1    0    0    0    0 -0.00000000000E+00 -0.00000000000E+00 -0.45593999997E+02  0.45594000000E+02  0.51100000000E-03 0. -1.
    9900012    2    1    2    0    0  0.85730392097E+01  0.16641261827E+02 -0.50076805938E+00  0.72461565071E+02  0.69999993196E+02 0.  0.
         12    1    1    2    0    0 -0.85730392097E+01 -0.16641261827E+02  0.50076805938E+00  0.18726434929E+02  0.00000000000E+00 0. -1.
         11    1    3    3    0    0  0.13984992009E+02  0.34676154466E+01 -0.39685846878E+01  0.14945033391E+02  0.51100000000E-03 0. -1.
        -11    1    3    3    0    0 -0.14020298501E+00 -0.19937130144E+02  0.11532056136E+02  0.23032523401E+02  0.51100000000E-03 0.  1.
        -12    1    3    3    0    0 -0.52717498142E+01  0.33110776524E+02 -0.80642395076E+01  0.34484008279E+02  0.00000000000E+00 0.  1.
</event>
<event>
 7    1  0.3162486E-013  0.7246144E+02  0.7816164E-02  0.1226708E+00
        -11   -1    0    0    0    0  0.00000000000E+00  0.00000000000E+00  0.45593999997E+02  0.45594000000E+02  0.51100000000E-03 0.  1.
         11   -1    0    0    0    0 -0.00000000000E+00 -0.00000000000E+00 -0.45593999997E+02  0.45594000000E+02  0.51100000000E-03 0. -1.
    9900012    2    1    2    0    0  0.14913740048E+02  0.81585923972E+01 -0.78550465824E+01  0.72461440547E+02  0.69999830980E+02 0.  0.
         12    1    1    2    0    0 -0.14913740048E+02 -0.81585923972E+01  0.78550465824E+01  0.18726559453E+02  0.00000000000E+00 0. -1.
         11    1    3    3    0    0  0.64177820491E+01 -0.22248582406E+02 -0.88147513429E+01  0.24776746901E+02  0.51100000000E-03 0. -1.
        -11    1    3    3    0    0 -0.46531075990E+01 -0.47400710990E+01  0.70287697492E+01  0.96707439631E+01  0.51100000000E-03 0.  1.
        -12    1    3    3    0    0  0.13149065598E+02  0.35147245903E+02 -0.60690649887E+01  0.38013949683E+02  0.00000000000E+00 0.  1.
</event>
<event>
 7    1  0.3162486E-013  0.7246158E+02  0.7816164E-02  0.1226708E+00
        -11   -1    0    0    0    0  0.00000000000E+00  0.00000000000E+00  0.45593999997E+02  0.45594000000E+02  0.51100000000E-03 0.  1.
         11   -1    0    0    0    0 -0.00000000000E+00 -0.00000000000E+00 -0.45593999997E+02  0.45594000000E+02  0.51100000000E-03 0. -1.
    9900012    2    1    2    0    0  0.38899453822E+01  0.15239478762E+02  0.10163919750E+02  0.72461584093E+02  0.70000017976E+02 0.  0.
         12    1    1    2    0    0 -0.38899453822E+01 -0.15239478762E+02 -0.10163919750E+02  0.18726415907E+02  0.00000000000E+00 0. -1.
         11    1    3    3    0    0 -0.31895398742E+01  0.11469730803E+02  0.86778459338E+01  0.14732036506E+02  0.51100000000E-03 0. -1.
        -11    1    3    3    0    0  0.13081693331E+02 -0.35342697084E+01  0.27169619250E+02  0.30361323641E+02  0.51100000000E-03 0.  1.
         12    1    3    3    0    0 -0.60022080748E+01  0.73040176676E+01 -0.25683545434E+02  0.27368223946E+02  0.00000000000E+00 0. -1.
</event>
<event>
 7    1  0.3162486E-013  0.7246155E+02  0.7816164E-02  0.1226708E+00
        -11   -1    0    0    0    0  0.00000000000E+00  0.00000000000E+00  0.45593999997E+02  0.45594000000E+02  0.51100000000E-03 0. -1.
         11   -1    0    0    0    0 -0.00000000000E+00 -0.00000000000E+00 -0.45593999997E+02  0.45594000000E+02  0.51100000000E-03 0.  1.
    9900012    2    1    2    0    0  0.18018475128E+02  0.32337459978E+01 -0.39442791928E+01  0.72461550858E+02  0.69999974681E+02 0.  0.
         12    1    1    2    0    0 -0.18018475128E+02 -0.32337459978E+01  0.39442791928E+01  0.18726449142E+02  0.00000000000E+00 0. -1.
         11    1    3    3    0    0 -0.14131873284E+01 -0.17990602557E+01 -0.88608113896E+01  0.91513766709E+01  0.51100000000E-03 0. -1.
        -11    1    3    3    0    0 -0.10473540867E+02  0.21243361434E+02 -0.10567687830E+02  0.25935525629E+02  0.51100000000E-03 0.  1.
         12    1    3    3    0    0  0.29905203323E+02 -0.16210555181E+02  0.15484220026E+02  0.37374648559E+02  0.00000000000E+00 0. -1.
</event>
<event>
 7    1  0.3162486E-013  0.7246158E+02  0.7816164E-02  0.1226708E+00
        -11   -1    0    0    0    0  0.00000000000E+00  0.00000000000E+00  0.45593999997E+02  0.45594000000E+02  0.51100000000E-03 0.  1.
         11   -1    0    0    0    0 -0.00000000000E+00 -0.00000000000E+00 -0.45593999997E+02  0.45594000000E+02  0.51100000000E-03 0. -1.
    9900012    2    1    2    0    0  0.16353340697E+02 -0.42915140379E+01  0.80517003425E+01  0.72461582214E+02  0.70000015528E+02 0.  0.
         12    1    1    2    0    0 -0.16353340697E+02  0.42915140379E+01 -0.80517003425E+01  0.18726417786E+02  0.00000000000E+00 0. -1.
         11    1    3    3    0    0 -0.13133317850E+01  0.26601971535E+01 -0.26106878990E+01  0.39518578973E+01  0.51100000000E-03 0. -1.
        -11    1    3    3    0    0 -0.14956809973E+02 -0.73699987470E+01 -0.18389694966E+02  0.24823455185E+02  0.51100000000E-03 0.  1.
        -12    1    3    3    0    0  0.32623482455E+02  0.41828755558E+00  0.29052083208E+02  0.43686269132E+02  0.00000000000E+00 0.  1.
</event>
<event>
 7    1  0.3162486E-013  0.7246157E+02  0.7816164E-02  0.1226708E+00
        -11   -1    0    0    0    0  0.00000000000E+00  0.00000000000E+00  0.45593999997E+02  0.45594000000E+02  0.51100000000E-03 0. -1.
         11   -1    0    0    0    0 -0.00000000000E+00 -0.00000000000E+00 -0.45593999997E+02  0.45594000000E+02  0.51100000000E-03 0.  1.
    9900012    2    1    2    0    0  0.15017824660E+02  0.79887656885E+01  0.78309451436E+01  0.72461571173E+02  0.70000001145E+02 0.  0.
         12    1    1    2    0    0 -0.15017824660E+02 -0.79887656885E+01 -0.78309451436E+01  0.18726428827E+02  0.00000000000E+00 0. -1.
         11    1    3    3    0    0 -0.13191496046E+02  0.57637688714E+01  0.94886523499E+01  0.17241552227E+02  0.51100000000E-03 0. -1.
        -11    1    3    3    0    0  0.22477792623E+02  0.17146385394E+02  0.15108841117E+02  0.32055058469E+02  0.51100000000E-03 0.  1.
         12    1    3    3    0    0  0.57315280827E+01 -0.14921388577E+02 -0.16766548323E+02  0.23164960477E+02  0.00000000000E+00 0. -1.
</event>
<event>
 7    1  0.3162486E-013  0.7246156E+02  0.7816164E-02  0.1226708E+00
        -11   -1    0    0    0    0  0.00000000000E+00  0.00000000000E+00  0.45593999997E+02  0.45594000000E+02  0.51100000000E-03 0. -1.
         11   -1    0    0    0    0 -0.00000000000E+00 -0.00000000000E+00 -0.45593999997E+02  0.45594000000E+02  0.51100000000E-03 0.  1.
    9900012    2    1    2    0    0  0.33477760740E+01 -0.14338817635E+02 -0.11570229015E+02  0.72461561597E+02  0.69999988670E+02 0.  0.
         12    1    1    2    0    0 -0.33477760740E+01  0.14338817635E+02  0.11570229015E+02  0.18726438403E+02  0.00000000000E+00 0. -1.
         11    1    3    3    0    0  0.30053598467E+02 -0.13726360797E+02 -0.77571141311E+01  0.33938246588E+02  0.51100000000E-03 0. -1.
        -11    1    3    3    0    0  0.44819585302E+01 -0.48701805110E+01  0.95486301170E+00  0.66871798322E+01  0.51100000000E-03 0.  1.
        -12    1    3    3    0    0 -0.31187780923E+02  0.42577236732E+01 -0.47679778957E+01  0.31836135177E+02  0.00000000000E+00 0.  1.
</event>
<event>
 7    1  0.3162486E-013  0.7246157E+02  0.7816164E-02  0.1226708E+00
        -11   -1    0    0    0    0  0.00000000000E+00  0.00000000000E+00  0.45593999997E+02  0.45594000000E+02  0.51100000000E-03 0.  1.
         11   -1    0    0    0    0 -0.00000000000E+00 -0.00000000000E+00 -0.45593999997E+02  0.45594000000E+02  0.51100000000E-03 0. -1.
    9900012    2    1    2    0    0 -0.75464438000E+01 -0.14012464177E+02 -0.98681963650E+01  0.72461567723E+02  0.69999996650E+02 0.  0.
         12    1    1    2    0    0  0.75464438000E+01  0.14012464177E+02  0.98681963650E+01  0.18726432277E+02  0.00000000000E+00 0. -1.
         11    1    3    3    0    0  0.16430008675E+01  0.13393610658E+01 -0.18444404217E+01  0.28098577625E+01  0.51100000000E-03 0. -1.
        -11    1    3    3    0    0 -0.26816772890E+02  0.11896532084E+02  0.11801982813E+02  0.31622042667E+02  0.51100000000E-03 0.  1.
         12    1    3    3    0    0  0.17627328222E+02 -0.27248357326E+02 -0.19825738756E+02  0.38029667294E+02  0.00000000000E+00 0. -1.
</event>
<event>
 7    1  0.3162486E-013  0.7246158E+02  0.7816164E-02  0.1226708E+00
        -11   -1    0    0    0    0  0.00000000000E+00  0.00000000000E+00  0.45593999997E+02  0.45594000000E+02  0.51100000000E-03 0. -1.
         11   -1    0    0    0    0 -0.00000000000E+00 -0.00000000000E+00 -0.45593999997E+02  0.45594000000E+02  0.51100000000E-03 0.  1.
    9900012    2    1    2    0    0 -0.15244107432E+02 -0.78801144545E+01 -0.74966513298E+01  0.72461580257E+02  0.70000012979E+02 0.  0.
         12    1    1    2    0    0  0.15244107432E+02  0.78801144545E+01  0.74966513298E+01  0.18726419743E+02  0.00000000000E+00 0. -1.
         11    1    3    3    0    0 -0.24666866102E+02 -0.11815693241E+02 -0.20026820886E+02  0.33898944601E+02  0.51100000000E-03 0. -1.
        -11    1    3    3    0    0 -0.11467508129E+02 -0.53686134633E+01  0.87316414271E+01  0.15380744959E+02  0.51100000000E-03 0.  1.
        -12    1    3    3    0    0  0.20890266799E+02  0.93041922498E+01  0.37985281287E+01  0.23181890697E+02  0.00000000000E+00 0.  1.
</event>
<event>
 7    1  0.3162486E-013  0.7246156E+02  0.7816164E-02  0.1226708E+00
        -11   -1    0    0    0    0  0.00000000000E+00  0.00000000000E+00  0.45593999997E+02  0.45594000000E+02  0.51100000000E-03 0.  1.
         11   -1    0    0    0    0 -0.00000000000E+00 -0.00000000000E+00 -0.45593999997E+02  0.45594000000E+02  0.51100000000E-03 0. -1.
    9900012    2    1    2    0    0  0.48459600169E+01 -0.39036475681E+01  0.17662321666E+02  0.72461564155E+02  0.69999992002E+02 0.  0.
         12    1    1    2    0    0 -0.48459600169E+01  0.39036475681E+01 -0.17662321666E+02  0.18726435845E+02  0.00000000000E+00 0. -1.
         11    1    3    3    0    0  0.61602040628E+01  0.23935738588E+02  0.40408990691E+01  0.25043892697E+02  0.51100000000E-03 0. -1.
        -11    1    3    3    0    0 -0.61585814794E+01  0.72016886031E+01  0.60486715931E+01  0.11241835832E+02  0.51100000000E-03 0.  1.
        -12    1    3    3    0    0  0.48443374336E+01 -0.35041074759E+02  0.75727510041E+01  0.36175835626E+02  0.00000000000E+00 0.  1.
</event>
<event>
 7    1  0.3162486E-013  0.7246162E+02  0.7816164E-02  0.1226708E+00
        -11   -1    0    0    0    0  0.00000000000E+00  0.00000000000E+00  0.45593999997E+02  0.45594000000E+02  0.51100000000E-03 0.  1.
         11   -1    0    0    0    0 -0.00000000000E+00 -0.00000000000E+00 -0.45593999997E+02  0.45594000000E+02  0.51100000000E-03 0. -1.
    9900012    2    1    2    0    0 -0.14005649175E+02  0.12203300319E+02 -0.23661294995E+01  0.72461619776E+02  0.70000064459E+02 0.  0.
         12    1    1    2    0    0  0.14005649175E+02 -0.12203300319E+02  0.23661294995E+01  0.18726380224E+02  0.00000000000E+00 0. -1.
         11    1    3    3    0    0  0.89487209860E+00 -0.86132663725E+01 -0.22420339926E+02  0.24034575019E+02  0.51100000000E-03 0. -1.
        -11    1    3    3    0    0 -0.10786113876E+02  0.14124181692E+02 -0.78572070861E+01  0.19431121029E+02  0.51100000000E-03 0.  1.
        -12    1    3    3    0    0 -0.41144073983E+01  0.66923849995E+01  0.27911417513E+02  0.28995923727E+02  0.00000000000E+00 0.  1.
</event>
<event>
 7    1  0.3162486E-013  0.7246155E+02  0.7816164E-02  0.1226708E+00
        -11   -1    0    0    0    0  0.00000000000E+00  0.00000000000E+00  0.45593999997E+02  0.45594000000E+02  0.51100000000E-03 0. -1.
         11   -1    0    0    0    0 -0.00000000000E+00 -0.00000000000E+00 -0.45593999997E+02  0.45594000000E+02  0.51100000000E-03 0.  1.
    9900012    2    1    2    0    0 -0.15482175925E+02 -0.89741298546E+01 -0.55179094497E+01  0.72461545378E+02  0.69999967542E+02 0.  0.
         12    1    1    2    0    0  0.15482175925E+02  0.89741298546E+01  0.55179094497E+01  0.18726454622E+02  0.00000000000E+00 0. -1.
         11    1    3    3    0    0 -0.13374331319E+02  0.47169466129E-01  0.31057716765E+01  0.13730287002E+02  0.51100000000E-03 0. -1.
        -11    1    3    3    0    0 -0.81124209493E+01 -0.90600408754E+01 -0.32190700476E+02  0.34411290469E+02  0.51100000000E-03 0.  1.
         12    1    3    3    0    0  0.60045763432E+01  0.38741554644E-01  0.23567019350E+02  0.24319967907E+02  0.00000000000E+00 0. -1.
</event>
<event>
 7    1  0.3162486E-013  0.7246157E+02  0.7816164E-02  0.1226708E+00
        -11   -1    0    0    0    0  0.00000000000E+00  0.00000000000E+00  0.45593999997E+02  0.45594000000E+02  0.51100000000E-03 0.  1.
         11   -1    0    0    0    0 -0.00000000000E+00 -0.00000000000E+00 -0.45593999997E+02  0.45594000000E+02  0.51100000000E-03 0. -1.
    9900012    2    1    2    0    0  0.22369981116E+01  0.64752203181E+01  0.17428328876E+02  0.72461567181E+02  0.69999995944E+02 0.  0.
         12    1    1    2    0    0 -0.22369981116E+01 -0.64752203181E+01 -0.17428328876E+02  0.18726432819E+02  0.00000000000E+00 0. -1.
         11    1    3    3    0    0 -0.20052541836E+01  0.49237036431E+01 -0.82725548958E+01  0.98335683590E+01  0.51100000000E-03 0. -1.
        -11    1    3    3    0    0 -0.15127568197E+02  0.12420491129E+02 -0.89080277956E+01  0.21504996603E+02  0.51100000000E-03 0.  1.
        -12    1    3    3    0    0  0.19369820492E+02 -0.10868974454E+02  0.34608911567E+02  0.41123002218E+02  0.00000000000E+00 0.  1.
</event>
<event>
 7    1  0.3162486E-013  0.7246159E+02  0.7816164E-02  0.1226708E+00
        -11   -1    0    0    0    0  0.00000000000E+00  0.00000000000E+00  0.45593999997E+02  0.45594000000E+02  0.51100000000E-03 0.  1.
         11   -1    0    0    0    0 -0.00000000000E+00 -0.00000000000E+00 -0.45593999997E+02  0.45594000000E+02  0.51100000000E-03 0. -1.
    9900012    2    1    2    0    0 -0.57224383258E+01 -0.17705440668E+02  0.21094074861E+01  0.72461587381E+02  0.70000022259E+02 0.  0.
         12    1    1    2    0    0  0.57224383258E+01  0.17705440668E+02 -0.21094074861E+01  0.18726412619E+02  0.00000000000E+00 0. -1.
         11    1    3    3    0    0  0.33813901974E+01 -0.13954717808E+02 -0.30680483390E+00  0.14361827121E+02  0.51100000000E-03 0. -1.
        -11    1    3    3    0    0  0.12992251713E+02 -0.19286048118E+02  0.15641387934E+02  0.28025047249E+02  0.51100000000E-03 0.  1.
         12    1    3    3    0    0 -0.22096080236E+02  0.15535325258E+02 -0.13225175614E+02  0.30074713011E+02  0.00000000000E+00 0. -1.
</event>
<event>
 7    1  0.3162486E-013  0.7246142E+02  0.7816164E-02  0.1226708E+00
        -11   -1    0    0    0    0  0.00000000000E+00  0.00000000000E+00  0.45593999997E+02  0.45594000000E+02  0.51100000000E-03 0.  1.
         11   -1    0    0    0    0 -0.00000000000E+00 -0.00000000000E+00 -0.45593999997E+02  0.45594000000E+02  0.51100000000E-03 0. -1.
    9900012    2    1    2    0    0  0.69123603892E+00 -0.12926187471E+02 -0.13532204172E+02  0.72461423176E+02  0.69999808351E+02 0.  0.
         12    1    1    2    0    0 -0.69123603892E+00  0.12926187471E+02  0.13532204172E+02  0.18726576824E+02  0.00000000000E+00 0. -1.
         11    1    3    3    0    0 -0.27002573178E+02 -0.13578086075E+02 -0.16918027756E+02  0.34637018392E+02  0.51100000000E-03 0. -1.
        -11    1    3    3    0    0 -0.35482130237E+01 -0.32875569321E+01  0.40789302686E+01  0.63273626924E+01  0.51100000000E-03 0.  1.
        -12    1    3    3    0    0  0.31242022241E+02  0.39394555365E+01 -0.69310668534E+00  0.31497042091E+02  0.00000000000E+00 0.  1.
</event>
<event>
 7    1  0.3162486E-013  0.7246157E+02  0.7816164E-02  0.1226708E+00
        -11   -1    0    0    0    0  0.00000000000E+00  0.00000000000E+00  0.45593999997E+02  0.45594000000E+02  0.51100000000E-03 0.  1.
         11   -1    0    0    0    0 -0.00000000000E+00 -0.00000000000E+00 -0.45593999997E+02  0.45594000000E+02  0.51100000000E-03 0. -1.
    9900012    2    1    2    0    0  0.87693802986E+01 -0.51358095778E+01  0.15728970938E+02  0.72461572214E+02  0.70000002501E+02 0.  0.
         12    1    1    2    0    0 -0.87693802986E+01  0.51358095778E+01 -0.15728970938E+02  0.18726427786E+02  0.00000000000E+00 0. -1.
         11    1    3    3    0    0  0.15398333372E+02  0.13393612305E+02  0.23295980164E+02  0.30970957578E+02  0.51100000000E-03 0. -1.
        -11    1    3    3    0    0  0.81318595281E+01  0.38622236860E+01  0.65971366585E+01  0.11160919475E+02  0.51100000000E-03 0.  1.
         12    1    3    3    0    0 -0.14760812602E+02 -0.22391645569E+02 -0.14164145884E+02  0.30329695161E+02  0.00000000000E+00 0. -1.
</event>
<event>
 7    1  0.3162486E-013  0.7246160E+02  0.7816164E-02  0.1226708E+00
        -11   -1    0    0    0    0  0.00000000000E+00  0.00000000000E+00  0.45593999997E+02  0.45594000000E+02  0.51100000000E-03 0.  1.
         11   -1    0    0    0    0 -0.00000000000E+00 -0.00000000000E+00 -0.45593999997E+02  0.45594000000E+02  0.51100000000E-03 0. -1.
    9900012    2    1    2    0    0  0.10545633000E+02  0.14682826304E+02 -0.48869650213E+01  0.72461596427E+02  0.70000034043E+02 0.  0.
         12    1    1    2    0    0 -0.10545633000E+02 -0.14682826304E+02  0.48869650213E+01  0.18726403573E+02  0.00000000000E+00 0. -1.
         11    1    3    3    0    0  0.40424437587E-01  0.11292160891E+02 -0.15941717518E+02  0.19535938406E+02  0.51100000000E-03 0. -1.
        -11    1    3    3    0    0 -0.19440427201E+02 -0.40793985818E+01  0.95119520293E+01  0.22023826511E+02  0.51100000000E-03 0.  1.
         12    1    3    3    0    0  0.29945635763E+02  0.74700639950E+01  0.15428004672E+01  0.30901831510E+02  0.00000000000E+00 0. -1.
</event>
<event>
 7    1  0.3162486E-013  0.7246089E+02  0.7816164E-02  0.1226710E+00
        -11   -1    0    0    0    0  0.00000000000E+00  0.00000000000E+00  0.45593999997E+02  0.45594000000E+02  0.51100000000E-03 0.  1.
         11   -1    0    0    0    0 -0.00000000000E+00 -0.00000000000E+00 -0.45593999997E+02  0.45594000000E+02  0.51100000000E-03 0. -1.
    9900012    2    1    2    0    0  0.91793003510E+01  0.15603116870E+02 -0.47945572873E+01  0.72460891559E+02  0.69999115815E+02 0.  0.
         12    1    1    2    0    0 -0.91793003510E+01 -0.15603116870E+02  0.47945572873E+01  0.18727108441E+02  0.00000000000E+00 0. -1.
         11    1    3    3    0    0  0.27398102767E+01  0.53647353234E+01 -0.28694294379E+02  0.29319779597E+02  0.51100000000E-03 0. -1.
        -11    1    3    3    0    0 -0.95531393813E+01  0.22625161845E+01 -0.35048716831E+01  0.10424278263E+02  0.51100000000E-03 0.  1.
        -12    1    3    3    0    0  0.15992629456E+02  0.79758653620E+01  0.27404608775E+02  0.32716833699E+02  0.00000000000E+00 0.  1.
</event>
<event>
 7    1  0.3162486E-013  0.7246164E+02  0.7816164E-02  0.1226708E+00
        -11   -1    0    0    0    0  0.00000000000E+00  0.00000000000E+00  0.45593999997E+02  0.45594000000E+02  0.51100000000E-03 0. -1.
         11   -1    0    0    0    0 -0.00000000000E+00 -0.00000000000E+00 -0.45593999997E+02  0.45594000000E+02  0.51100000000E-03 0.  1.
    9900012    2    1    2    0    0 -0.68486780409E+01  0.86649471676E+00 -0.17407513679E+02  0.72461635257E+02  0.70000084626E+02 0.  0.
         12    1    1    2    0    0  0.68486780409E+01 -0.86649471676E+00  0.17407513679E+02  0.18726364743E+02  0.00000000000E+00 0. -1.
         11    1    3    3    0    0 -0.52173147446E+01  0.74940730233E+01  0.78918014420E+01  0.12069052734E+02  0.51100000000E-03 0. -1.
        -11    1    3    3    0    0 -0.17778951510E+01 -0.14316060564E+02  0.14146139418E+02  0.20204548051E+02  0.51100000000E-03 0.  1.
         12    1    3    3    0    0  0.14653185469E+00  0.76884822577E+01 -0.39445454539E+02  0.40188034473E+02  0.00000000000E+00 0. -1.
</event>
<event>
 7    1  0.3162486E-013  0.7246176E+02  0.7816164E-02  0.1226708E+00
        -11   -1    0    0    0    0  0.00000000000E+00  0.00000000000E+00  0.45593999997E+02  0.45594000000E+02  0.51100000000E-03 0.  1.
         11   -1    0    0    0    0 -0.00000000000E+00 -0.00000000000E+00 -0.45593999997E+02  0.45594000000E+02  0.51100000000E-03 0. -1.
    9900012    2    1    2    0    0 -0.15127612956E+02 -0.97382227191E+01  0.51956164949E+01  0.72461759420E+02  0.70000246371E+02 0.  0.
         12    1    1    2    0    0  0.15127612956E+02  0.97382227191E+01 -0.51956164949E+01  0.18726240580E+02  0.00000000000E+00 0. -1.
         11    1    3    3    0    0  0.13257423237E+01 -0.42649427702E+01 -0.14611854657E+02  0.15279189321E+02  0.51100000000E-03 0. -1.
        -11    1    3    3    0    0  0.40924866818E+01 -0.14268440010E+02 -0.11457297971E+02  0.18751173420E+02  0.51100000000E-03 0.  1.
         12    1    3    3    0    0 -0.20545841962E+02  0.87951600608E+01  0.31264769123E+02  0.38431396679E+02  0.00000000000E+00 0. -1.
</event>
<event>
 7    1  0.3162486E-013  0.7246152E+02  0.7816164E-02  0.1226708E+00
        -11   -1    0    0    0    0  0.00000000000E+00  0.00000000000E+00  0.45593999997E+02  0.45594000000E+02  0.51100000000E-03 0. -1.
         11   -1    0    0    0    0 -0.00000000000E+00 -0.00000000000E+00 -0.45593999997E+02  0.45594000000E+02  0.51100000000E-03 0.  1.
    9900012    2    1    2    0    0 -0.17186514540E+02 -0.74329708210E+01  0.23627502303E+00  0.72461517064E+02  0.69999930657E+02 0.  0.
         12    1    1    2    0    0  0.17186514540E+02  0.74329708210E+01 -0.23627502303E+00  0.18726482936E+02  0.00000000000E+00 0. -1.
         11    1    3    3    0    0  0.39195395305E+01  0.15475864061E+02 -0.15944335297E+02  0.22562956076E+02  0.51100000000E-03 0. -1.
        -11    1    3    3    0    0 -0.47243599983E+01  0.72010936041E+01 -0.46500532639E+01  0.97876617282E+01  0.51100000000E-03 0.  1.
        -12    1    3    3    0    0 -0.16381694073E+02 -0.30109928486E+02  0.20830663584E+02  0.40110899260E+02  0.00000000000E+00 0.  1.
</event>
<event>
 7    1  0.3162486E-013  0.7246162E+02  0.7816164E-02  0.1226708E+00
        -11   -1    0    0    0    0  0.00000000000E+00  0.00000000000E+00  0.45593999997E+02  0.45594000000E+02  0.51100000000E-03 0. -1.
         11   -1    0    0    0    0 -0.00000000000E+00 -0.00000000000E+00 -0.45593999997E+02  0.45594000000E+02  0.51100000000E-03 0.  1.
    9900012    2    1    2    0    0 -0.14556607634E+02 -0.11384313994E+02  0.30298609118E+01  0.72461615189E+02  0.70000058484E+02 0.  0.
         12    1    1    2    0    0  0.14556607634E+02  0.11384313994E+02 -0.30298609118E+01  0.18726384811E+02  0.00000000000E+00 0. -1.
         11    1    3    3    0    0 -0.86304687539E+01  0.10596076290E+02  0.77283016995E+01  0.15699951308E+02  0.51100000000E-03 0. -1.
        -11    1    3    3    0    0 -0.19324759407E+02  0.35347443647E+01 -0.16465209883E+02  0.25632867195E+02  0.51100000000E-03 0.  1.
         12    1    3    3    0    0  0.13398620527E+02 -0.25515134649E+02  0.11766769096E+02  0.31128796686E+02  0.00000000000E+00 0. -1.
</event>
<event>
 7    1  0.3162486E-013  0.7246127E+02  0.7816164E-02  0.1226709E+00
        -11   -1    0    0    0    0  0.00000000000E+00  0.00000000000E+00  0.45593999997E+02  0.45594000000E+02  0.51100000000E-03 0. -1.
         11   -1    0    0    0    0 -0.00000000000E+00 -0.00000000000E+00 -0.45593999997E+02  0.45594000000E+02  0.51100000000E-03 0.  1.
    9900012    2    1    2    0    0  0.14642890736E+02 -0.33673431783E+01 -0.11177527102E+02  0.72461271474E+02  0.69999610730E+02 0.  0.
         12    1    1    2    0    0 -0.14642890736E+02  0.33673431783E+01  0.11177527102E+02  0.18726728526E+02  0.00000000000E+00 0. -1.
         11    1    3    3    0    0  0.35873534023E+01 -0.71957929329E+01  0.15189323497E+02  0.17186159807E+02  0.51100000000E-03 0. -1.
        -11    1    3    3    0    0 -0.78805287083E+01  0.10313172719E+02  0.81848623508E+01  0.15344583286E+02  0.51100000000E-03 0.  1.
        -12    1    3    3    0    0  0.18936066042E+02 -0.64847229641E+01 -0.34551712949E+02  0.39930528381E+02  0.00000000000E+00 0.  1.
</event>
<event>
 7    1  0.3162486E-013  0.7246152E+02  0.7816164E-02  0.1226708E+00
        -11   -1    0    0    0    0  0.00000000000E+00  0.00000000000E+00  0.45593999997E+02  0.45594000000E+02  0.51100000000E-03 0. -1.
         11   -1    0    0    0    0 -0.00000000000E+00 -0.00000000000E+00 -0.45593999997E+02  0.45594000000E+02  0.51100000000E-03 0.  1.
    9900012    2    1    2    0    0  0.14688620971E+02 -0.85104106612E+01  0.79055971150E+01  0.72461517645E+02  0.69999931414E+02 0.  0.
         12    1    1    2    0    0 -0.14688620971E+02  0.85104106612E+01 -0.79055971150E+01  0.18726482355E+02  0.00000000000E+00 0. -1.
         11    1    3    3    0    0 -0.85436214366E+01  0.16276297823E+02  0.18011644584E+01  0.18470396090E+02  0.51100000000E-03 0. -1.
        -11    1    3    3    0    0 -0.96131166245E+01 -0.28955340600E+01 -0.71807001604E+01  0.12343361932E+02  0.51100000000E-03 0.  1.
        -12    1    3    3    0    0  0.32845359032E+02 -0.21891174424E+02  0.13285132817E+02  0.41647759623E+02  0.00000000000E+00 0.  1.
</event>
<event>
 7    1  0.3162486E-013  0.7246156E+02  0.7816164E-02  0.1226708E+00
        -11   -1    0    0    0    0  0.00000000000E+00  0.00000000000E+00  0.45593999997E+02  0.45594000000E+02  0.51100000000E-03 0.  1.
         11   -1    0    0    0    0 -0.00000000000E+00 -0.00000000000E+00 -0.45593999997E+02  0.45594000000E+02  0.51100000000E-03 0. -1.
    9900012    2    1    2    0    0  0.63249761176E+01 -0.92221452856E+01  0.15020863854E+02  0.72461557800E+02  0.69999983724E+02 0.  0.
         12    1    1    2    0    0 -0.63249761176E+01  0.92221452856E+01 -0.15020863854E+02  0.18726442200E+02  0.00000000000E+00 0. -1.
         11    1    3    3    0    0 -0.13695086762E+02 -0.82799912394E+01 -0.11001341271E+02  0.19420174210E+02  0.51100000000E-03 0. -1.
        -11    1    3    3    0    0 -0.11253488876E+02 -0.33004845382E+01 -0.82624436181E+00  0.11756567955E+02  0.51100000000E-03 0.  1.
        -12    1    3    3    0    0  0.31273551756E+02  0.23583304919E+01  0.26848449486E+02  0.41284815634E+02  0.00000000000E+00 0.  1.
</event>
<event>
 7    1  0.3162486E-013  0.7246153E+02  0.7816164E-02  0.1226708E+00
        -11   -1    0    0    0    0  0.00000000000E+00  0.00000000000E+00  0.45593999997E+02  0.45594000000E+02  0.51100000000E-03 0. -1.
         11   -1    0    0    0    0 -0.00000000000E+00 -0.00000000000E+00 -0.45593999997E+02  0.45594000000E+02  0.51100000000E-03 0.  1.
    9900012    2    1    2    0    0 -0.69797910332E+01  0.99615898102E+01 -0.14238321784E+02  0.72461533124E+02  0.69999951579E+02 0.  0.
         12    1    1    2    0    0  0.69797910332E+01 -0.99615898102E+01  0.14238321784E+02  0.18726466876E+02  0.00000000000E+00 0. -1.
         11    1    3    3    0    0 -0.61154445150E+00  0.23451297956E+01  0.13592015959E+01  0.27786776736E+01  0.51100000000E-03 0. -1.
        -11    1    3    3    0    0 -0.50958737506E+01  0.30883626803E+02 -0.29111040512E+02  0.42745982428E+02  0.51100000000E-03 0.  1.
         12    1    3    3    0    0 -0.12723728312E+01 -0.23267166788E+02  0.13513517132E+02  0.26936873023E+02  0.00000000000E+00 0. -1.
</event>
<event>
 7    1  0.3162486E-013  0.7246144E+02  0.7816164E-02  0.1226708E+00
        -11   -1    0    0    0    0  0.00000000000E+00  0.00000000000E+00  0.45593999997E+02  0.45594000000E+02  0.51100000000E-03 0. -1.
         11   -1    0    0    0    0 -0.00000000000E+00 -0.00000000000E+00 -0.45593999997E+02  0.45594000000E+02  0.51100000000E-03 0.  1.
    9900012    2    1    2    0    0 -0.78122158087E+01  0.98012570050E+01 -0.13913621933E+02  0.72461435178E+02  0.69999823986E+02 0.  0.
         12    1    1    2    0    0  0.78122158087E+01 -0.98012570050E+01  0.13913621933E+02  0.18726564822E+02  0.00000000000E+00 0. -1.
         11    1    3    3    0    0 -0.27570230552E+01  0.27355674962E+02  0.13322368242E+02  0.30551916872E+02  0.51100000000E-03 0. -1.
        -11    1    3    3    0    0 -0.65627964397E+01  0.54741403567E+01 -0.52183419292E+01  0.10013371186E+02  0.51100000000E-03 0.  1.
        -12    1    3    3    0    0  0.15076036862E+01 -0.23028558313E+02 -0.22017648245E+02  0.31896147120E+02  0.00000000000E+00 0.  1.
</event>
<event>
 7    1  0.3162486E-013  0.7246151E+02  0.7816164E-02  0.1226708E+00
        -11   -1    0    0    0    0  0.00000000000E+00  0.00000000000E+00  0.45593999997E+02  0.45594000000E+02  0.51100000000E-03 0. -1.
         11   -1    0    0    0    0 -0.00000000000E+00 -0.00000000000E+00 -0.45593999997E+02  0.45594000000E+02  0.51100000000E-03 0.  1.
    9900012    2    1    2    0    0  0.11021718653E+01 -0.18109129392E+02 -0.46396312311E+01  0.72461507319E+02  0.69999917963E+02 0.  0.
         12    1    1    2    0    0 -0.11021718653E+01  0.18109129392E+02  0.46396312311E+01  0.18726492681E+02  0.00000000000E+00 0. -1.
         11    1    3    3    0    0 -0.67184329895E+01  0.74603378473E+01  0.31819372616E+00  0.10044661773E+02  0.51100000000E-03 0. -1.
        -11    1    3    3    0    0  0.39275420264E+01  0.59055251108E+01 -0.24269809955E+02  0.25284866792E+02  0.51100000000E-03 0.  1.
        -12    1    3    3    0    0  0.38930628284E+01 -0.31474992350E+02  0.19311984997E+02  0.37131978754E+02  0.00000000000E+00 0.  1.
</event>
<event>
 7    1  0.3162486E-013  0.7246163E+02  0.7816164E-02  0.1226708E+00
        -11   -1    0    0    0    0  0.00000000000E+00  0.00000000000E+00  0.45593999997E+02  0.45594000000E+02  0.51100000000E-03 0.  1.
         11   -1    0    0    0    0 -0.00000000000E+00 -0.00000000000E+00 -0.45593999997E+02  0.45594000000E+02  0.51100000000E-03 0. -1.
    9900012    2    1    2    0    0 -0.50148747413E+01  0.22463816761E+01  0.17902008066E+02  0.72461625762E+02  0.70000072257E+02 0.  0.
         12    1    1    2    0    0  0.50148747413E+01 -0.22463816761E+01 -0.17902008066E+02  0.18726374238E+02  0.00000000000E+00 0. -1.
         11    1    3    3    0    0 -0.18363028021E+01 -0.35307162070E+01 -0.39464004518E+01  0.56046446544E+01  0.51100000000E-03 0. -1.
        -11    1    3    3    0    0  0.22555357749E+02 -0.10055976815E+02  0.26571470237E+02  0.36275471929E+02  0.51100000000E-03 0.  1.
         12    1    3    3    0    0 -0.25733929688E+02  0.15833074698E+02 -0.47230617189E+01  0.30581509178E+02  0.00000000000E+00 0. -1.
</event>
<event>
 7    1  0.3162486E-013  0.7246158E+02  0.7816164E-02  0.1226708E+00
        -11   -1    0    0    0    0  0.00000000000E+00  0.00000000000E+00  0.45593999997E+02  0.45594000000E+02  0.51100000000E-03 0. -1.
         11   -1    0    0    0    0 -0.00000000000E+00 -0.00000000000E+00 -0.45593999997E+02  0.45594000000E+02  0.51100000000E-03 0.  1.
    9900012    2    1    2    0    0 -0.13568098820E+02  0.94774092930E+01  0.87615213766E+01  0.72461578843E+02  0.70000011137E+02 0.  0.
         12    1    1    2    0    0  0.13568098820E+02 -0.94774092930E+01 -0.87615213766E+01  0.18726421157E+02  0.00000000000E+00 0. -1.
         11    1    3    3    0    0  0.65873026490E+01  0.11073808982E+01  0.81364522169E+01  0.10527141283E+02  0.51100000000E-03 0. -1.
        -11    1    3    3    0    0  0.15381277793E+02  0.43129983247E+01 -0.15895785807E+02  0.22535786380E+02  0.51100000000E-03 0.  1.
         12    1    3    3    0    0 -0.35536679263E+02  0.40570300701E+01  0.16520854967E+02  0.39398651180E+02  0.00000000000E+00 0. -1.
</event>
<event>
 7    1  0.3162486E-013  0.7246158E+02  0.7816164E-02  0.1226708E+00
        -11   -1    0    0    0    0  0.00000000000E+00  0.00000000000E+00  0.45593999997E+02  0.45594000000E+02  0.51100000000E-03 0.  1.
         11   -1    0    0    0    0 -0.00000000000E+00 -0.00000000000E+00 -0.45593999997E+02  0.45594000000E+02  0.51100000000E-03 0. -1.
    9900012    2    1    2    0    0  0.14941708738E+01  0.12351950404E+02  0.13995561682E+02  0.72461575563E+02  0.70000006864E+02 0.  0.
         12    1    1    2    0    0 -0.14941708738E+01 -0.12351950404E+02 -0.13995561682E+02  0.18726424437E+02  0.00000000000E+00 0. -1.
         11    1    3    3    0    0 -0.20146987091E+02 -0.10481688182E+02  0.28801633684E+01  0.22892405231E+02  0.51100000000E-03 0. -1.
        -11    1    3    3    0    0  0.26203787075E+01 -0.73792790593E+01 -0.61069963968E+01  0.99305362019E+01  0.51100000000E-03 0.  1.
        -12    1    3    3    0    0  0.19020779257E+02  0.30212917645E+02  0.17222394710E+02  0.39638634131E+02  0.00000000000E+00 0.  1.
</event>
<event>
 7    1  0.3162486E-013  0.7246156E+02  0.7816164E-02  0.1226708E+00
        -11   -1    0    0    0    0  0.00000000000E+00  0.00000000000E+00  0.45593999997E+02  0.45594000000E+02  0.51100000000E-03 0. -1.
         11   -1    0    0    0    0 -0.00000000000E+00 -0.00000000000E+00 -0.45593999997E+02  0.45594000000E+02  0.51100000000E-03 0.  1.
    9900012    2    1    2    0    0 -0.63647488435E+01 -0.15592190314E+02 -0.81885930347E+01  0.72461561937E+02  0.69999989113E+02 0.  0.
         12    1    1    2    0    0  0.63647488435E+01  0.15592190314E+02  0.81885930347E+01  0.18726438063E+02  0.00000000000E+00 0. -1.
         11    1    3    3    0    0  0.80442998165E+01  0.19949125712E+01  0.10884325567E+02  0.13680605945E+02  0.51100000000E-03 0. -1.
        -11    1    3    3    0    0  0.17297291204E+02  0.16798223237E+01 -0.73266051443E+00  0.17394104683E+02  0.51100000000E-03 0.  1.
         12    1    3    3    0    0 -0.31706339864E+02 -0.19266925209E+02 -0.18340258088E+02  0.41386851309E+02  0.00000000000E+00 0. -1.
</event>
<event>
 7    1  0.3162486E-013  0.7246162E+02  0.7816164E-02  0.1226708E+00
        -11   -1    0    0    0    0  0.00000000000E+00  0.00000000000E+00  0.45593999997E+02  0.45594000000E+02  0.51100000000E-03 0.  1.
         11   -1    0    0    0    0 -0.00000000000E+00 -0.00000000000E+00 -0.45593999997E+02  0.45594000000E+02  0.51100000000E-03 0. -1.
    9900012    2    1    2    0    0 -0.14315301276E+02 -0.11261255971E+02  0.43512743343E+01  0.72461619543E+02  0.70000064156E+02 0.  0.
         12    1    1    2    0    0  0.14315301276E+02  0.11261255971E+02 -0.43512743343E+01  0.18726380457E+02  0.00000000000E+00 0. -1.
         11    1    3    3    0    0 -0.17448542711E+02  0.24335028016E+02  0.20702825409E+01  0.30015517676E+02  0.51100000000E-03 0. -1.
        -11    1    3    3    0    0  0.53083363774E+01  0.55758491482E+00 -0.25334675528E+01  0.59082818260E+01  0.51100000000E-03 0.  1.
        -12    1    3    3    0    0 -0.21750949430E+01 -0.36153868902E+02  0.48144593462E+01  0.36537820042E+02  0.00000000000E+00 0.  1.
</event>
<event>
 7    1  0.3162486E-013  0.7246156E+02  0.7816164E-02  0.1226708E+00
        -11   -1    0    0    0    0  0.00000000000E+00  0.00000000000E+00  0.45593999997E+02  0.45594000000E+02  0.51100000000E-03 0.  1.
         11   -1    0    0    0    0 -0.00000000000E+00 -0.00000000000E+00 -0.45593999997E+02  0.45594000000E+02  0.51100000000E-03 0. -1.
    9900012    2    1    2    0    0  0.18202645309E+02 -0.21391936945E+01  0.38427774009E+01  0.72461564566E+02  0.69999992538E+02 0.  0.
         12    1    1    2    0    0 -0.18202645309E+02  0.21391936945E+01 -0.38427774009E+01  0.18726435434E+02  0.00000000000E+00 0. -1.
         11    1    3    3    0    0  0.41174034127E+01  0.17419736280E+01  0.46600454175E+01  0.64578252174E+01  0.51100000000E-03 0.  1.
        -11    1    3    3    0    0  0.23981043682E+02  0.79883232195E+01 -0.26124702081E+02  0.36351118594E+02  0.51100000000E-03 0. -1.
         12    1    3    3    0    0 -0.98958017857E+01 -0.11869490542E+02  0.25307434064E+02  0.29652620755E+02  0.00000000000E+00 0. -1.
</event>
<event>
 7    1  0.3162486E-013  0.7246178E+02  0.7816164E-02  0.1226707E+00
        -11   -1    0    0    0    0  0.00000000000E+00  0.00000000000E+00  0.45593999997E+02  0.45594000000E+02  0.51100000000E-03 0.  1.
         11   -1    0    0    0    0 -0.00000000000E+00 -0.00000000000E+00 -0.45593999997E+02  0.45594000000E+02  0.51100000000E-03 0. -1.
    9900012    2    1    2    0    0 -0.17962840965E+02  0.32317623090E+01  0.41908570310E+01  0.72461782395E+02  0.70000276300E+02 0.  0.
         12    1    1    2    0    0  0.17962840965E+02 -0.32317623090E+01 -0.41908570310E+01  0.18726217605E+02  0.00000000000E+00 0. -1.
         11    1    3    3    0    0 -0.20019977487E+02 -0.23937700055E+02 -0.14605721598E+00  0.31206318518E+02  0.51100000000E-03 0. -1.
        -11    1    3    3    0    0 -0.92344813229E+01  0.51917281214E+01  0.11394641113E+02  0.15558519613E+02  0.51100000000E-03 0.  1.
        -12    1    3    3    0    0  0.11291617845E+02  0.21977734242E+02 -0.70577268658E+01  0.25696944264E+02  0.00000000000E+00 0.  1.
</event>
<event>
 7    1  0.3162486E-013  0.7246154E+02  0.7816164E-02  0.1226708E+00
        -11   -1    0    0    0    0  0.00000000000E+00  0.00000000000E+00  0.45593999997E+02  0.45594000000E+02  0.51100000000E-03 0. -1.
         11   -1    0    0    0    0 -0.00000000000E+00 -0.00000000000E+00 -0.45593999997E+02  0.45594000000E+02  0.51100000000E-03 0.  1.
    9900012    2    1    2    0    0 -0.15374565432E+02  0.52295705749E+01 -0.93249410921E+01  0.72461542861E+02  0.69999964263E+02 0.  0.
         12    1    1    2    0    0  0.15374565432E+02 -0.52295705749E+01  0.93249410921E+01  0.18726457139E+02  0.00000000000E+00 0. -1.
         11    1    3    3    0    0 -0.48428668655E+01 -0.44294166743E+01  0.13093508825E+02  0.14646264546E+02  0.51100000000E-03 0. -1.
        -11    1    3    3    0    0  0.85160322819E+00  0.11561512630E+02  0.14827907767E+02  0.18821813179E+02  0.51100000000E-03 0.  1.
        -12    1    3    3    0    0 -0.11383301794E+02 -0.19025253806E+01 -0.37246357684E+02  0.38993465136E+02  0.00000000000E+00 0.  1.
</event>
<event>
 7    1  0.3162486E-013  0.7246132E+02  0.7816164E-02  0.1226709E+00
        -11   -1    0    0    0    0  0.00000000000E+00  0.00000000000E+00  0.45593999997E+02  0.45594000000E+02  0.51100000000E-03 0. -1.
         11   -1    0    0    0    0 -0.00000000000E+00 -0.00000000000E+00 -0.45593999997E+02  0.45594000000E+02  0.51100000000E-03 0.  1.
    9900012    2    1    2    0    0  0.86539392585E+01 -0.80732644137E+01 -0.14512763468E+02  0.72461319395E+02  0.69999673157E+02 0.  0.
         12    1    1    2    0    0 -0.86539392585E+01  0.80732644137E+01  0.14512763468E+02  0.18726680605E+02  0.00000000000E+00 0. -1.
         11    1    3    3    0    0  0.17525980066E+02  0.13686101814E+02 -0.14152559103E+02  0.26358381771E+02  0.51100000000E-03 0. -1.
        -11    1    3    3    0    0  0.18580046126E-01  0.54781494604E+01 -0.13509435521E+02  0.14577905031E+02  0.51100000000E-03 0.  1.
        -12    1    3    3    0    0 -0.88906208534E+01 -0.27237515688E+02  0.13149231157E+02  0.31525032594E+02  0.00000000000E+00 0.  1.
</event>
<event>
 7    1  0.3162486E-013  0.7246163E+02  0.7816164E-02  0.1226708E+00
        -11   -1    0    0    0    0  0.00000000000E+00  0.00000000000E+00  0.45593999997E+02  0.45594000000E+02  0.51100000000E-03 0. -1.
         11   -1    0    0    0    0 -0.00000000000E+00 -0.00000000000E+00 -0.45593999997E+02  0.45594000000E+02  0.51100000000E-03 0.  1.
    9900012    2    1    2    0    0 -0.18418463764E+02  0.13330679343E+01 -0.31080813324E+01  0.72461626963E+02  0.70000073821E+02 0.  0.
         12    1    1    2    0    0  0.18418463764E+02 -0.13330679343E+01  0.31080813324E+01  0.18726373037E+02  0.00000000000E+00 0. -1.
         11    1    3    3    0    0  0.74242694297E+01 -0.55402742192E+00  0.16846579640E+02  0.18418305264E+02  0.51100000000E-03 0. -1.
        -11    1    3    3    0    0 -0.30191324918E+02  0.33617336445E+00  0.32649024068E+01  0.30369206457E+02  0.51100000000E-03 0.  1.
        -12    1    3    3    0    0  0.43485917235E+01  0.15509219917E+01 -0.23219563379E+02  0.23674115243E+02  0.00000000000E+00 0.  1.
</event>
<event>
 7    1  0.3162486E-013  0.7246154E+02  0.7816164E-02  0.1226708E+00
        -11   -1    0    0    0    0  0.00000000000E+00  0.00000000000E+00  0.45593999997E+02  0.45594000000E+02  0.51100000000E-03 0. -1.
         11   -1    0    0    0    0 -0.00000000000E+00 -0.00000000000E+00 -0.45593999997E+02  0.45594000000E+02  0.51100000000E-03 0.  1.
    9900012    2    1    2    0    0 -0.55543515034E+01  0.17592302538E+02 -0.32156188455E+01  0.72461544548E+02  0.69999966461E+02 0.  0.
         12    1    1    2    0    0  0.55543515034E+01 -0.17592302538E+02  0.32156188455E+01  0.18726455452E+02  0.00000000000E+00 0. -1.
         11    1    3    3    0    0 -0.17350098760E+00  0.10850666832E+02  0.87755231518E+01  0.13956248785E+02  0.51100000000E-03 0. -1.
        -11    1    3    3    0    0  0.93709159275E+01  0.11152366774E+02 -0.30875718227E+02  0.34139410163E+02  0.51100000000E-03 0.  1.
         12    1    3    3    0    0 -0.14751766443E+02 -0.44107310672E+01  0.18884576230E+02  0.24365885601E+02  0.00000000000E+00 0. -1.
</event>
<event>
 7    1  0.3162486E-013  0.7246156E+02  0.7816164E-02  0.1226708E+00
        -11   -1    0    0    0    0  0.00000000000E+00  0.00000000000E+00  0.45593999997E+02  0.45594000000E+02  0.51100000000E-03 0. -1.
         11   -1    0    0    0    0 -0.00000000000E+00 -0.00000000000E+00 -0.45593999997E+02  0.45594000000E+02  0.51100000000E-03 0.  1.
    9900012    2    1    2    0    0  0.87153373148E+01 -0.12435210146E+02 -0.10958473136E+02  0.72461556415E+02  0.69999981919E+02 0.  0.
         12    1    1    2    0    0 -0.87153373148E+01  0.12435210146E+02  0.10958473136E+02  0.18726443585E+02  0.00000000000E+00 0. -1.
         11    1    3    3    0    0 -0.17377774212E+02 -0.25853615677E+01 -0.73999907888E+01  0.19063866211E+02  0.51100000000E-03 0. -1.
        -11    1    3    3    0    0 -0.12828421907E+02  0.83955067605E+00  0.22680484004E+00  0.12857865089E+02  0.51100000000E-03 0.  1.
        -12    1    3    3    0    0  0.38921533433E+02 -0.10689399254E+02 -0.37852871874E+01  0.40539825114E+02  0.00000000000E+00 0.  1.
</event>
<event>
 7    1  0.3162486E-013  0.7246154E+02  0.7816164E-02  0.1226708E+00
        -11   -1    0    0    0    0  0.00000000000E+00  0.00000000000E+00  0.45593999997E+02  0.45594000000E+02  0.51100000000E-03 0. -1.
         11   -1    0    0    0    0 -0.00000000000E+00 -0.00000000000E+00 -0.45593999997E+02  0.45594000000E+02  0.51100000000E-03 0.  1.
    9900012    2    1    2    0    0 -0.18122869311E+02  0.14081955229E+01 -0.45010067722E+01  0.72461535607E+02  0.69999954813E+02 0.  0.
         12    1    1    2    0    0  0.18122869311E+02 -0.14081955229E+01  0.45010067722E+01  0.18726464393E+02  0.00000000000E+00 0. -1.
         11    1    3    3    0    0  0.12378512726E+02 -0.13420700512E+02  0.86676473956E+01  0.20210662809E+02  0.51100000000E-03 0. -1.
        -11    1    3    3    0    0  0.73990362614E+01 -0.11127050150E+00  0.35593325467E+01  0.82113925226E+01  0.51100000000E-03 0.  1.
        -12    1    3    3    0    0 -0.37900418299E+02  0.14940166537E+02 -0.16727986715E+02  0.44039480275E+02  0.00000000000E+00 0.  1.
</event>
<event>
 7    1  0.3162486E-013  0.7246150E+02  0.7816164E-02  0.1226708E+00
        -11   -1    0    0    0    0  0.00000000000E+00  0.00000000000E+00  0.45593999997E+02  0.45594000000E+02  0.51100000000E-03 0.  1.
         11   -1    0    0    0    0 -0.00000000000E+00 -0.00000000000E+00 -0.45593999997E+02  0.45594000000E+02  0.51100000000E-03 0. -1.
    9900012    2    1    2    0    0  0.11150390784E+02 -0.14882654399E+02  0.22039335221E+01  0.72461496334E+02  0.69999903653E+02 0.  0.
         12    1    1    2    0    0 -0.11150390784E+02  0.14882654399E+02 -0.22039335221E+01  0.18726503666E+02  0.00000000000E+00 0. -1.
         11    1    3    3    0    0 -0.81178759982E+01 -0.21517837637E+02  0.12005829279E+02  0.25943345664E+02  0.51100000000E-03 0. -1.
        -11    1    3    3    0    0 -0.61945678065E+01 -0.10379250578E+02 -0.10313940477E+02  0.15889584050E+02  0.51100000000E-03 0.  1.
         12    1    3    3    0    0  0.25462834589E+02  0.17014433816E+02  0.51204471953E+00  0.30628566619E+02  0.00000000000E+00 0. -1.
</event>
<event>
 7    1  0.3162486E-013  0.7246150E+02  0.7816164E-02  0.1226708E+00
        -11   -1    0    0    0    0  0.00000000000E+00  0.00000000000E+00  0.45593999997E+02  0.45594000000E+02  0.51100000000E-03 0.  1.
         11   -1    0    0    0    0 -0.00000000000E+00 -0.00000000000E+00 -0.45593999997E+02  0.45594000000E+02  0.51100000000E-03 0. -1.
    9900012    2    1    2    0    0 -0.11408957399E+02  0.25803511635E+01  0.14623931490E+02  0.72461497569E+02  0.69999905262E+02 0.  0.
         12    1    1    2    0    0  0.11408957399E+02 -0.25803511635E+01 -0.14623931490E+02  0.18726502431E+02  0.00000000000E+00 0. -1.
         11    1    3    3    0    0 -0.19797427048E+01  0.20114799586E+01  0.13646509089E+02  0.13935302056E+02  0.51100000000E-03 0. -1.
        -11    1    3    3    0    0 -0.16052229372E+02  0.34472427006E+01  0.26956120409E+02  0.31562477371E+02  0.51100000000E-03 0.  1.
         12    1    3    3    0    0  0.66230146779E+01 -0.28783714958E+01 -0.25978698008E+02  0.26963718143E+02  0.00000000000E+00 0. -1.
</event>
<event>
 7    1  0.3162486E-013  0.7246162E+02  0.7816164E-02  0.1226708E+00
        -11   -1    0    0    0    0  0.00000000000E+00  0.00000000000E+00  0.45593999997E+02  0.45594000000E+02  0.51100000000E-03 0. -1.
         11   -1    0    0    0    0 -0.00000000000E+00 -0.00000000000E+00 -0.45593999997E+02  0.45594000000E+02  0.51100000000E-03 0.  1.
    9900012    2    1    2    0    0 -0.18430515302E+01  0.17658990765E+02 -0.59532065130E+01  0.72461615898E+02  0.70000059407E+02 0.  0.
         12    1    1    2    0    0  0.18430515302E+01 -0.17658990765E+02  0.59532065130E+01  0.18726384102E+02  0.00000000000E+00 0. -1.
         11    1    3    3    0    0 -0.76567380096E+01  0.86442936503E+01  0.17061421738E+02  0.20601979556E+02  0.51100000000E-03 0. -1.
        -11    1    3    3    0    0  0.88607202428E+01  0.16738134948E+01  0.12529861376E+02  0.15437339188E+02  0.51100000000E-03 0.  1.
        -12    1    3    3    0    0 -0.30470337634E+01  0.73408836195E+01 -0.35544489627E+02  0.36422297153E+02  0.00000000000E+00 0.  1.
</event>
<event>
 7    1  0.3162486E-013  0.7246155E+02  0.7816164E-02  0.1226708E+00
        -11   -1    0    0    0    0  0.00000000000E+00  0.00000000000E+00  0.45593999997E+02  0.45594000000E+02  0.51100000000E-03 0.  1.
         11   -1    0    0    0    0 -0.00000000000E+00 -0.00000000000E+00 -0.45593999997E+02  0.45594000000E+02  0.51100000000E-03 0. -1.
    9900012    2    1    2    0    0 -0.11629486710E+02 -0.14565344493E+02 -0.18126082721E+01  0.72461554260E+02  0.69999979112E+02 0.  0.
         12    1    1    2    0    0  0.11629486710E+02  0.14565344493E+02  0.18126082721E+01  0.18726445740E+02  0.00000000000E+00 0. -1.
         11    1    3    3    0    0 -0.27767768042E+01 -0.25748920837E+02 -0.13934058659E+02  0.29408764080E+02  0.51100000000E-03 0. -1.
        -11    1    3    3    0    0 -0.18026510123E+02 -0.81453344244E+01  0.40911545606E+01  0.20199977377E+02  0.51100000000E-03 0.  1.
         12    1    3    3    0    0  0.91738002177E+01  0.19328910769E+02  0.80302958265E+01  0.22852812803E+02  0.00000000000E+00 0. -1.
</event>
<event>
 7    1  0.3162486E-013  0.7246155E+02  0.7816164E-02  0.1226708E+00
        -11   -1    0    0    0    0  0.00000000000E+00  0.00000000000E+00  0.45593999997E+02  0.45594000000E+02  0.51100000000E-03 0. -1.
         11   -1    0    0    0    0 -0.00000000000E+00 -0.00000000000E+00 -0.45593999997E+02  0.45594000000E+02  0.51100000000E-03 0.  1.
    9900012    2    1    2    0    0 -0.18270534738E+02  0.23942269391E+01 -0.33369165128E+01  0.72461554153E+02  0.69999978973E+02 0.  0.
         12    1    1    2    0    0  0.18270534738E+02 -0.23942269391E+01  0.33369165128E+01  0.18726445847E+02  0.00000000000E+00 0. -1.
         11    1    3    3    0    0  0.11424737546E+02 -0.15570985631E+02  0.19505061957E+02  0.27448636828E+02  0.51100000000E-03 0. -1.
        -11    1    3    3    0    0 -0.13286429006E+02  0.12435239619E+01 -0.15518595342E+02  0.20467104075E+02  0.51100000000E-03 0.  1.
        -12    1    3    3    0    0 -0.16408843278E+02  0.16721688609E+02 -0.73233831277E+01  0.24545813250E+02  0.00000000000E+00 0.  1.
</event>
<event>
 7    1  0.3162486E-013  0.7246157E+02  0.7816164E-02  0.1226708E+00
        -11   -1    0    0    0    0  0.00000000000E+00  0.00000000000E+00  0.45593999997E+02  0.45594000000E+02  0.51100000000E-03 0. -1.
         11   -1    0    0    0    0 -0.00000000000E+00 -0.00000000000E+00 -0.45593999997E+02  0.45594000000E+02  0.51100000000E-03 0.  1.
    9900012    2    1    2    0    0  0.18797423010E+01  0.16987187137E+02 -0.76538366968E+01  0.72461570172E+02  0.69999999840E+02 0.  0.
         12    1    1    2    0    0 -0.18797423010E+01 -0.16987187137E+02  0.76538366968E+01  0.18726429828E+02  0.00000000000E+00 0. -1.
         11    1    3    3    0    0 -0.98812169189E+01  0.47611975423E+01  0.68703642155E+00  0.10989971298E+02  0.51100000000E-03 0. -1.
        -11    1    3    3    0    0 -0.23840233204E+02  0.31091591327E+01 -0.14879120963E+01  0.24088118906E+02  0.51100000000E-03 0.  1.
         12    1    3    3    0    0  0.35601192424E+02  0.91168304617E+01 -0.68529610221E+01  0.37383479967E+02  0.00000000000E+00 0. -1.
</event>
<event>
 7    1  0.3162486E-013  0.7246155E+02  0.7816164E-02  0.1226708E+00
        -11   -1    0    0    0    0  0.00000000000E+00  0.00000000000E+00  0.45593999997E+02  0.45594000000E+02  0.51100000000E-03 0.  1.
         11   -1    0    0    0    0 -0.00000000000E+00 -0.00000000000E+00 -0.45593999997E+02  0.45594000000E+02  0.51100000000E-03 0. -1.
    9900012    2    1    2    0    0 -0.10652884954E+01 -0.12922888657E+02  0.13510889732E+02  0.72461547262E+02  0.69999969996E+02 0.  0.
         12    1    1    2    0    0  0.10652884954E+01  0.12922888657E+02 -0.13510889732E+02  0.18726452738E+02  0.00000000000E+00 0. -1.
         11    1    3    3    0    0 -0.15501951354E+02 -0.23481914080E+02  0.81370390678E+01  0.29290308802E+02  0.51100000000E-03 0. -1.
        -11    1    3    3    0    0  0.30520597406E+01 -0.10983315728E+02 -0.93142869677E+01  0.14720877522E+02  0.51100000000E-03 0.  1.
         12    1    3    3    0    0  0.11384603118E+02  0.21542341151E+02  0.14688137632E+02  0.28450360938E+02  0.00000000000E+00 0. -1.
</event>
<event>
 7    1  0.3162486E-013  0.7246153E+02  0.7816164E-02  0.1226708E+00
        -11   -1    0    0    0    0  0.00000000000E+00  0.00000000000E+00  0.45593999997E+02  0.45594000000E+02  0.51100000000E-03 0. -1.
         11   -1    0    0    0    0 -0.00000000000E+00 -0.00000000000E+00 -0.45593999997E+02  0.45594000000E+02  0.51100000000E-03 0.  1.
    9900012    2    1    2    0    0  0.12464192060E+02  0.13890432298E+02 -0.15428640070E+01  0.72461531500E+02  0.69999949464E+02 0.  0.
         12    1    1    2    0    0 -0.12464192060E+02 -0.13890432298E+02  0.15428640070E+01  0.18726468500E+02  0.00000000000E+00 0. -1.
         11    1    3    3    0    0  0.51585686056E+01 -0.13741938123E+02 -0.13157844329E+02  0.19712446857E+02  0.51100000000E-03 0. -1.
        -11    1    3    3    0    0  0.47609992357E+00 -0.74870666914E+01 -0.87945327074E+01  0.11559699156E+02  0.51100000000E-03 0.  1.
        -12    1    3    3    0    0  0.68295235304E+01  0.35119437113E+02  0.20409513029E+02  0.41189385488E+02  0.00000000000E+00 0.  1.
</event>
<event>
 7    1  0.3162486E-013  0.7246160E+02  0.7816164E-02  0.1226708E+00
        -11   -1    0    0    0    0  0.00000000000E+00  0.00000000000E+00  0.45593999997E+02  0.45594000000E+02  0.51100000000E-03 0. -1.
         11   -1    0    0    0    0 -0.00000000000E+00 -0.00000000000E+00 -0.45593999997E+02  0.45594000000E+02  0.51100000000E-03 0.  1.
    9900012    2    1    2    0    0  0.13238502262E+02  0.10560934558E+02 -0.79929183427E+01  0.72461600866E+02  0.70000039826E+02 0.  0.
         12    1    1    2    0    0 -0.13238502262E+02 -0.10560934558E+02  0.79929183427E+01  0.18726399134E+02  0.00000000000E+00 0. -1.
         11    1    3    3    0    0  0.22395077262E+02 -0.13245134042E+02 -0.39916272402E+01  0.26323110562E+02  0.51100000000E-03 0. -1.
        -11    1    3    3    0    0  0.77887754383E+01  0.55890410662E+01  0.12891825160E+02  0.16065539490E+02  0.51100000000E-03 0.  1.
        -12    1    3    3    0    0 -0.16945350438E+02  0.18217027534E+02 -0.16893116263E+02  0.30072950815E+02  0.00000000000E+00 0.  1.
</event>
<event>
 7    1  0.3162486E-013  0.7246143E+02  0.7816164E-02  0.1226708E+00
        -11   -1    0    0    0    0  0.00000000000E+00  0.00000000000E+00  0.45593999997E+02  0.45594000000E+02  0.51100000000E-03 0. -1.
         11   -1    0    0    0    0 -0.00000000000E+00 -0.00000000000E+00 -0.45593999997E+02  0.45594000000E+02  0.51100000000E-03 0.  1.
    9900012    2    1    2    0    0  0.90217624054E+01 -0.30576328638E+01 -0.16122756030E+02  0.72461425897E+02  0.69999811896E+02 0.  0.
         12    1    1    2    0    0 -0.90217624054E+01  0.30576328638E+01  0.16122756030E+02  0.18726574103E+02  0.00000000000E+00 0. -1.
         11    1    3    3    0    0  0.22358229863E+01 -0.38921854717E+01  0.16139737910E+02  0.16752287971E+02  0.51100000000E-03 0. -1.
        -11    1    3    3    0    0 -0.97307979471E+00 -0.18929441425E+02 -0.24551948897E+01  0.19112786797E+02  0.51100000000E-03 0.  1.
        -12    1    3    3    0    0  0.77590192138E+01  0.19763994033E+02 -0.29807299051E+02  0.36596351129E+02  0.00000000000E+00 0.  1.
</event>
<event>
 7    1  0.3162486E-013  0.7246156E+02  0.7816164E-02  0.1226708E+00
        -11   -1    0    0    0    0  0.00000000000E+00  0.00000000000E+00  0.45593999997E+02  0.45594000000E+02  0.51100000000E-03 0.  1.
         11   -1    0    0    0    0 -0.00000000000E+00 -0.00000000000E+00 -0.45593999997E+02  0.45594000000E+02  0.51100000000E-03 0. -1.
    9900012    2    1    2    0    0 -0.56248327820E+00 -0.18523947433E+02  0.26881960508E+01  0.72461563768E+02  0.69999991498E+02 0.  0.
         12    1    1    2    0    0  0.56248327820E+00  0.18523947433E+02 -0.26881960508E+01  0.18726436232E+02  0.00000000000E+00 0. -1.
         11    1    3    3    0    0  0.33080952863E+01 -0.10234194305E+00 -0.69330405870E+01  0.76825139335E+01  0.51100000000E-03 0. -1.
        -11    1    3    3    0    0  0.54332816363E+01  0.19885176579E+02  0.14290488044E+02  0.25083039005E+02  0.51100000000E-03 0.  1.
         12    1    3    3    0    0 -0.93038602008E+01 -0.38306782069E+02 -0.46692514064E+01  0.39696010830E+02  0.00000000000E+00 0. -1.
</event>
<event>
 7    1  0.3162486E-013  0.7246158E+02  0.7816164E-02  0.1226708E+00
        -11   -1    0    0    0    0  0.00000000000E+00  0.00000000000E+00  0.45593999997E+02  0.45594000000E+02  0.51100000000E-03 0.  1.
         11   -1    0    0    0    0 -0.00000000000E+00 -0.00000000000E+00 -0.45593999997E+02  0.45594000000E+02  0.51100000000E-03 0. -1.
    9900012    2    1    2    0    0  0.17636446295E+02  0.57787378799E+01 -0.24981187721E+01  0.72461584252E+02  0.70000018182E+02 0.  0.
         12    1    1    2    0    0 -0.17636446295E+02 -0.57787378799E+01  0.24981187721E+01  0.18726415748E+02  0.00000000000E+00 0. -1.
         11    1    3    3    0    0  0.13825015182E+02  0.18515525588E+01  0.11880143018E+02  0.18322038370E+02  0.51100000000E-03 0. -1.
        -11    1    3    3    0    0  0.21953926681E+02 -0.12441350035E+02  0.10243986849E+01  0.25254929822E+02  0.51100000000E-03 0.  1.
         12    1    3    3    0    0 -0.18142495568E+02  0.16368535356E+02 -0.15402660475E+02  0.28884616059E+02  0.00000000000E+00 0. -1.
</event>
<event>
 7    1  0.3162486E-013  0.7246157E+02  0.7816164E-02  0.1226708E+00
        -11   -1    0    0    0    0  0.00000000000E+00  0.00000000000E+00  0.45593999997E+02  0.45594000000E+02  0.51100000000E-03 0.  1.
         11   -1    0    0    0    0 -0.00000000000E+00 -0.00000000000E+00 -0.45593999997E+02  0.45594000000E+02  0.51100000000E-03 0. -1.
    9900012    2    1    2    0    0  0.15488197090E+02 -0.70638326650E+01  0.78036659060E+01  0.72461569945E+02  0.69999999545E+02 0.  0.
         12    1    1    2    0    0 -0.15488197090E+02  0.70638326650E+01 -0.78036659060E+01  0.18726430055E+02  0.00000000000E+00 0. -1.
         11    1    3    3    0    0 -0.15376624424E+02 -0.39282264932E+01 -0.10810055381E+02  0.19202313394E+02  0.51100000000E-03 0. -1.
        -11    1    3    3    0    0 -0.77204764400E+01  0.27938353031E+01  0.10598486889E+02  0.13406684779E+02  0.51100000000E-03 0.  1.
        -12    1    3    3    0    0  0.38585297955E+02 -0.59294414749E+01  0.80152343982E+01  0.39852571773E+02  0.00000000000E+00 0.  1.
</event>
<event>
 7    1  0.3162486E-013  0.7246155E+02  0.7816164E-02  0.1226708E+00
        -11   -1    0    0    0    0  0.00000000000E+00  0.00000000000E+00  0.45593999997E+02  0.45594000000E+02  0.51100000000E-03 0. -1.
         11   -1    0    0    0    0 -0.00000000000E+00 -0.00000000000E+00 -0.45593999997E+02  0.45594000000E+02  0.51100000000E-03 0.  1.
    9900012    2    1    2    0    0 -0.21883893917E+01  0.10294095023E+02 -0.15489428232E+02  0.72461552729E+02  0.69999977117E+02 0.  0.
         12    1    1    2    0    0  0.21883893917E+01 -0.10294095023E+02  0.15489428232E+02  0.18726447271E+02  0.00000000000E+00 0. -1.
         11    1    3    3    0    0 -0.82257706948E+01 -0.20514076185E+02  0.37349215129E+01  0.22415179326E+02  0.51100000000E-03 0. -1.
        -11    1    3    3    0    0 -0.11323932162E+02  0.11268499561E+01 -0.18812591044E+01  0.11534312572E+02  0.51100000000E-03 0.  1.
         12    1    3    3    0    0  0.17361313465E+02  0.29681321251E+02 -0.17343090640E+02  0.38512060831E+02  0.00000000000E+00 0. -1.
</event>
<event>
 7    1  0.3162486E-013  0.7246158E+02  0.7816164E-02  0.1226708E+00
        -11   -1    0    0    0    0  0.00000000000E+00  0.00000000000E+00  0.45593999997E+02  0.45594000000E+02  0.51100000000E-03 0. -1.
         11   -1    0    0    0    0 -0.00000000000E+00 -0.00000000000E+00 -0.45593999997E+02  0.45594000000E+02  0.51100000000E-03 0.  1.
    9900012    2    1    2    0    0 -0.17415105257E+01 -0.67317995569E+01 -0.17387600657E+02  0.72461584412E+02  0.70000018391E+02 0.  0.
         12    1    1    2    0    0  0.17415105257E+01  0.67317995569E+01  0.17387600657E+02  0.18726415588E+02  0.00000000000E+00 0. -1.
         11    1    3    3    0    0  0.86298646589E+01 -0.84642932143E+01 -0.37228021908E+01  0.12648244149E+02  0.51100000000E-03 0. -1.
        -11    1    3    3    0    0  0.17774703231E+02 -0.97422095630E+01 -0.20316674799E+02  0.28698745570E+02  0.51100000000E-03 0.  1.
        -12    1    3    3    0    0 -0.28146078415E+02  0.11474703220E+02  0.66518763336E+01  0.31114594693E+02  0.00000000000E+00 0.  1.
</event>
<event>
 7    1  0.3162486E-013  0.7246161E+02  0.7816164E-02  0.1226708E+00
        -11   -1    0    0    0    0  0.00000000000E+00  0.00000000000E+00  0.45593999997E+02  0.45594000000E+02  0.51100000000E-03 0. -1.
         11   -1    0    0    0    0 -0.00000000000E+00 -0.00000000000E+00 -0.45593999997E+02  0.45594000000E+02  0.51100000000E-03 0.  1.
    9900012    2    1    2    0    0  0.13868967807E+02  0.52548663170E+01 -0.11433094363E+02  0.72461613943E+02  0.70000056860E+02 0.  0.
         12    1    1    2    0    0 -0.13868967807E+02 -0.52548663170E+01  0.11433094363E+02  0.18726386057E+02  0.00000000000E+00 0. -1.
         11    1    3    3    0    0  0.20093554874E+01  0.29551144358E+01  0.63540060107E+01  0.72899659429E+01  0.51100000000E-03 0. -1.
        -11    1    3    3    0    0  0.24993760163E+02 -0.23099529772E+02 -0.81338108291E+01  0.34991930522E+02  0.51100000000E-03 0.  1.
         12    1    3    3    0    0 -0.13134147843E+02  0.25399281653E+02 -0.96532895445E+01  0.30179717479E+02  0.00000000000E+00 0. -1.
</event>
<event>
 7    1  0.3162486E-013  0.7246166E+02  0.7816164E-02  0.1226708E+00
        -11   -1    0    0    0    0  0.00000000000E+00  0.00000000000E+00  0.45593999997E+02  0.45594000000E+02  0.51100000000E-03 0. -1.
         11   -1    0    0    0    0 -0.00000000000E+00 -0.00000000000E+00 -0.45593999997E+02  0.45594000000E+02  0.51100000000E-03 0.  1.
    9900012    2    1    2    0    0 -0.18683383699E+02  0.54754011240E+00 -0.11433721081E+01  0.72461656887E+02  0.70000112803E+02 0.  0.
         12    1    1    2    0    0  0.18683383699E+02 -0.54754011240E+00  0.11433721081E+01  0.18726343113E+02  0.00000000000E+00 0. -1.
         11    1    3    3    0    0 -0.31643853421E+01 -0.60159380063E+01 -0.60413542664E+01  0.90941083303E+01  0.51100000000E-03 0. -1.
        -11    1    3    3    0    0  0.18057556057E+02 -0.31591927314E+01 -0.14515286283E+02  0.23382672337E+02  0.51100000000E-03 0.  1.
         12    1    3    3    0    0 -0.33576554414E+02  0.97226708501E+01  0.19413268441E+02  0.39984876220E+02  0.00000000000E+00 0. -1.
</event>
<event>
 7    1  0.3162486E-013  0.7246158E+02  0.7816164E-02  0.1226708E+00
        -11   -1    0    0    0    0  0.00000000000E+00  0.00000000000E+00  0.45593999997E+02  0.45594000000E+02  0.51100000000E-03 0. -1.
         11   -1    0    0    0    0 -0.00000000000E+00 -0.00000000000E+00 -0.45593999997E+02  0.45594000000E+02  0.51100000000E-03 0.  1.
    9900012    2    1    2    0    0  0.14200504180E+01  0.18578441595E+02 -0.18718178601E+01  0.72461581832E+02  0.70000015030E+02 0.  0.
         12    1    1    2    0    0 -0.14200504180E+01 -0.18578441595E+02  0.18718178601E+01  0.18726418168E+02  0.00000000000E+00 0. -1.
         11    1    3    3    0    0  0.33756940937E+01  0.45173294907E+01  0.53273598251E+01  0.77577277156E+01  0.51100000000E-03 0. -1.
        -11    1    3    3    0    0 -0.11099690154E+02  0.35356560399E+02 -0.15385561547E+02  0.40124867466E+02  0.51100000000E-03 0.  1.
         12    1    3    3    0    0  0.91440464780E+01 -0.21295448294E+02  0.81863838617E+01  0.24578986651E+02  0.00000000000E+00 0. -1.
</event>
<event>
 7    1  0.3162486E-013  0.7246155E+02  0.7816164E-02  0.1226708E+00
        -11   -1    0    0    0    0  0.00000000000E+00  0.00000000000E+00  0.45593999997E+02  0.45594000000E+02  0.51100000000E-03 0.  1.
         11   -1    0    0    0    0 -0.00000000000E+00 -0.00000000000E+00 -0.45593999997E+02  0.45594000000E+02  0.51100000000E-03 0. -1.
    9900012    2    1    2    0    0 -0.73612154897E+01  0.64025184381E+01  0.15984369278E+02  0.72461553539E+02  0.69999978173E+02 0.  0.
         12    1    1    2    0    0  0.73612154897E+01 -0.64025184381E+01 -0.15984369278E+02  0.18726446461E+02  0.00000000000E+00 0. -1.
         11    1    3    3    0    0 -0.28589260165E+02 -0.19892540829E+01  0.17474167515E+01  0.28711607307E+02  0.51100000000E-03 0. -1.
        -11    1    3    3    0    0  0.28943429186E+01 -0.73230019600E+01  0.17684235261E+02  0.19358092769E+02  0.51100000000E-03 0.  1.
         12    1    3    3    0    0  0.18333701757E+02  0.15714774481E+02 -0.34472827336E+01  0.24391853463E+02  0.00000000000E+00 0. -1.
</event>
<event>
 7    1  0.3162486E-013  0.7246201E+02  0.7816164E-02  0.1226707E+00
        -11   -1    0    0    0    0  0.00000000000E+00  0.00000000000E+00  0.45593999997E+02  0.45594000000E+02  0.51100000000E-03 0.  1.
         11   -1    0    0    0    0 -0.00000000000E+00 -0.00000000000E+00 -0.45593999997E+02  0.45594000000E+02  0.51100000000E-03 0. -1.
    9900012    2    1    2    0    0  0.57858529530E+01 -0.11827385866E+02  0.13315385968E+02  0.72462011260E+02  0.70000574437E+02 0.  0.
         12    1    1    2    0    0 -0.57858529530E+01  0.11827385866E+02 -0.13315385968E+02  0.18725988740E+02  0.00000000000E+00 0. -1.
         11    1    3    3    0    0  0.76774246656E-01 -0.10540542499E+02 -0.11480811447E+02  0.15585825682E+02  0.51100000000E-03 0. -1.
        -11    1    3    3    0    0 -0.14353171280E+02 -0.99332259698E+01 -0.65710937548E+01  0.18651052982E+02  0.51100000000E-03 0.  1.
         12    1    3    3    0    0  0.20062249986E+02  0.86463826024E+01  0.31367291170E+02  0.38225132596E+02  0.00000000000E+00 0. -1.
</event>
<event>
 7    1  0.3162486E-013  0.7246158E+02  0.7816164E-02  0.1226708E+00
        -11   -1    0    0    0    0  0.00000000000E+00  0.00000000000E+00  0.45593999997E+02  0.45594000000E+02  0.51100000000E-03 0. -1.
         11   -1    0    0    0    0 -0.00000000000E+00 -0.00000000000E+00 -0.45593999997E+02  0.45594000000E+02  0.51100000000E-03 0.  1.
    9900012    2    1    2    0    0 -0.16067903398E+02 -0.85069177531E+01 -0.44870403343E+01  0.72461582825E+02  0.70000016323E+02 0.  0.
         12    1    1    2    0    0  0.16067903398E+02  0.85069177531E+01  0.44870403343E+01  0.18726417175E+02  0.00000000000E+00 0. -1.
         11    1    3    3    0    0 -0.78228596878E-02 -0.50852702439E+01 -0.29256092861E+01  0.58667899746E+01  0.51100000000E-03 0. -1.
        -11    1    3    3    0    0 -0.20651442003E+02 -0.67108426327E+01 -0.30316191489E+02  0.37290601125E+02  0.51100000000E-03 0.  1.
         12    1    3    3    0    0  0.45913614649E+01  0.32891951235E+01  0.28754760440E+02  0.29304191725E+02  0.00000000000E+00 0. -1.
</event>
<event>
 7    1  0.3162486E-013  0.7246160E+02  0.7816164E-02  0.1226708E+00
        -11   -1    0    0    0    0  0.00000000000E+00  0.00000000000E+00  0.45593999997E+02  0.45594000000E+02  0.51100000000E-03 0.  1.
         11   -1    0    0    0    0 -0.00000000000E+00 -0.00000000000E+00 -0.45593999997E+02  0.45594000000E+02  0.51100000000E-03 0. -1.
    9900012    2    1    2    0    0 -0.16561431856E+02 -0.13046600111E+01  0.86426113234E+01  0.72461604368E+02  0.70000044387E+02 0.  0.
         12    1    1    2    0    0  0.16561431856E+02  0.13046600111E+01 -0.86426113234E+01  0.18726395632E+02  0.00000000000E+00 0. -1.
         11    1    3    3    0    0 -0.14096666498E+02  0.19081695562E+02 -0.12480596605E+02  0.26806573891E+02  0.51100000000E-03 0. -1.
        -11    1    3    3    0    0 -0.10382931404E+02 -0.26514118937E+01 -0.60103416513E+01  0.12286555929E+02  0.51100000000E-03 0.  1.
        -12    1    3    3    0    0  0.79181660455E+01 -0.17734943680E+02  0.27133549580E+02  0.33368474548E+02  0.00000000000E+00 0.  1.
</event>
<event>
 7    1  0.3162486E-013  0.7246155E+02  0.7816164E-02  0.1226708E+00
        -11   -1    0    0    0    0  0.00000000000E+00  0.00000000000E+00  0.45593999997E+02  0.45594000000E+02  0.51100000000E-03 0.  1.
         11   -1    0    0    0    0 -0.00000000000E+00 -0.00000000000E+00 -0.45593999997E+02  0.45594000000E+02  0.51100000000E-03 0. -1.
    9900012    2    1    2    0    0  0.80682587889E+01 -0.16822861081E+02  0.16045287822E+01  0.72461548989E+02  0.69999972246E+02 0.  0.
         12    1    1    2    0    0 -0.80682587889E+01  0.16822861081E+02 -0.16045287822E+01  0.18726451011E+02  0.00000000000E+00 0. -1.
         11    1    3    3    0    0 -0.83132433988E+01  0.12190965145E+02 -0.12089843514E+02  0.19076004912E+02  0.51100000000E-03 0. -1.
        -11    1    3    3    0    0 -0.11590741843E+02 -0.16110351980E+02  0.10395743138E+02  0.22404468595E+02  0.51100000000E-03 0.  1.
        -12    1    3    3    0    0  0.27972244030E+02 -0.12903474246E+02  0.32986291574E+01  0.30981075482E+02  0.00000000000E+00 0.  1.
</event>
<event>
 7    1  0.3162486E-013  0.7246162E+02  0.7816164E-02  0.1226708E+00
        -11   -1    0    0    0    0  0.00000000000E+00  0.00000000000E+00  0.45593999997E+02  0.45594000000E+02  0.51100000000E-03 0. -1.
         11   -1    0    0    0    0 -0.00000000000E+00 -0.00000000000E+00 -0.45593999997E+02  0.45594000000E+02  0.51100000000E-03 0.  1.
    9900012    2    1    2    0    0  0.15177065252E+02  0.36057345520E+01 -0.10360154693E+02  0.72461616564E+02  0.70000060275E+02 0.  0.
         12    1    1    2    0    0 -0.15177065252E+02 -0.36057345520E+01  0.10360154693E+02  0.18726383436E+02  0.00000000000E+00 0. -1.
         11    1    3    3    0    0  0.50425121969E+01 -0.10576923999E+02  0.85596229611E+01  0.14510871650E+02  0.51100000000E-03 0. -1.
        -11    1    3    3    0    0 -0.21022707078E+02  0.24975453369E+01 -0.10471303566E+02  0.23618639762E+02  0.51100000000E-03 0.  1.
         12    1    3    3    0    0  0.31157260132E+02  0.11685113214E+02 -0.84484740879E+01  0.34332105152E+02  0.00000000000E+00 0. -1.
</event>
<event>
 7    1  0.3162486E-013  0.7246151E+02  0.7816164E-02  0.1226708E+00
        -11   -1    0    0    0    0  0.00000000000E+00  0.00000000000E+00  0.45593999997E+02  0.45594000000E+02  0.51100000000E-03 0. -1.
         11   -1    0    0    0    0 -0.00000000000E+00 -0.00000000000E+00 -0.45593999997E+02  0.45594000000E+02  0.51100000000E-03 0.  1.
    9900012    2    1    2    0    0 -0.34118761557E+01 -0.13890733316E+02  0.12086683918E+02  0.72461513435E+02  0.69999925930E+02 0.  0.
         12    1    1    2    0    0  0.34118761557E+01  0.13890733316E+02 -0.12086683918E+02  0.18726486565E+02  0.00000000000E+00 0. -1.
         11    1    3    3    0    0 -0.15343878735E+02  0.13819551944E+02  0.13479193101E+02  0.24659750150E+02  0.51100000000E-03 0. -1.
        -11    1    3    3    0    0 -0.70172494838E+01 -0.19414158197E+02  0.11298618514E+02  0.23533170407E+02  0.51100000000E-03 0.  1.
         12    1    3    3    0    0  0.18949252063E+02 -0.82961270618E+01 -0.12691127698E+02  0.24268592877E+02  0.00000000000E+00 0. -1.
</event>
<event>
 7    1  0.3162486E-013  0.7246159E+02  0.7816164E-02  0.1226708E+00
        -11   -1    0    0    0    0  0.00000000000E+00  0.00000000000E+00  0.45593999997E+02  0.45594000000E+02  0.51100000000E-03 0.  1.
         11   -1    0    0    0    0 -0.00000000000E+00 -0.00000000000E+00 -0.45593999997E+02  0.45594000000E+02  0.51100000000E-03 0. -1.
    9900012    2    1    2    0    0  0.10806705710E+02  0.20286678339E+01  0.15158430368E+02  0.72461591036E+02  0.70000027020E+02 0.  0.
         12    1    1    2    0    0 -0.10806705710E+02 -0.20286678339E+01 -0.15158430368E+02  0.18726408964E+02  0.00000000000E+00 0. -1.
         11    1    3    3    0    0  0.33018987720E+02  0.73774589742E+01 -0.73437870626E+01  0.34620971386E+02  0.51100000000E-03 0. -1.
        -11    1    3    3    0    0 -0.19047806686E+02 -0.31436853896E+01  0.50331096301E+01  0.19950786706E+02  0.51100000000E-03 0.  1.
        -12    1    3    3    0    0 -0.31644753248E+01 -0.22051057507E+01  0.17469107800E+02  0.17889832945E+02  0.00000000000E+00 0.  1.
</event>
<event>
 7    1  0.3162486E-013  0.7246158E+02  0.7816164E-02  0.1226708E+00
        -11   -1    0    0    0    0  0.00000000000E+00  0.00000000000E+00  0.45593999997E+02  0.45594000000E+02  0.51100000000E-03 0.  1.
         11   -1    0    0    0    0 -0.00000000000E+00 -0.00000000000E+00 -0.45593999997E+02  0.45594000000E+02  0.51100000000E-03 0. -1.
    9900012    2    1    2    0    0  0.15142783581E+02 -0.91126894977E+01  0.61914328399E+01  0.72461578957E+02  0.70000011285E+02 0.  0.
         12    1    1    2    0    0 -0.15142783581E+02  0.91126894977E+01 -0.61914328399E+01  0.18726421043E+02  0.00000000000E+00 0. -1.
         11    1    3    3    0    0 -0.25334822720E+02 -0.12163750657E+01  0.99686860809E+01  0.27252660659E+02  0.51100000000E-03 0. -1.
        -11    1    3    3    0    0 -0.14121344459E+01 -0.21588984575E+01 -0.12122637924E+01  0.28503596276E+01  0.51100000000E-03 0.  1.
        -12    1    3    3    0    0  0.41889740746E+02 -0.57374159745E+01 -0.25649894486E+01  0.42358558671E+02  0.00000000000E+00 0.  1.
</event>
<event>
 7    1  0.3162486E-013  0.7246158E+02  0.7816164E-02  0.1226708E+00
        -11   -1    0    0    0    0  0.00000000000E+00  0.00000000000E+00  0.45593999997E+02  0.45594000000E+02  0.51100000000E-03 0. -1.
         11   -1    0    0    0    0 -0.00000000000E+00 -0.00000000000E+00 -0.45593999997E+02  0.45594000000E+02  0.51100000000E-03 0.  1.
    9900012    2    1    2    0    0 -0.14355505333E+01  0.10427874094E+02 -0.15487981911E+02  0.72461576232E+02  0.70000007736E+02 0.  0.
         12    1    1    2    0    0  0.14355505333E+01 -0.10427874094E+02  0.15487981911E+02  0.18726423768E+02  0.00000000000E+00 0. -1.
         11    1    3    3    0    0 -0.76120013201E+01 -0.10044973069E+02 -0.96591227702E+01  0.15879001889E+02  0.51100000000E-03 0. -1.
        -11    1    3    3    0    0 -0.15377579544E+02  0.77852083546E+01 -0.21125442816E+02  0.27264697984E+02  0.51100000000E-03 0.  1.
         12    1    3    3    0    0  0.21554030331E+02  0.12687638808E+02  0.15296583676E+02  0.29317876359E+02  0.00000000000E+00 0. -1.
</event>
<event>
 7    1  0.3162486E-013  0.7246162E+02  0.7816164E-02  0.1226708E+00
        -11   -1    0    0    0    0  0.00000000000E+00  0.00000000000E+00  0.45593999997E+02  0.45594000000E+02  0.51100000000E-03 0.  1.
         11   -1    0    0    0    0 -0.00000000000E+00 -0.00000000000E+00 -0.45593999997E+02  0.45594000000E+02  0.51100000000E-03 0. -1.
    9900012    2    1    2    0    0 -0.16796373822E+02  0.44885364830E+01  0.69578884012E+01  0.72461619028E+02  0.70000063484E+02 0.  0.
         12    1    1    2    0    0  0.16796373822E+02 -0.44885364830E+01 -0.69578884012E+01  0.18726380972E+02  0.00000000000E+00 0. -1.
         11    1    3    3    0    0  0.10108231047E+02 -0.48039789078E+00 -0.82740207679E+01  0.13071592748E+02  0.51100000000E-03 0. -1.
        -11    1    3    3    0    0  0.62422430461E+00 -0.19479555027E+02 -0.14468829932E+00  0.19490091200E+02  0.51100000000E-03 0.  1.
        -12    1    3    3    0    0 -0.27528829173E+02  0.24448489401E+02  0.15376597468E+02  0.39899935079E+02  0.00000000000E+00 0.  1.
</event>
<event>
 7    1  0.3162486E-013  0.7246156E+02  0.7816164E-02  0.1226708E+00
        -11   -1    0    0    0    0  0.00000000000E+00  0.00000000000E+00  0.45593999997E+02  0.45594000000E+02  0.51100000000E-03 0.  1.
         11   -1    0    0    0    0 -0.00000000000E+00 -0.00000000000E+00 -0.45593999997E+02  0.45594000000E+02  0.51100000000E-03 0. -1.
    9900012    2    1    2    0    0 -0.16114212841E+02  0.77598477921E+01  0.55494561863E+01  0.72461559943E+02  0.69999986515E+02 0.  0.
         12    1    1    2    0    0  0.16114212841E+02 -0.77598477921E+01 -0.55494561863E+01  0.18726440057E+02  0.00000000000E+00 0. -1.
         11    1    3    3    0    0 -0.17419857314E+02  0.14080891405E+01 -0.13957325816E+02  0.22366070018E+02  0.51100000000E-03 0. -1.
        -11    1    3    3    0    0 -0.17066662517E+02 -0.42773229423E+01 -0.43894877563E+01  0.18133782398E+02  0.51100000000E-03 0.  1.
        -12    1    3    3    0    0  0.18372306990E+02  0.10629081594E+02  0.23896269759E+02  0.31961707527E+02  0.00000000000E+00 0.  1.
</event>
<event>
 7    1  0.3162486E-013  0.7246160E+02  0.7816164E-02  0.1226708E+00
        -11   -1    0    0    0    0  0.00000000000E+00  0.00000000000E+00  0.45593999997E+02  0.45594000000E+02  0.51100000000E-03 0. -1.
         11   -1    0    0    0    0 -0.00000000000E+00 -0.00000000000E+00 -0.45593999997E+02  0.45594000000E+02  0.51100000000E-03 0.  1.
    9900012    2    1    2    0    0  0.17933288646E+02 -0.10919200239E+01 -0.52804327746E+01  0.72461598816E+02  0.70000037155E+02 0.  0.
         12    1    1    2    0    0 -0.17933288646E+02  0.10919200239E+01  0.52804327746E+01  0.18726401184E+02  0.00000000000E+00 0. -1.
         11    1    3    3    0    0 -0.75059964675E+00  0.29635423248E+02  0.72943974496E+01  0.30529165487E+02  0.51100000000E-03 0. -1.
        -11    1    3    3    0    0  0.18411343753E+01 -0.45498572080E+00  0.33154146134E+01  0.38195238072E+01  0.51100000000E-03 0.  1.
        -12    1    3    3    0    0  0.16842753918E+02 -0.30272357551E+02 -0.15890244838E+02  0.38112909522E+02  0.00000000000E+00 0.  1.
</event>
<event>
 7    1  0.3162486E-013  0.7246158E+02  0.7816164E-02  0.1226708E+00
        -11   -1    0    0    0    0  0.00000000000E+00  0.00000000000E+00  0.45593999997E+02  0.45594000000E+02  0.51100000000E-03 0. -1.
         11   -1    0    0    0    0 -0.00000000000E+00 -0.00000000000E+00 -0.45593999997E+02  0.45594000000E+02  0.51100000000E-03 0.  1.
    9900012    2    1    2    0    0 -0.14563104664E+01 -0.17215505324E+02 -0.72238717542E+01  0.72461580512E+02  0.70000013310E+02 0.  0.
         12    1    1    2    0    0  0.14563104664E+01  0.17215505324E+02  0.72238717542E+01  0.18726419488E+02  0.00000000000E+00 0. -1.
         11    1    3    3    0    0  0.14251071375E+02 -0.12927369056E+02 -0.54992194914E+01  0.20011279852E+02  0.51100000000E-03 0. -1.
        -11    1    3    3    0    0  0.10624236412E+02  0.14892495483E+02 -0.67275230742E+01  0.19491546579E+02  0.51100000000E-03 0.  1.
         12    1    3    3    0    0 -0.26331618253E+02 -0.19180631751E+02  0.50028708114E+01  0.32958754081E+02  0.00000000000E+00 0. -1.
</event>
<event>
 7    1  0.3162486E-013  0.7246157E+02  0.7816164E-02  0.1226708E+00
        -11   -1    0    0    0    0  0.00000000000E+00  0.00000000000E+00  0.45593999997E+02  0.45594000000E+02  0.51100000000E-03 0.  1.
         11   -1    0    0    0    0 -0.00000000000E+00 -0.00000000000E+00 -0.45593999997E+02  0.45594000000E+02  0.51100000000E-03 0. -1.
    9900012    2    1    2    0    0 -0.88107972334E+01  0.80927417184E+01  0.14406829443E+02  0.72461565449E+02  0.69999993688E+02 0.  0.
         12    1    1    2    0    0  0.88107972334E+01 -0.80927417184E+01 -0.14406829443E+02  0.18726434551E+02  0.00000000000E+00 0. -1.
         11    1    3    3    0    0  0.62706321763E+01  0.10304843986E+02 -0.93385263038E+01  0.15255120821E+02  0.51100000000E-03 0. -1.
        -11    1    3    3    0    0  0.10264545915E+02  0.45848700895E+01 -0.95934690199E+01  0.14778923664E+02  0.51100000000E-03 0.  1.
        -12    1    3    3    0    0 -0.25345975325E+02 -0.67969723569E+01  0.33338824766E+02  0.42427520964E+02  0.00000000000E+00 0.  1.
</event>
<event>
 7    1  0.3162486E-013  0.7246154E+02  0.7816164E-02  0.1226708E+00
        -11   -1    0    0    0    0  0.00000000000E+00  0.00000000000E+00  0.45593999997E+02  0.45594000000E+02  0.51100000000E-03 0.  1.
         11   -1    0    0    0    0 -0.00000000000E+00 -0.00000000000E+00 -0.45593999997E+02  0.45594000000E+02  0.51100000000E-03 0. -1.
    9900012    2    1    2    0    0 -0.54798953193E+01 -0.12240541260E+02  0.13069826243E+02  0.72461535810E+02  0.69999955077E+02 0.  0.
         12    1    1    2    0    0  0.54798953193E+01  0.12240541260E+02 -0.13069826243E+02  0.18726464190E+02  0.00000000000E+00 0. -1.
         11    1    3    3    0    0  0.21535106062E+02 -0.63648873062E+01 -0.35793604494E+01  0.22739489990E+02  0.51100000000E-03 0. -1.
        -11    1    3    3    0    0  0.93735368463E+01 -0.44054757807E+01  0.25227718018E+01  0.10660008803E+02  0.51100000000E-03 0.  1.
        -12    1    3    3    0    0 -0.36388538227E+02 -0.14701781734E+01  0.14126414890E+02  0.39062037016E+02  0.00000000000E+00 0.  1.
</event>
<event>
 7    1  0.3162486E-013  0.7246166E+02  0.7816164E-02  0.1226708E+00
        -11   -1    0    0    0    0  0.00000000000E+00  0.00000000000E+00  0.45593999997E+02  0.45594000000E+02  0.51100000000E-03 0.  1.
         11   -1    0    0    0    0 -0.00000000000E+00 -0.00000000000E+00 -0.45593999997E+02  0.45594000000E+02  0.51100000000E-03 0. -1.
    9900012    2    1    2    0    0  0.83430789349E+00 -0.10293810538E+02 -0.15621045789E+02  0.72461663556E+02  0.70000121491E+02 0.  0.
         12    1    1    2    0    0 -0.83430789349E+00  0.10293810538E+02  0.15621045789E+02  0.18726336444E+02  0.00000000000E+00 0. -1.
         11    1    3    3    0    0 -0.71936928212E+00  0.27530797755E+01  0.40214840519E+01  0.49263855568E+01  0.51100000000E-03 0. -1.
        -11    1    3    3    0    0 -0.95299649292E+01  0.22292765692E+02  0.25180851739E+01  0.24374748962E+02  0.51100000000E-03 0.  1.
        -12    1    3    3    0    0  0.11083642105E+02 -0.35339656006E+02 -0.22160615015E+02  0.43160529037E+02  0.00000000000E+00 0.  1.
</event>
<event>
 7    1  0.3162486E-013  0.7246156E+02  0.7816164E-02  0.1226708E+00
        -11   -1    0    0    0    0  0.00000000000E+00  0.00000000000E+00  0.45593999997E+02  0.45594000000E+02  0.51100000000E-03 0.  1.
         11   -1    0    0    0    0 -0.00000000000E+00 -0.00000000000E+00 -0.45593999997E+02  0.45594000000E+02  0.51100000000E-03 0. -1.
    9900012    2    1    2    0    0  0.69602666666E+01 -0.86458521213E+01  0.15082554526E+02  0.72461560883E+02  0.69999987740E+02 0.  0.
         12    1    1    2    0    0 -0.69602666666E+01  0.86458521213E+01 -0.15082554526E+02  0.18726439117E+02  0.00000000000E+00 0. -1.
         11    1    3    3    0    0 -0.22920336736E+01 -0.14611086563E+02  0.19089593758E+02  0.24148496000E+02  0.51100000000E-03 0. -1.
        -11    1    3    3    0    0  0.68046057827E+01 -0.11057628245E+02  0.16855158334E+02  0.21276046742E+02  0.51100000000E-03 0.  1.
         12    1    3    3    0    0  0.24476945575E+01  0.17022862686E+02 -0.20862197566E+02  0.27037018141E+02  0.00000000000E+00 0. -1.
</event>
<event>
 7    1  0.3162486E-013  0.7246155E+02  0.7816164E-02  0.1226708E+00
        -11   -1    0    0    0    0  0.00000000000E+00  0.00000000000E+00  0.45593999997E+02  0.45594000000E+02  0.51100000000E-03 0. -1.
         11   -1    0    0    0    0 -0.00000000000E+00 -0.00000000000E+00 -0.45593999997E+02  0.45594000000E+02  0.51100000000E-03 0.  1.
    9900012    2    1    2    0    0 -0.16682644958E+02  0.82663510657E+00 -0.84667566302E+01  0.72461549823E+02  0.69999973333E+02 0.  0.
         12    1    1    2    0    0  0.16682644958E+02 -0.82663510657E+00  0.84667566302E+01  0.18726450177E+02  0.00000000000E+00 0. -1.
         11    1    3    3    0    0 -0.38290029674E+02 -0.10526601645E+02 -0.29457548375E+01  0.39819758745E+02  0.51100000000E-03 0. -1.
        -11    1    3    3    0    0 -0.12963815438E+01  0.64896831447E+01  0.35759721220E+01  0.75222449643E+01  0.51100000000E-03 0.  1.
        -12    1    3    3    0    0  0.22903766260E+02  0.48635536073E+01 -0.90969739146E+01  0.25119546115E+02  0.00000000000E+00 0.  1.
</event>
<event>
 7    1  0.3162486E-013  0.7246161E+02  0.7816164E-02  0.1226708E+00
        -11   -1    0    0    0    0  0.00000000000E+00  0.00000000000E+00  0.45593999997E+02  0.45594000000E+02  0.51100000000E-03 0. -1.
         11   -1    0    0    0    0 -0.00000000000E+00 -0.00000000000E+00 -0.45593999997E+02  0.45594000000E+02  0.51100000000E-03 0.  1.
    9900012    2    1    2    0    0  0.15965055094E+01  0.18656377181E+02 -0.26142584754E+00  0.72461612659E+02  0.70000055188E+02 0.  0.
         12    1    1    2    0    0 -0.15965055094E+01 -0.18656377181E+02  0.26142584754E+00  0.18726387341E+02  0.00000000000E+00 0. -1.
         11    1    3    3    0    0 -0.16578106020E+02 -0.14273301688E+02  0.11643928111E+02  0.24781884561E+02  0.51100000000E-03 0. -1.
        -11    1    3    3    0    0 -0.21631287537E+01  0.15770099467E+02 -0.13711182243E+02  0.21008847707E+02  0.51100000000E-03 0.  1.
        -12    1    3    3    0    0  0.20337740283E+02  0.17159579403E+02  0.18058282842E+01  0.26670880392E+02  0.00000000000E+00 0.  1.
</event>
<event>
 7    1  0.3162486E-013  0.7246159E+02  0.7816164E-02  0.1226708E+00
        -11   -1    0    0    0    0  0.00000000000E+00  0.00000000000E+00  0.45593999997E+02  0.45594000000E+02  0.51100000000E-03 0. -1.
         11   -1    0    0    0    0 -0.00000000000E+00 -0.00000000000E+00 -0.45593999997E+02  0.45594000000E+02  0.51100000000E-03 0.  1.
    9900012    2    1    2    0    0 -0.12507629865E+02 -0.22044917789E+01 -0.13761465666E+02  0.72461587473E+02  0.70000022379E+02 0.  0.
         12    1    1    2    0    0  0.12507629865E+02  0.22044917789E+01  0.13761465666E+02  0.18726412527E+02  0.00000000000E+00 0. -1.
         11    1    3    3    0    0 -0.23423256222E+01 -0.38976739808E+01 -0.32250148830E+02  0.32569164122E+02  0.51100000000E-03 0. -1.
        -11    1    3    3    0    0  0.13807350806E+01 -0.11459290457E+01 -0.94027393698E+01  0.95724130008E+01  0.51100000000E-03 0.  1.
         12    1    3    3    0    0 -0.11546039324E+02  0.28391112476E+01  0.27891422534E+02  0.30320010351E+02  0.00000000000E+00 0. -1.
</event>
<event>
 7    1  0.3162486E-013  0.7246152E+02  0.7816164E-02  0.1226708E+00
        -11   -1    0    0    0    0  0.00000000000E+00  0.00000000000E+00  0.45593999997E+02  0.45594000000E+02  0.51100000000E-03 0.  1.
         11   -1    0    0    0    0 -0.00000000000E+00 -0.00000000000E+00 -0.45593999997E+02  0.45594000000E+02  0.51100000000E-03 0. -1.
    9900012    2    1    2    0    0 -0.17330031015E+02 -0.56714876520E+01  0.42644087786E+01  0.72461523305E+02  0.69999938788E+02 0.  0.
         12    1    1    2    0    0  0.17330031015E+02  0.56714876520E+01 -0.42644087786E+01  0.18726476695E+02  0.00000000000E+00 0. -1.
         11    1    3    3    0    0 -0.41016676978E+01 -0.22421085475E+02 -0.52167413116E+01  0.23382539254E+02  0.51100000000E-03 0. -1.
        -11    1    3    3    0    0  0.62753072709E+00  0.66065461098E+01  0.25041485010E+02  0.25905910871E+02  0.51100000000E-03 0.  1.
         12    1    3    3    0    0 -0.13855894044E+02  0.10143051713E+02 -0.15560334920E+02  0.23173073180E+02  0.00000000000E+00 0. -1.
</event>
<event>
 7    1  0.3162486E-013  0.7246155E+02  0.7816164E-02  0.1226708E+00
        -11   -1    0    0    0    0  0.00000000000E+00  0.00000000000E+00  0.45593999997E+02  0.45594000000E+02  0.51100000000E-03 0. -1.
         11   -1    0    0    0    0 -0.00000000000E+00 -0.00000000000E+00 -0.45593999997E+02  0.45594000000E+02  0.51100000000E-03 0.  1.
    9900012    2    1    2    0    0  0.25125016851E+01  0.17690429622E+02  0.56049785753E+01  0.72461554802E+02  0.69999979818E+02 0.  0.
         12    1    1    2    0    0 -0.25125016851E+01 -0.17690429622E+02 -0.56049785753E+01  0.18726445198E+02  0.00000000000E+00 0. -1.
         11    1    3    3    0    0  0.50690443466E+01 -0.84217503241E+01 -0.95905896150E+01  0.13733189671E+02  0.51100000000E-03 0. -1.
        -11    1    3    3    0    0  0.20199164380E+02  0.71325857835E+01  0.19275314911E+02  0.28816970465E+02  0.51100000000E-03 0.  1.
        -12    1    3    3    0    0 -0.22755707042E+02  0.18979594163E+02 -0.40797467210E+01  0.29911394666E+02  0.00000000000E+00 0.  1.
</event>
<event>
 7    1  0.3162486E-013  0.7246139E+02  0.7816164E-02  0.1226709E+00
        -11   -1    0    0    0    0  0.00000000000E+00  0.00000000000E+00  0.45593999997E+02  0.45594000000E+02  0.51100000000E-03 0. -1.
         11   -1    0    0    0    0 -0.00000000000E+00 -0.00000000000E+00 -0.45593999997E+02  0.45594000000E+02  0.51100000000E-03 0.  1.
    9900012    2    1    2    0    0  0.18210991374E+02  0.24014005012E+01 -0.36440556475E+01  0.72461385977E+02  0.69999759893E+02 0.  0.
         12    1    1    2    0    0 -0.18210991374E+02 -0.24014005012E+01  0.36440556475E+01  0.18726614023E+02  0.00000000000E+00 0. -1.
         11    1    3    3    0    0 -0.13335120132E+01  0.87377262005E+01  0.84911408681E+01  0.12256654802E+02  0.51100000000E-03 0. -1.
        -11    1    3    3    0    0  0.34851033040E+02  0.80566664978E+01  0.33569741927E+00  0.35771735658E+02  0.51100000000E-03 0.  1.
         12    1    3    3    0    0 -0.15306529653E+02 -0.14392992197E+02 -0.12470893935E+02  0.24432995517E+02  0.00000000000E+00 0. -1.
</event>
<event>
 7    1  0.3162486E-013  0.7246149E+02  0.7816164E-02  0.1226708E+00
        -11   -1    0    0    0    0  0.00000000000E+00  0.00000000000E+00  0.45593999997E+02  0.45594000000E+02  0.51100000000E-03 0.  1.
         11   -1    0    0    0    0 -0.00000000000E+00 -0.00000000000E+00 -0.45593999997E+02  0.45594000000E+02  0.51100000000E-03 0. -1.
    9900012    2    1    2    0    0  0.15010234753E+02 -0.75011704076E+00 -0.11171947927E+02  0.72461488221E+02  0.69999893084E+02 0.  0.
         12    1    1    2    0    0 -0.15010234753E+02  0.75011704076E+00  0.11171947927E+02  0.18726511779E+02  0.00000000000E+00 0. -1.
         11    1    3    3    0    0  0.13623143820E+02 -0.72438341540E+01  0.97411120196E+01  0.18246984530E+02  0.51100000000E-03 0. -1.
        -11    1    3    3    0    0  0.16710801359E+02  0.72851098284E+00  0.98172808861E+01  0.19394860519E+02  0.51100000000E-03 0.  1.
         12    1    3    3    0    0 -0.15323710425E+02  0.57652061304E+01 -0.30730340833E+02  0.34819643172E+02  0.00000000000E+00 0. -1.
</event>
<event>
 7    1  0.3162486E-013  0.7246158E+02  0.7816164E-02  0.1226708E+00
        -11   -1    0    0    0    0  0.00000000000E+00  0.00000000000E+00  0.45593999997E+02  0.45594000000E+02  0.51100000000E-03 0.  1.
         11   -1    0    0    0    0 -0.00000000000E+00 -0.00000000000E+00 -0.45593999997E+02  0.45594000000E+02  0.51100000000E-03 0. -1.
    9900012    2    1    2    0    0 -0.11967576174E+02  0.14326814326E+02 -0.14827094306E+01  0.72461577077E+02  0.70000008836E+02 0.  0.
         12    1    1    2    0    0  0.11967576174E+02 -0.14326814326E+02  0.14827094306E+01  0.18726422923E+02  0.00000000000E+00 0. -1.
         11    1    3    3    0    0 -0.26482695142E+02 -0.15447906163E+02  0.96845440054E+01  0.32152159175E+02  0.51100000000E-03 0. -1.
        -11    1    3    3    0    0  0.81245348877E+01  0.14469185812E+02  0.48124932101E+01  0.17277890391E+02  0.51100000000E-03 0.  1.
        -12    1    3    3    0    0  0.63905840795E+01  0.15305534677E+02 -0.15979746646E+02  0.23031527511E+02  0.00000000000E+00 0.  1.
</event>
<event>
 7    1  0.3162486E-013  0.7246169E+02  0.7816164E-02  0.1226708E+00
        -11   -1    0    0    0    0  0.00000000000E+00  0.00000000000E+00  0.45593999997E+02  0.45594000000E+02  0.51100000000E-03 0.  1.
         11   -1    0    0    0    0 -0.00000000000E+00 -0.00000000000E+00 -0.45593999997E+02  0.45594000000E+02  0.51100000000E-03 0. -1.
    9900012    2    1    2    0    0 -0.10861234549E+02 -0.25017789988E+00  0.15252731877E+02  0.72461686038E+02  0.70000150777E+02 0.  0.
         12    1    1    2    0    0  0.10861234549E+02  0.25017789988E+00 -0.15252731877E+02  0.18726313962E+02  0.00000000000E+00 0. -1.
         11    1    3    3    0    0 -0.21982599229E+02 -0.19553412662E+02 -0.14215537295E+02  0.32674946311E+02  0.51100000000E-03 0. -1.
        -11    1    3    3    0    0 -0.14201181978E+01 -0.14384863663E+01  0.63470279215E+00  0.21186851152E+01  0.51100000000E-03 0.  1.
        -12    1    3    3    0    0  0.12541482878E+02  0.20741721128E+02  0.28833566379E+02  0.37668054612E+02  0.00000000000E+00 0.  1.
</event>
<event>
 7    1  0.3162486E-013  0.7246154E+02  0.7816164E-02  0.1226708E+00
        -11   -1    0    0    0    0  0.00000000000E+00  0.00000000000E+00  0.45593999997E+02  0.45594000000E+02  0.51100000000E-03 0. -1.
         11   -1    0    0    0    0 -0.00000000000E+00 -0.00000000000E+00 -0.45593999997E+02  0.45594000000E+02  0.51100000000E-03 0.  1.
    9900012    2    1    2    0    0 -0.20696187636E+01  0.12701296453E+02 -0.13604186310E+02  0.72461544420E+02  0.69999966294E+02 0.  0.
         12    1    1    2    0    0  0.20696187636E+01 -0.12701296453E+02  0.13604186310E+02  0.18726455580E+02  0.00000000000E+00 0. -1.
         11    1    3    3    0    0  0.19795140849E+02 -0.13995567786E+02  0.95042163566E+01  0.26039463276E+02  0.51100000000E-03 0. -1.
        -11    1    3    3    0    0 -0.72525488634E+00 -0.27905510425E+01  0.77393075868E+00  0.29853205609E+01  0.51100000000E-03 0.  1.
        -12    1    3    3    0    0 -0.21139504727E+02  0.29487415282E+02 -0.23882333426E+02  0.43436760583E+02  0.00000000000E+00 0.  1.
</event>
<event>
 7    1  0.3162486E-013  0.7246160E+02  0.7816164E-02  0.1226708E+00
        -11   -1    0    0    0    0  0.00000000000E+00  0.00000000000E+00  0.45593999997E+02  0.45594000000E+02  0.51100000000E-03 0.  1.
         11   -1    0    0    0    0 -0.00000000000E+00 -0.00000000000E+00 -0.45593999997E+02  0.45594000000E+02  0.51100000000E-03 0. -1.
    9900012    2    1    2    0    0 -0.69505782525E+01  0.17369545640E+02  0.81638900644E+00  0.72461597654E+02  0.70000035642E+02 0.  0.
         12    1    1    2    0    0  0.69505782525E+01 -0.17369545640E+02 -0.81638900644E+00  0.18726402346E+02  0.00000000000E+00 0. -1.
         11    1    3    3    0    0 -0.12822885286E+02 -0.65547378034E+01 -0.23105666732E+01  0.14585256026E+02  0.51100000000E-03 0. -1.
        -11    1    3    3    0    0 -0.58679589007E+01  0.21528867461E+02  0.24645656651E+02  0.33246555729E+02  0.51100000000E-03 0.  1.
        -12    1    3    3    0    0  0.11740265934E+02  0.23954159826E+01 -0.21518700971E+02  0.24629785899E+02  0.00000000000E+00 0.  1.
</event>
<event>
 7    1  0.3162486E-013  0.7246155E+02  0.7816164E-02  0.1226708E+00
        -11   -1    0    0    0    0  0.00000000000E+00  0.00000000000E+00  0.45593999997E+02  0.45594000000E+02  0.51100000000E-03 0.  1.
         11   -1    0    0    0    0 -0.00000000000E+00 -0.00000000000E+00 -0.45593999997E+02  0.45594000000E+02  0.51100000000E-03 0. -1.
    9900012    2    1    2    0    0 -0.89859735185E+01  0.64706563913E+01  0.15101744013E+02  0.72461553822E+02  0.69999978542E+02 0.  0.
         12    1    1    2    0    0  0.89859735185E+01 -0.64706563913E+01 -0.15101744013E+02  0.18726446178E+02  0.00000000000E+00 0. -1.
         11    1    3    3    0    0  0.80817280346E+01  0.11861002331E+02  0.63276459719E+01  0.15685560498E+02  0.51100000000E-03 0. -1.
        -11    1    3    3    0    0 -0.16544932780E+02  0.22648309555E+02  0.46590745451E+01  0.28432159648E+02  0.51100000000E-03 0.  1.
        -12    1    3    3    0    0 -0.52276877326E+00 -0.28038655494E+02  0.41150234962E+01  0.28343833677E+02  0.00000000000E+00 0.  1.
</event>
<event>
 7    1  0.3162486E-013  0.7246167E+02  0.7816164E-02  0.1226708E+00
        -11   -1    0    0    0    0  0.00000000000E+00  0.00000000000E+00  0.45593999997E+02  0.45594000000E+02  0.51100000000E-03 0.  1.
         11   -1    0    0    0    0 -0.00000000000E+00 -0.00000000000E+00 -0.45593999997E+02  0.45594000000E+02  0.51100000000E-03 0. -1.
    9900012    2    1    2    0    0 -0.10362933588E+02  0.13369599310E+02  0.80336167445E+01  0.72461666236E+02  0.70000124981E+02 0.  0.
         12    1    1    2    0    0  0.10362933588E+02 -0.13369599310E+02 -0.80336167445E+01  0.18726333764E+02  0.00000000000E+00 0. -1.
         11    1    3    3    0    0  0.30457134402E+01  0.83633136394E+01 -0.18056199597E+02  0.20130765747E+02  0.51100000000E-03 0. -1.
        -11    1    3    3    0    0  0.40757233706E+01 -0.12150492807E+02 -0.40975917590E+01  0.13454971384E+02  0.51100000000E-03 0.  1.
        -12    1    3    3    0    0 -0.17484370398E+02  0.17156778478E+02  0.30187408101E+02  0.38875929105E+02  0.00000000000E+00 0.  1.
</event>
<event>
 7    1  0.3919123E-013  0.7246166E+02  0.7816164E-02  0.1226708E+00
        -11   -1    0    0    0    0  0.00000000000E+00  0.00000000000E+00  0.45593999997E+02  0.45594000000E+02  0.51100000000E-03 0.  1.
         11   -1    0    0    0    0 -0.00000000000E+00 -0.00000000000E+00 -0.45593999997E+02  0.45594000000E+02  0.51100000000E-03 0. -1.
    9900012    2    1    2    0    0  0.14184096225E+02  0.11636847143E+02  0.37511152705E+01  0.72461663922E+02  0.70000121967E+02 0.  0.
         12    1    1    2    0    0 -0.14184096225E+02 -0.11636847143E+02 -0.37511152705E+01  0.18726336078E+02  0.00000000000E+00 0. -1.
         11    1    3    3    0    0 -0.82049621096E+01  0.17827127969E+00 -0.21782066886E+02  0.23276847337E+02  0.51100000000E-03 0. -1.
        -11    1    3    3    0    0  0.39558450109E+01 -0.10530182548E+02  0.75541602758E+00  0.11274045764E+02  0.51100000000E-03 0.  1.
        -12    1    3    3    0    0  0.18433213323E+02  0.21988758412E+02  0.24777766129E+02  0.37910770821E+02  0.00000000000E+00 0.  1.
</event>
<event>
 7    1  0.3162486E-013  0.7246157E+02  0.7816164E-02  0.1226708E+00
        -11   -1    0    0    0    0  0.00000000000E+00  0.00000000000E+00  0.45593999997E+02  0.45594000000E+02  0.51100000000E-03 0. -1.
         11   -1    0    0    0    0 -0.00000000000E+00 -0.00000000000E+00 -0.45593999997E+02  0.45594000000E+02  0.51100000000E-03 0.  1.
    9900012    2    1    2    0    0  0.40347453798E+01 -0.17693818987E+02 -0.46183184687E+01  0.72461567715E+02  0.69999996640E+02 0.  0.
         12    1    1    2    0    0 -0.40347453798E+01  0.17693818987E+02  0.46183184687E+01  0.18726432285E+02  0.00000000000E+00 0. -1.
         11    1    3    3    0    0  0.17463695539E+02 -0.36653183972E+01  0.27104621320E+02  0.32451128147E+02  0.51100000000E-03 0. -1.
        -11    1    3    3    0    0 -0.34062672191E+01  0.19819228516E+01 -0.12070265268E+01  0.41216001571E+01  0.51100000000E-03 0.  1.
        -12    1    3    3    0    0 -0.10022682940E+02 -0.16010423442E+02 -0.30515913262E+02  0.35888839412E+02  0.00000000000E+00 0.  1.
</event>
<event>
 7    1  0.3162486E-013  0.7246131E+02  0.7816164E-02  0.1226709E+00
        -11   -1    0    0    0    0  0.00000000000E+00  0.00000000000E+00  0.45593999997E+02  0.45594000000E+02  0.51100000000E-03 0.  1.
         11   -1    0    0    0    0 -0.00000000000E+00 -0.00000000000E+00 -0.45593999997E+02  0.45594000000E+02  0.51100000000E-03 0. -1.
    9900012    2    1    2    0    0 -0.45786295327E+01 -0.82997128152E+01  0.16150539765E+02  0.72461307395E+02  0.69999657524E+02 0.  0.
         12    1    1    2    0    0  0.45786295327E+01  0.82997128152E+01 -0.16150539765E+02  0.18726692605E+02  0.00000000000E+00 0. -1.
         11    1    3    3    0    0  0.17175876966E+02 -0.17340701251E+02 -0.64158507983E+01  0.25236358913E+02  0.51100000000E-03 0. -1.
        -11    1    3    3    0    0  0.25579829809E+00  0.16540867931E+02  0.16112747665E+02  0.23092994224E+02  0.51100000000E-03 0.  1.
        -12    1    3    3    0    0 -0.22010304797E+02 -0.74998794944E+01  0.64536428980E+01  0.24131954258E+02  0.00000000000E+00 0.  1.
</event>
<event>
 7    1  0.3162486E-013  0.7246160E+02  0.7816164E-02  0.1226708E+00
        -11   -1    0    0    0    0  0.00000000000E+00  0.00000000000E+00  0.45593999997E+02  0.45594000000E+02  0.51100000000E-03 0.  1.
         11   -1    0    0    0    0 -0.00000000000E+00 -0.00000000000E+00 -0.45593999997E+02  0.45594000000E+02  0.51100000000E-03 0. -1.
    9900012    2    1    2    0    0 -0.10846747930E+02  0.28104273165E+01  0.15004257750E+02  0.72461596368E+02  0.70000033966E+02 0.  0.
         12    1    1    2    0    0  0.10846747930E+02 -0.28104273165E+01 -0.15004257750E+02  0.18726403632E+02  0.00000000000E+00 0. -1.
         11    1    3    3    0    0  0.14269793483E+02  0.24706199039E+02  0.25982712615E+01  0.28649158641E+02  0.51100000000E-03 0. -1.
        -11    1    3    3    0    0 -0.17675641864E+01  0.98709573427E-01 -0.63923877477E+01  0.66329969178E+01  0.51100000000E-03 0.  1.
        -12    1    3    3    0    0 -0.23348977226E+02 -0.21994481296E+02  0.18798374236E+02  0.37179440810E+02  0.00000000000E+00 0.  1.
</event>
<event>
 7    1  0.3162486E-013  0.7246154E+02  0.7816164E-02  0.1226708E+00
        -11   -1    0    0    0    0  0.00000000000E+00  0.00000000000E+00  0.45593999997E+02  0.45594000000E+02  0.51100000000E-03 0.  1.
         11   -1    0    0    0    0 -0.00000000000E+00 -0.00000000000E+00 -0.45593999997E+02  0.45594000000E+02  0.51100000000E-03 0. -1.
    9900012    2    1    2    0    0  0.13238287444E+02 -0.15223335286E+01  0.13157151404E+02  0.72461537791E+02  0.69999957658E+02 0.  0.
         12    1    1    2    0    0 -0.13238287444E+02  0.15223335286E+01 -0.13157151404E+02  0.18726462209E+02  0.00000000000E+00 0. -1.
         11    1    3    3    0    0 -0.17567399518E+02  0.20685052224E+02  0.22203978579E+01  0.27228938250E+02  0.51100000000E-03 0. -1.
        -11    1    3    3    0    0  0.12901702490E+01  0.66335535186E+00  0.76079566237E+01  0.77450360776E+01  0.51100000000E-03 0.  1.
         12    1    3    3    0    0  0.29515516712E+02 -0.22870741104E+02  0.33287969222E+01  0.37487563463E+02  0.00000000000E+00 0. -1.
</event>
<event>
 7    1  0.3162486E-013  0.7246159E+02  0.7816164E-02  0.1226708E+00
        -11   -1    0    0    0    0  0.00000000000E+00  0.00000000000E+00  0.45593999997E+02  0.45594000000E+02  0.51100000000E-03 0. -1.
         11   -1    0    0    0    0 -0.00000000000E+00 -0.00000000000E+00 -0.45593999997E+02  0.45594000000E+02  0.51100000000E-03 0.  1.
    9900012    2    1    2    0    0  0.13388079738E+02  0.12884372920E+02  0.23304037868E+01  0.72461587466E+02  0.70000022369E+02 0.  0.
         12    1    1    2    0    0 -0.13388079738E+02 -0.12884372920E+02 -0.23304037868E+01  0.18726412534E+02  0.00000000000E+00 0. -1.
         11    1    3    3    0    0  0.35763943744E+02 -0.51513267863E+00  0.68470951146E+00  0.35774206646E+02  0.51100000000E-03 0. -1.
        -11    1    3    3    0    0 -0.78451665914E+01 -0.63395256906E+01 -0.50481022338E+01  0.11279164918E+02  0.51100000000E-03 0.  1.
        -12    1    3    3    0    0 -0.14530697415E+02  0.19739031289E+02  0.66937965091E+01  0.25408215901E+02  0.00000000000E+00 0.  1.
</event>
<event>
 7    1  0.3162486E-013  0.7246157E+02  0.7816164E-02  0.1226708E+00
        -11   -1    0    0    0    0  0.00000000000E+00  0.00000000000E+00  0.45593999997E+02  0.45594000000E+02  0.51100000000E-03 0.  1.
         11   -1    0    0    0    0 -0.00000000000E+00 -0.00000000000E+00 -0.45593999997E+02  0.45594000000E+02  0.51100000000E-03 0. -1.
    9900012    2    1    2    0    0 -0.12123250063E+02  0.29998783572E+01  0.13953740624E+02  0.72461565752E+02  0.69999994082E+02 0.  0.
         12    1    1    2    0    0  0.12123250063E+02 -0.29998783572E+01 -0.13953740624E+02  0.18726434248E+02  0.00000000000E+00 0. -1.
         11    1    3    3    0    0  0.48501766241E+01  0.19440293004E+02 -0.13753084743E+02  0.24302192197E+02  0.51100000000E-03 0. -1.
        -11    1    3    3    0    0 -0.14648553319E+02 -0.17148913285E+01 -0.20370483708E+01  0.14888604130E+02  0.51100000000E-03 0.  1.
        -12    1    3    3    0    0 -0.23248733682E+01 -0.14725523319E+02  0.29743873738E+02  0.33270769425E+02  0.00000000000E+00 0.  1.
</event>
<event>
 7    1  0.3162486E-013  0.7246165E+02  0.7816164E-02  0.1226708E+00
        -11   -1    0    0    0    0  0.00000000000E+00  0.00000000000E+00  0.45593999997E+02  0.45594000000E+02  0.51100000000E-03 0. -1.
         11   -1    0    0    0    0 -0.00000000000E+00 -0.00000000000E+00 -0.45593999997E+02  0.45594000000E+02  0.51100000000E-03 0.  1.
    9900012    2    1    2    0    0  0.12809514575E+02 -0.49376307586E+01  0.12736253763E+02  0.72461654359E+02  0.70000109510E+02 0.  0.
         12    1    1    2    0    0 -0.12809514575E+02  0.49376307586E+01 -0.12736253763E+02  0.18726345641E+02  0.00000000000E+00 0. -1.
         11    1    3    3    0    0  0.89762790057E+01  0.25238329775E+02  0.70589692171E+01  0.27701550882E+02  0.51100000000E-03 0. -1.
        -11    1    3    3    0    0  0.18088718060E+02 -0.18622248935E+02  0.19391673300E+01  0.26033636831E+02  0.51100000000E-03 0.  1.
        -12    1    3    3    0    0 -0.14255482491E+02 -0.11553711598E+02  0.37381172160E+01  0.18726466646E+02  0.00000000000E+00 0.  1.
</event>
<event>
 7    1  0.3162486E-013  0.7246172E+02  0.7816164E-02  0.1226708E+00
        -11   -1    0    0    0    0  0.00000000000E+00  0.00000000000E+00  0.45593999997E+02  0.45594000000E+02  0.51100000000E-03 0.  1.
         11   -1    0    0    0    0 -0.00000000000E+00 -0.00000000000E+00 -0.45593999997E+02  0.45594000000E+02  0.51100000000E-03 0. -1.
    9900012    2    1    2    0    0  0.18147471413E+02  0.45120096862E+01  0.99232866560E+00  0.72461717233E+02  0.70000191414E+02 0.  0.
         12    1    1    2    0    0 -0.18147471413E+02 -0.45120096862E+01 -0.99232866560E+00  0.18726282767E+02  0.00000000000E+00 0. -1.
         11    1    3    3    0    0 -0.18396506494E+01  0.27443661677E+01 -0.80740735615E+01  0.87239053360E+01  0.51100000000E-03 0. -1.
        -11    1    3    3    0    0  0.12892699571E+02 -0.28878805761E+02  0.50116179168E+01  0.32020672055E+02  0.51100000000E-03 0.  1.
         12    1    3    3    0    0  0.70944224914E+01  0.30646449280E+02  0.40547843103E+01  0.31717139842E+02  0.00000000000E+00 0. -1.
</event>
<event>
 7    1  0.3162486E-013  0.7246160E+02  0.7816164E-02  0.1226708E+00
        -11   -1    0    0    0    0  0.00000000000E+00  0.00000000000E+00  0.45593999997E+02  0.45594000000E+02  0.51100000000E-03 0.  1.
         11   -1    0    0    0    0 -0.00000000000E+00 -0.00000000000E+00 -0.45593999997E+02  0.45594000000E+02  0.51100000000E-03 0. -1.
    9900012    2    1    2    0    0  0.19991998076E+01 -0.14414498313E+02  0.11785728347E+02  0.72461602744E+02  0.70000042272E+02 0.  0.
         12    1    1    2    0    0 -0.19991998076E+01  0.14414498313E+02 -0.11785728347E+02  0.18726397256E+02  0.00000000000E+00 0. -1.
         11    1    3    3    0    0  0.67197162057E+01  0.91794563152E+01  0.33733005913E+01  0.11865755824E+02  0.51100000000E-03 0. -1.
        -11    1    3    3    0    0  0.91409845722E+01 -0.30908064626E+02  0.22672158842E+02  0.39406761408E+02  0.51100000000E-03 0.  1.
         12    1    3    3    0    0 -0.13861500970E+02  0.73141099977E+01 -0.14259731086E+02  0.21189085512E+02  0.00000000000E+00 0. -1.
</event>
<event>
 7    1  0.3162486E-013  0.7246164E+02  0.7816164E-02  0.1226708E+00
        -11   -1    0    0    0    0  0.00000000000E+00  0.00000000000E+00  0.45593999997E+02  0.45594000000E+02  0.51100000000E-03 0.  1.
         11   -1    0    0    0    0 -0.00000000000E+00 -0.00000000000E+00 -0.45593999997E+02  0.45594000000E+02  0.51100000000E-03 0. -1.
    9900012    2    1    2    0    0  0.12811206159E+02  0.16962223432E+01  0.13552580937E+02  0.72461638273E+02  0.70000088555E+02 0.  0.
         12    1    1    2    0    0 -0.12811206159E+02 -0.16962223432E+01 -0.13552580937E+02  0.18726361727E+02  0.00000000000E+00 0. -1.
         11    1    3    3    0    0  0.17447107238E+02 -0.69037214085E+01  0.73108156250E+01  0.20137302343E+02  0.51100000000E-03 0. -1.
        -11    1    3    3    0    0 -0.10671333298E+02  0.11939150655E+02  0.26478710786E+02  0.30944188435E+02  0.51100000000E-03 0.  1.
         12    1    3    3    0    0  0.60354322186E+01 -0.33392069029E+01 -0.20236945474E+02  0.21380147496E+02  0.00000000000E+00 0. -1.
</event>
<event>
 7    1  0.3162486E-013  0.7246157E+02  0.7816164E-02  0.1226708E+00
        -11   -1    0    0    0    0  0.00000000000E+00  0.00000000000E+00  0.45593999997E+02  0.45594000000E+02  0.51100000000E-03 0. -1.
         11   -1    0    0    0    0 -0.00000000000E+00 -0.00000000000E+00 -0.45593999997E+02  0.45594000000E+02  0.51100000000E-03 0.  1.
    9900012    2    1    2    0    0  0.34815672795E+00 -0.81937003957E+01 -0.16835122486E+02  0.72461567120E+02  0.69999995865E+02 0.  0.
         12    1    1    2    0    0 -0.34815672795E+00  0.81937003957E+01  0.16835122486E+02  0.18726432880E+02  0.00000000000E+00 0. -1.
         11    1    3    3    0    0 -0.67678847939E+01 -0.14556834486E+02  0.13695796959E+01  0.16111531387E+02  0.51100000000E-03 0. -1.
        -11    1    3    3    0    0  0.21758288908E+02 -0.14875799150E+02 -0.33170327804E+01  0.26565301491E+02  0.51100000000E-03 0.  1.
         12    1    3    3    0    0 -0.14642247387E+02  0.21238933240E+02 -0.14887669401E+02  0.29784734243E+02  0.00000000000E+00 0. -1.
</event>
<event>
 7    1  0.3162486E-013  0.7246159E+02  0.7816164E-02  0.1226708E+00
        -11   -1    0    0    0    0  0.00000000000E+00  0.00000000000E+00  0.45593999997E+02  0.45594000000E+02  0.51100000000E-03 0.  1.
         11   -1    0    0    0    0 -0.00000000000E+00 -0.00000000000E+00 -0.45593999997E+02  0.45594000000E+02  0.51100000000E-03 0. -1.
    9900012    2    1    2    0    0 -0.12892515743E+02  0.12866371520E+02 -0.43494935340E+01  0.72461586241E+02  0.70000020773E+02 0.  0.
         12    1    1    2    0    0  0.12892515743E+02 -0.12866371520E+02  0.43494935340E+01  0.18726413759E+02  0.00000000000E+00 0. -1.
         11    1    3    3    0    0  0.63627542517E+01 -0.12344621162E+00  0.57445703677E+01  0.85732123271E+01  0.51100000000E-03 0. -1.
        -11    1    3    3    0    0 -0.51171246626E+01  0.27639482423E+02  0.14769178595E+02  0.31753024896E+02  0.51100000000E-03 0.  1.
         12    1    3    3    0    0 -0.14138145332E+02 -0.14649664692E+02 -0.24863242497E+02  0.32135349017E+02  0.00000000000E+00 0. -1.
</event>
<event>
 7    1  0.3162486E-013  0.7246158E+02  0.7816164E-02  0.1226708E+00
        -11   -1    0    0    0    0  0.00000000000E+00  0.00000000000E+00  0.45593999997E+02  0.45594000000E+02  0.51100000000E-03 0. -1.
         11   -1    0    0    0    0 -0.00000000000E+00 -0.00000000000E+00 -0.45593999997E+02  0.45594000000E+02  0.51100000000E-03 0.  1.
    9900012    2    1    2    0    0  0.10832587389E+02 -0.91059348319E+01 -0.12264406953E+02  0.72461583455E+02  0.70000017144E+02 0.  0.
         12    1    1    2    0    0 -0.10832587389E+02  0.91059348319E+01  0.12264406953E+02  0.18726416545E+02  0.00000000000E+00 0. -1.
         11    1    3    3    0    0  0.39965070114E+01  0.65018420423E+01  0.21743643186E+02  0.23044132388E+02  0.51100000000E-03 0. -1.
        -11    1    3    3    0    0 -0.40533060382E+01  0.81262299813E+01 -0.49212122684E+01  0.10328757621E+02  0.51100000000E-03 0.  1.
        -12    1    3    3    0    0  0.10889386416E+02 -0.23734006856E+02 -0.29086837871E+02  0.39088693446E+02  0.00000000000E+00 0.  1.
</event>
<event>
 7    1  0.3162486E-013  0.7246157E+02  0.7816164E-02  0.1226708E+00
        -11   -1    0    0    0    0  0.00000000000E+00  0.00000000000E+00  0.45593999997E+02  0.45594000000E+02  0.51100000000E-03 0.  1.
         11   -1    0    0    0    0 -0.00000000000E+00 -0.00000000000E+00 -0.45593999997E+02  0.45594000000E+02  0.51100000000E-03 0. -1.
    9900012    2    1    2    0    0 -0.69211502891E+01  0.11785348635E+02  0.12801658478E+02  0.72461568852E+02  0.69999998121E+02 0.  0.
         12    1    1    2    0    0  0.69211502891E+01 -0.11785348635E+02 -0.12801658478E+02  0.18726431148E+02  0.00000000000E+00 0. -1.
         11    1    3    3    0    0 -0.52686873702E+01  0.19684835652E+02 -0.14453397512E+02  0.24983044673E+02  0.51100000000E-03 0. -1.
        -11    1    3    3    0    0 -0.25421341125E+01 -0.15538051198E+02 -0.32008659108E+01  0.16066705441E+02  0.51100000000E-03 0.  1.
        -12    1    3    3    0    0  0.88967119366E+00  0.76385641806E+01  0.30455921901E+02  0.31411818738E+02  0.00000000000E+00 0.  1.
</event>
<event>
 7    1  0.3162486E-013  0.7246168E+02  0.7816164E-02  0.1226708E+00
        -11   -1    0    0    0    0  0.00000000000E+00  0.00000000000E+00  0.45593999997E+02  0.45594000000E+02  0.51100000000E-03 0. -1.
         11   -1    0    0    0    0 -0.00000000000E+00 -0.00000000000E+00 -0.45593999997E+02  0.45594000000E+02  0.51100000000E-03 0.  1.
    9900012    2    1    2    0    0  0.11075592778E+02 -0.14999689748E+02  0.17365277960E+01  0.72461682244E+02  0.70000145835E+02 0.  0.
         12    1    1    2    0    0 -0.11075592778E+02  0.14999689748E+02 -0.17365277960E+01  0.18726317756E+02  0.00000000000E+00 0. -1.
         11    1    3    3    0    0  0.10018568615E+01  0.71435387970E+00 -0.11819952712E+01  0.17062038913E+01  0.51100000000E-03 0. -1.
        -11    1    3    3    0    0  0.12373565696E+02  0.89900418269E+01 -0.27520939602E+02  0.31485363217E+02  0.51100000000E-03 0.  1.
         12    1    3    3    0    0 -0.22998297800E+01 -0.24704085455E+02  0.30439462669E+02  0.39270115135E+02  0.00000000000E+00 0. -1.
</event>
<event>
 7    1  0.3162486E-013  0.7246160E+02  0.7816164E-02  0.1226708E+00
        -11   -1    0    0    0    0  0.00000000000E+00  0.00000000000E+00  0.45593999997E+02  0.45594000000E+02  0.51100000000E-03 0.  1.
         11   -1    0    0    0    0 -0.00000000000E+00 -0.00000000000E+00 -0.45593999997E+02  0.45594000000E+02  0.51100000000E-03 0. -1.
    9900012    2    1    2    0    0 -0.71782839141E+01 -0.87441361325E+01  0.14922811717E+02  0.72461601890E+02  0.70000041159E+02 0.  0.
         12    1    1    2    0    0  0.71782839141E+01  0.87441361325E+01 -0.14922811717E+02  0.18726398110E+02  0.00000000000E+00 0. -1.
         11    1    3    3    0    0  0.24046310299E+02 -0.32504878882E+01  0.12454641890E+02  0.27274691847E+02  0.51100000000E-03 0. -1.
        -11    1    3    3    0    0  0.54545960611E+01 -0.38566032059E+01  0.50592999790E+01  0.83798880074E+01  0.51100000000E-03 0.  1.
         12    1    3    3    0    0 -0.36679190274E+02 -0.16370450384E+01 -0.25911301517E+01  0.36807022035E+02  0.00000000000E+00 0. -1.
</event>
<event>
 7    1  0.3162486E-013  0.7246156E+02  0.7816164E-02  0.1226708E+00
        -11   -1    0    0    0    0  0.00000000000E+00  0.00000000000E+00  0.45593999997E+02  0.45594000000E+02  0.51100000000E-03 0. -1.
         11   -1    0    0    0    0 -0.00000000000E+00 -0.00000000000E+00 -0.45593999997E+02  0.45594000000E+02  0.51100000000E-03 0.  1.
    9900012    2    1    2    0    0  0.16834832863E+02  0.54285969033E+01 -0.61480310126E+01  0.72461560210E+02  0.69999986864E+02 0.  0.
         12    1    1    2    0    0 -0.16834832863E+02 -0.54285969033E+01  0.61480310126E+01  0.18726439790E+02  0.00000000000E+00 0. -1.
         11    1    3    3    0    0 -0.11519796084E+02 -0.15383758345E+02 -0.86537151104E+00  0.19238362476E+02  0.51100000000E-03 0. -1.
        -11    1    3    3    0    0 -0.89504705306E+01  0.48432216635E+01  0.50327699696E+01  0.11353259119E+02  0.51100000000E-03 0.  1.
        -12    1    3    3    0    0  0.37305099478E+02  0.15969133585E+02 -0.10315429471E+02  0.41869938615E+02  0.00000000000E+00 0.  1.
</event>
<event>
 7    1  0.3162486E-013  0.7246157E+02  0.7816164E-02  0.1226708E+00
        -11   -1    0    0    0    0  0.00000000000E+00  0.00000000000E+00  0.45593999997E+02  0.45594000000E+02  0.51100000000E-03 0. -1.
         11   -1    0    0    0    0 -0.00000000000E+00 -0.00000000000E+00 -0.45593999997E+02  0.45594000000E+02  0.51100000000E-03 0.  1.
    9900012    2    1    2    0    0 -0.17727000211E+02  0.61674297529E+00 -0.60043428012E+01  0.72461573730E+02  0.70000004475E+02 0.  0.
         12    1    1    2    0    0  0.17727000211E+02 -0.61674297529E+00  0.60043428012E+01  0.18726426270E+02  0.00000000000E+00 0. -1.
         11    1    3    3    0    0  0.18637787043E+02 -0.13886021902E+02 -0.56889255768E+01  0.23928071059E+02  0.51100000000E-03 0. -1.
        -11    1    3    3    0    0  0.33070310028E+01  0.48997592637E+01  0.45050227729E+01  0.74323162837E+01  0.51100000000E-03 0.  1.
        -12    1    3    3    0    0 -0.39671818257E+02  0.96030056138E+01 -0.48204399973E+01  0.41101186387E+02  0.00000000000E+00 0.  1.
</event>
<event>
 7    1  0.3162486E-013  0.7246153E+02  0.7816164E-02  0.1226708E+00
        -11   -1    0    0    0    0  0.00000000000E+00  0.00000000000E+00  0.45593999997E+02  0.45594000000E+02  0.51100000000E-03 0.  1.
         11   -1    0    0    0    0 -0.00000000000E+00 -0.00000000000E+00 -0.45593999997E+02  0.45594000000E+02  0.51100000000E-03 0. -1.
    9900012    2    1    2    0    0 -0.40976727810E+01  0.13112099624E+02 -0.12726452965E+02  0.72461529862E+02  0.69999947329E+02 0.  0.
         12    1    1    2    0    0  0.40976727810E+01 -0.13112099624E+02  0.12726452965E+02  0.18726470138E+02  0.00000000000E+00 0. -1.
         11    1    3    3    0    0 -0.11960206947E+02  0.35022921481E+02 -0.21502612902E+02  0.42802031975E+02  0.51100000000E-03 0. -1.
        -11    1    3    3    0    0 -0.35056793008E+01  0.34224256447E-01  0.24766512377E+00  0.35145834653E+01  0.51100000000E-03 0.  1.
        -12    1    3    3    0    0  0.11368213467E+02 -0.21945046113E+02  0.85284948133E+01  0.26144914422E+02  0.00000000000E+00 0.  1.
</event>
<event>
 7    1  0.3162486E-013  0.7246170E+02  0.7816164E-02  0.1226708E+00
        -11   -1    0    0    0    0  0.00000000000E+00  0.00000000000E+00  0.45593999997E+02  0.45594000000E+02  0.51100000000E-03 0.  1.
         11   -1    0    0    0    0 -0.00000000000E+00 -0.00000000000E+00 -0.45593999997E+02  0.45594000000E+02  0.51100000000E-03 0. -1.
    9900012    2    1    2    0    0 -0.18805298103E+01 -0.15665340563E+02  0.10086377914E+02  0.72461700132E+02  0.70000169137E+02 0.  0.
         12    1    1    2    0    0  0.18805298103E+01  0.15665340563E+02 -0.10086377914E+02  0.18726299868E+02  0.00000000000E+00 0. -1.
         11    1    3    3    0    0 -0.12627629906E+02 -0.24500861722E+01 -0.86863985721E+01  0.15521387815E+02  0.51100000000E-03 0. -1.
        -11    1    3    3    0    0  0.28184323853E+02 -0.15118901231E+02  0.10437693447E+01  0.32000417813E+02  0.51100000000E-03 0.  1.
         12    1    3    3    0    0 -0.17437223757E+02  0.19036468406E+01  0.17729007142E+02  0.24939894504E+02  0.00000000000E+00 0. -1.
</event>
<event>
 7    1  0.3162486E-013  0.7246159E+02  0.7816164E-02  0.1226708E+00
        -11   -1    0    0    0    0  0.00000000000E+00  0.00000000000E+00  0.45593999997E+02  0.45594000000E+02  0.51100000000E-03 0. -1.
         11   -1    0    0    0    0 -0.00000000000E+00 -0.00000000000E+00 -0.45593999997E+02  0.45594000000E+02  0.51100000000E-03 0.  1.
    9900012    2    1    2    0    0 -0.95058109094E+01  0.68015845892E+01 -0.14630672029E+02  0.72461586622E+02  0.70000021270E+02 0.  0.
         12    1    1    2    0    0  0.95058109094E+01 -0.68015845892E+01  0.14630672029E+02  0.18726413378E+02  0.00000000000E+00 0. -1.
         11    1    3    3    0    0  0.14043032751E+01  0.16796402123E+01 -0.15216761394E+01  0.26662253216E+01  0.51100000000E-03 0. -1.
        -11    1    3    3    0    0  0.15681009959E+02  0.12159143837E+02 -0.31126324832E+02  0.36913235431E+02  0.51100000000E-03 0.  1.
         12    1    3    3    0    0 -0.26591124144E+02 -0.70371994603E+01  0.18017328942E+02  0.32882125869E+02  0.00000000000E+00 0. -1.
</event>
<event>
 7    1  0.3162486E-013  0.7246157E+02  0.7816164E-02  0.1226708E+00
        -11   -1    0    0    0    0  0.00000000000E+00  0.00000000000E+00  0.45593999997E+02  0.45594000000E+02  0.51100000000E-03 0. -1.
         11   -1    0    0    0    0 -0.00000000000E+00 -0.00000000000E+00 -0.45593999997E+02  0.45594000000E+02  0.51100000000E-03 0.  1.
    9900012    2    1    2    0    0 -0.87642841171E+01  0.39410322059E+01 -0.16072797266E+02  0.72461568869E+02  0.69999998143E+02 0.  0.
         12    1    1    2    0    0  0.87642841171E+01 -0.39410322059E+01  0.16072797266E+02  0.18726431131E+02  0.00000000000E+00 0. -1.
         11    1    3    3    0    0 -0.17901799864E+02 -0.10178378549E+02  0.41143235782E+01  0.21000035405E+02  0.51100000000E-03 0. -1.
        -11    1    3    3    0    0 -0.17485758496E+02  0.10641666003E+02 -0.80326270043E+01  0.21989085983E+02  0.51100000000E-03 0.  1.
        -12    1    3    3    0    0  0.26623274243E+02  0.34777447516E+01 -0.12154493840E+02  0.29472447481E+02  0.00000000000E+00 0.  1.
</event>
<event>
 7    1  0.3162486E-013  0.7246173E+02  0.7816164E-02  0.1226708E+00
        -11   -1    0    0    0    0  0.00000000000E+00  0.00000000000E+00  0.45593999997E+02  0.45594000000E+02  0.51100000000E-03 0.  1.
         11   -1    0    0    0    0 -0.00000000000E+00 -0.00000000000E+00 -0.45593999997E+02  0.45594000000E+02  0.51100000000E-03 0. -1.
    9900012    2    1    2    0    0  0.77545554558E+01  0.16779634475E+02  0.29973057385E+01  0.72461732216E+02  0.70000210932E+02 0.  0.
         12    1    1    2    0    0 -0.77545554558E+01 -0.16779634475E+02 -0.29973057385E+01  0.18726267784E+02  0.00000000000E+00 0. -1.
         11    1    3    3    0    0 -0.16204474031E+01 -0.56997854399E+01  0.17599801396E+01  0.61814993489E+01  0.51100000000E-03 0. -1.
        -11    1    3    3    0    0 -0.12733296892E+02  0.33581271697E+02  0.13873393822E+02  0.38500775511E+02  0.51100000000E-03 0.  1.
         12    1    3    3    0    0  0.22108299751E+02 -0.11101851782E+02 -0.12636068223E+02  0.27779457356E+02  0.00000000000E+00 0. -1.
</event>
<event>
 7    1  0.3162486E-013  0.7246157E+02  0.7816164E-02  0.1226708E+00
        -11   -1    0    0    0    0  0.00000000000E+00  0.00000000000E+00  0.45593999997E+02  0.45594000000E+02  0.51100000000E-03 0. -1.
         11   -1    0    0    0    0 -0.00000000000E+00 -0.00000000000E+00 -0.45593999997E+02  0.45594000000E+02  0.51100000000E-03 0.  1.
    9900012    2    1    2    0    0  0.94078281995E+01  0.16157198742E+02  0.10568785156E+01  0.72461566949E+02  0.69999995642E+02 0.  0.
         12    1    1    2    0    0 -0.94078281995E+01 -0.16157198742E+02 -0.10568785156E+01  0.18726433051E+02  0.00000000000E+00 0. -1.
         11    1    3    3    0    0 -0.54906926880E+01 -0.17216415536E+02 -0.10512087389E+01  0.18101317913E+02  0.51100000000E-03 0. -1.
        -11    1    3    3    0    0 -0.11191895721E+02 -0.89649467527E+00  0.10362186379E+01  0.11275459274E+02  0.51100000000E-03 0.  1.
        -12    1    3    3    0    0  0.26090416608E+02  0.34270108953E+02  0.10718686166E+01  0.43084789762E+02  0.00000000000E+00 0.  1.
</event>
<event>
 7    1  0.3162486E-013  0.7246159E+02  0.7816164E-02  0.1226708E+00
        -11   -1    0    0    0    0  0.00000000000E+00  0.00000000000E+00  0.45593999997E+02  0.45594000000E+02  0.51100000000E-03 0. -1.
         11   -1    0    0    0    0 -0.00000000000E+00 -0.00000000000E+00 -0.45593999997E+02  0.45594000000E+02  0.51100000000E-03 0.  1.
    9900012    2    1    2    0    0  0.10171561346E+02  0.59179182256E+01 -0.14566947372E+02  0.72461591586E+02  0.70000027737E+02 0.  0.
         12    1    1    2    0    0 -0.10171561346E+02 -0.59179182256E+01  0.14566947372E+02  0.18726408414E+02  0.00000000000E+00 0. -1.
         11    1    3    3    0    0  0.22024058716E+01  0.31626491519E+01 -0.70894276199E+01  0.80692580526E+01  0.51100000000E-03 0. -1.
        -11    1    3    3    0    0 -0.22040884880E+02  0.13534887438E+02 -0.17192846211E+02  0.31057812952E+02  0.51100000000E-03 0.  1.
         12    1    3    3    0    0  0.30010040355E+02 -0.10779618365E+02  0.97153264596E+01  0.33334520582E+02  0.00000000000E+00 0. -1.
</event>
<event>
 7    1  0.3162486E-013  0.7246157E+02  0.7816164E-02  0.1226708E+00
        -11   -1    0    0    0    0  0.00000000000E+00  0.00000000000E+00  0.45593999997E+02  0.45594000000E+02  0.51100000000E-03 0. -1.
         11   -1    0    0    0    0 -0.00000000000E+00 -0.00000000000E+00 -0.45593999997E+02  0.45594000000E+02  0.51100000000E-03 0.  1.
    9900012    2    1    2    0    0 -0.54748940179E+01 -0.97617629465E+01 -0.15013751553E+02  0.72461569052E+02  0.69999998382E+02 0.  0.
         12    1    1    2    0    0  0.54748940179E+01  0.97617629465E+01  0.15013751553E+02  0.18726430948E+02  0.00000000000E+00 0. -1.
         11    1    3    3    0    0 -0.60048085697E+01 -0.18143215631E+02  0.37311365354E+01  0.19471912579E+02  0.51100000000E-03 0. -1.
        -11    1    3    3    0    0 -0.54527522883E+01 -0.12117040581E+02 -0.27002689988E+02  0.30094857481E+02  0.51100000000E-03 0.  1.
         12    1    3    3    0    0  0.59826668401E+01  0.20498493266E+02  0.82578018993E+01  0.22894798992E+02  0.00000000000E+00 0. -1.
</event>
<event>
 7    1  0.3162486E-013  0.7246160E+02  0.7816164E-02  0.1226708E+00
        -11   -1    0    0    0    0  0.00000000000E+00  0.00000000000E+00  0.45593999997E+02  0.45594000000E+02  0.51100000000E-03 0.  1.
         11   -1    0    0    0    0 -0.00000000000E+00 -0.00000000000E+00 -0.45593999997E+02  0.45594000000E+02  0.51100000000E-03 0. -1.
    9900012    2    1    2    0    0  0.14341357331E+02  0.10340850763E+02 -0.61701114954E+01  0.72461601509E+02  0.70000040662E+02 0.  0.
         12    1    1    2    0    0 -0.14341357331E+02 -0.10340850763E+02  0.61701114954E+01  0.18726398491E+02  0.00000000000E+00 0. -1.
         11    1    3    3    0    0 -0.97691897078E+01  0.14860975732E+02 -0.19685496153E+02  0.26529312586E+02  0.51100000000E-03 0. -1.
        -11    1    3    3    0    0  0.19556419935E+02  0.90383263737E+01 -0.54073171010E+01  0.22212248486E+02  0.51100000000E-03 0.  1.
        -12    1    3    3    0    0  0.45541271038E+01 -0.13558451343E+02  0.18922701758E+02  0.23720040437E+02  0.00000000000E+00 0.  1.
</event>
<event>
 7    1  0.3535548E-013  0.7246159E+02  0.7816164E-02  0.1226708E+00
        -11   -1    0    0    0    0  0.00000000000E+00  0.00000000000E+00  0.45593999997E+02  0.45594000000E+02  0.51100000000E-03 0. -1.
         11   -1    0    0    0    0 -0.00000000000E+00 -0.00000000000E+00 -0.45593999997E+02  0.45594000000E+02  0.51100000000E-03 0.  1.
    9900012    2    1    2    0    0 -0.10129048955E+02  0.23051357420E+01 -0.15580987101E+02  0.72461589704E+02  0.70000025284E+02 0.  0.
         12    1    1    2    0    0  0.10129048955E+02 -0.23051357420E+01  0.15580987101E+02  0.18726410296E+02  0.00000000000E+00 0. -1.
         11    1    3    3    0    0 -0.14904296691E+02  0.17684487411E+02  0.16779193269E+02  0.28573072670E+02  0.51100000000E-03 0. -1.
        -11    1    3    3    0    0  0.58003954584E+01 -0.15697456208E+02 -0.64167218009E+01  0.17922863549E+02  0.51100000000E-03 0.  1.
        -12    1    3    3    0    0 -0.10251477231E+01  0.31810453898E+00 -0.25943458569E+02  0.25965653485E+02  0.00000000000E+00 0.  1.
</event>
<event>
 7    1  0.3162486E-013  0.7246159E+02  0.7816164E-02  0.1226708E+00
        -11   -1    0    0    0    0  0.00000000000E+00  0.00000000000E+00  0.45593999997E+02  0.45594000000E+02  0.51100000000E-03 0.  1.
         11   -1    0    0    0    0 -0.00000000000E+00 -0.00000000000E+00 -0.45593999997E+02  0.45594000000E+02  0.51100000000E-03 0. -1.
    9900012    2    1    2    0    0 -0.68056599512E+01  0.15325116879E+02  0.83368026529E+01  0.72461588353E+02  0.70000023524E+02 0.  0.
         12    1    1    2    0    0  0.68056599512E+01 -0.15325116879E+02 -0.83368026529E+01  0.18726411647E+02  0.00000000000E+00 0. -1.
         11    1    3    3    0    0  0.26670115265E+02 -0.47219283773E+01 -0.48021534084E+01  0.27507314182E+02  0.51100000000E-03 0.  1.
        -11    1    3    3    0    0  0.78372530583E+00  0.33105022603E+01 -0.19809839613E+01  0.39367433606E+01  0.51100000000E-03 0. -1.
        -12    1    3    3    0    0 -0.34259500522E+02  0.16736542996E+02  0.15119940023E+02  0.41017530810E+02  0.00000000000E+00 0.  1.
</event>
<event>
 7    1  0.3162486E-013  0.7246149E+02  0.7816164E-02  0.1226708E+00
        -11   -1    0    0    0    0  0.00000000000E+00  0.00000000000E+00  0.45593999997E+02  0.45594000000E+02  0.51100000000E-03 0.  1.
         11   -1    0    0    0    0 -0.00000000000E+00 -0.00000000000E+00 -0.45593999997E+02  0.45594000000E+02  0.51100000000E-03 0. -1.
    9900012    2    1    2    0    0 -0.14293562285E+02 -0.11927608846E+02 -0.20269364124E+01  0.72461488131E+02  0.69999892966E+02 0.  0.
         12    1    1    2    0    0  0.14293562285E+02  0.11927608846E+02  0.20269364124E+01  0.18726511869E+02  0.00000000000E+00 0. -1.
         11    1    3    3    0    0 -0.20997837888E+02 -0.16958266700E+02 -0.26580081727E+01  0.27121154348E+02  0.51100000000E-03 0. -1.
        -11    1    3    3    0    0  0.17339885418E+01  0.12453673365E+02 -0.19564814634E+02  0.23256884324E+02  0.51100000000E-03 0.  1.
        -12    1    3    3    0    0  0.49702870619E+01 -0.74230155113E+01  0.20195886394E+02  0.22083449459E+02  0.00000000000E+00 0.  1.
</event>
<event>
 7    1  0.3162486E-013  0.7246157E+02  0.7816164E-02  0.1226708E+00
        -11   -1    0    0    0    0  0.00000000000E+00  0.00000000000E+00  0.45593999997E+02  0.45594000000E+02  0.51100000000E-03 0.  1.
         11   -1    0    0    0    0 -0.00000000000E+00 -0.00000000000E+00 -0.45593999997E+02  0.45594000000E+02  0.51100000000E-03 0. -1.
    9900012    2    1    2    0    0  0.13581686825E+02  0.94666076759E+01  0.87521586273E+01  0.72461570587E+02  0.70000000382E+02 0.  0.
         12    1    1    2    0    0 -0.13581686825E+02 -0.94666076759E+01 -0.87521586273E+01  0.18726429413E+02  0.00000000000E+00 0. -1.
         11    1    3    3    0    0 -0.17098324295E+02  0.88018556623E+01  0.19295156084E+02  0.27242033796E+02  0.51100000000E-03 0. -1.
        -11    1    3    3    0    0  0.21664717539E+02  0.75775784902E+01  0.72845020727E+01  0.24079942951E+02  0.51100000000E-03 0.  1.
         12    1    3    3    0    0  0.90152935809E+01 -0.69128264766E+01 -0.17827499529E+02  0.21139593840E+02  0.00000000000E+00 0. -1.
</event>
<event>
 7    1  0.3162486E-013  0.7246155E+02  0.7816164E-02  0.1226708E+00
        -11   -1    0    0    0    0  0.00000000000E+00  0.00000000000E+00  0.45593999997E+02  0.45594000000E+02  0.51100000000E-03 0.  1.
         11   -1    0    0    0    0 -0.00000000000E+00 -0.00000000000E+00 -0.45593999997E+02  0.45594000000E+02  0.51100000000E-03 0. -1.
    9900012    2    1    2    0    0 -0.97085553637E+01 -0.14000039073E+01  0.15951927433E+02  0.72461546865E+02  0.69999969479E+02 0.  0.
         12    1    1    2    0    0  0.97085553637E+01  0.14000039073E+01 -0.15951927433E+02  0.18726453135E+02  0.00000000000E+00 0. -1.
         11    1    3    3    0    0 -0.63463352736E+01 -0.20469705663E+01  0.81903817641E+01  0.10561648243E+02  0.51100000000E-03 0. -1.
        -11    1    3    3    0    0  0.23970522814E+02 -0.13078062293E+02  0.13998607607E+02  0.30685219447E+02  0.51100000000E-03 0.  1.
         12    1    3    3    0    0 -0.27332742904E+02  0.13725028952E+02 -0.62370619387E+01  0.31214679175E+02  0.00000000000E+00 0. -1.
</event>
<event>
 7    1  0.3162486E-013  0.7246160E+02  0.7816164E-02  0.1226708E+00
        -11   -1    0    0    0    0  0.00000000000E+00  0.00000000000E+00  0.45593999997E+02  0.45594000000E+02  0.51100000000E-03 0.  1.
         11   -1    0    0    0    0 -0.00000000000E+00 -0.00000000000E+00 -0.45593999997E+02  0.45594000000E+02  0.51100000000E-03 0. -1.
    9900012    2    1    2    0    0 -0.85299270686E-01  0.20027248826E+01  0.18618805147E+02  0.72461599171E+02  0.70000037617E+02 0.  0.
         12    1    1    2    0    0  0.85299270686E-01 -0.20027248826E+01 -0.18618805147E+02  0.18726400829E+02  0.00000000000E+00 0. -1.
         11    1    3    3    0    0 -0.98542816267E+01  0.12746129615E+02 -0.24631347649E+01  0.16298396230E+02  0.51100000000E-03 0. -1.
        -11    1    3    3    0    0 -0.20559405953E+02 -0.54343315948E+01  0.84226413964E+01  0.22872735328E+02  0.51100000000E-03 0.  1.
        -12    1    3    3    0    0  0.30328388309E+02 -0.53090731374E+01  0.12659298515E+02  0.33290467613E+02  0.00000000000E+00 0.  1.
</event>
<event>
 7    1  0.3162486E-013  0.7246157E+02  0.7816164E-02  0.1226708E+00
        -11   -1    0    0    0    0  0.00000000000E+00  0.00000000000E+00  0.45593999997E+02  0.45594000000E+02  0.51100000000E-03 0.  1.
         11   -1    0    0    0    0 -0.00000000000E+00 -0.00000000000E+00 -0.45593999997E+02  0.45594000000E+02  0.51100000000E-03 0. -1.
    9900012    2    1    2    0    0 -0.54839736654E+01  0.15705165946E+02  0.85995837381E+01  0.72461573618E+02  0.70000004330E+02 0.  0.
         12    1    1    2    0    0  0.54839736654E+01 -0.15705165946E+02 -0.85995837381E+01  0.18726426382E+02  0.00000000000E+00 0. -1.
         11    1    3    3    0    0 -0.31091031332E+01 -0.21263968403E+02  0.15690983407E+02  0.26608830021E+02  0.51100000000E-03 0. -1.
        -11    1    3    3    0    0 -0.18107798902E+00  0.46431023814E+01 -0.12197395425E+02  0.13052495714E+02  0.51100000000E-03 0.  1.
        -12    1    3    3    0    0 -0.21937925432E+01  0.32326031968E+02  0.51059957562E+01  0.32800247883E+02  0.00000000000E+00 0.  1.
</event>
<event>
 7    1  0.3162486E-013  0.7246156E+02  0.7816164E-02  0.1226708E+00
        -11   -1    0    0    0    0  0.00000000000E+00  0.00000000000E+00  0.45593999997E+02  0.45594000000E+02  0.51100000000E-03 0.  1.
         11   -1    0    0    0    0 -0.00000000000E+00 -0.00000000000E+00 -0.45593999997E+02  0.45594000000E+02  0.51100000000E-03 0. -1.
    9900012    2    1    2    0    0  0.10430882053E+02  0.14187686927E+00  0.15551725791E+02  0.72461558679E+02  0.69999984869E+02 0.  0.
         12    1    1    2    0    0 -0.10430882053E+02 -0.14187686927E+00 -0.15551725791E+02  0.18726441321E+02  0.00000000000E+00 0. -1.
         11    1    3    3    0    0 -0.27177998330E+01 -0.12527392059E+02 -0.92704694934E+01  0.15819721635E+02  0.51100000000E-03 0. -1.
        -11    1    3    3    0    0  0.70460073931E+00 -0.16875756078E+02  0.16292627561E+02  0.23467793218E+02  0.51100000000E-03 0.  1.
         12    1    3    3    0    0  0.12444081147E+02  0.29545025006E+02  0.85295677230E+01  0.33174043826E+02  0.00000000000E+00 0. -1.
</event>
<event>
 7    1  0.3162486E-013  0.7246161E+02  0.7816164E-02  0.1226708E+00
        -11   -1    0    0    0    0  0.00000000000E+00  0.00000000000E+00  0.45593999997E+02  0.45594000000E+02  0.51100000000E-03 0.  1.
         11   -1    0    0    0    0 -0.00000000000E+00 -0.00000000000E+00 -0.45593999997E+02  0.45594000000E+02  0.51100000000E-03 0. -1.
    9900012    2    1    2    0    0 -0.17326947411E+02  0.14709786770E+01  0.69491619857E+01  0.72461608539E+02  0.70000049821E+02 0.  0.
         12    1    1    2    0    0  0.17326947411E+02 -0.14709786770E+01 -0.69491619857E+01  0.18726391461E+02  0.00000000000E+00 0. -1.
         11    1    3    3    0    0 -0.10748316940E+02  0.16974931171E+02 -0.66339200246E+01  0.21158532568E+02  0.51100000000E-03 0. -1.
        -11    1    3    3    0    0 -0.11534238553E+02  0.10470140824E+02  0.18732981590E+02  0.24363643147E+02  0.51100000000E-03 0.  1.
         12    1    3    3    0    0  0.49556080823E+01 -0.25974093318E+02 -0.51498995799E+01  0.26939432823E+02  0.00000000000E+00 0. -1.
</event>
<event>
 7    1  0.3162486E-013  0.7246153E+02  0.7816164E-02  0.1226708E+00
        -11   -1    0    0    0    0  0.00000000000E+00  0.00000000000E+00  0.45593999997E+02  0.45594000000E+02  0.51100000000E-03 0.  1.
         11   -1    0    0    0    0 -0.00000000000E+00 -0.00000000000E+00 -0.45593999997E+02  0.45594000000E+02  0.51100000000E-03 0. -1.
    9900012    2    1    2    0    0 -0.60045265866E+00  0.12654442739E+02  0.13790768855E+02  0.72461527560E+02  0.69999944330E+02 0.  0.
         12    1    1    2    0    0  0.60045265866E+00 -0.12654442739E+02 -0.13790768855E+02  0.18726472440E+02  0.00000000000E+00 0. -1.
         11    1    3    3    0    0 -0.40239606893E+01  0.15457950365E+02  0.13610853685E+02  0.20985610008E+02  0.51100000000E-03 0. -1.
        -11    1    3    3    0    0  0.14729831388E+00  0.12832420373E+02  0.21376761071E+02  0.24933082914E+02  0.51100000000E-03 0.  1.
         12    1    3    3    0    0  0.32762097167E+01 -0.15635927999E+02 -0.21196845901E+02  0.26542834638E+02  0.00000000000E+00 0. -1.
</event>
<event>
 7    1  0.3162486E-013  0.7246161E+02  0.7816164E-02  0.1226708E+00
        -11   -1    0    0    0    0  0.00000000000E+00  0.00000000000E+00  0.45593999997E+02  0.45594000000E+02  0.51100000000E-03 0. -1.
         11   -1    0    0    0    0 -0.00000000000E+00 -0.00000000000E+00 -0.45593999997E+02  0.45594000000E+02  0.51100000000E-03 0.  1.
    9900012    2    1    2    0    0  0.14280080844E+02 -0.11238591533E+02 -0.45222718796E+01  0.72461612427E+02  0.70000054886E+02 0.  0.
         12    1    1    2    0    0 -0.14280080844E+02  0.11238591533E+02  0.45222718796E+01  0.18726387573E+02  0.00000000000E+00 0. -1.
         11    1    3    3    0    0  0.21171450292E+02 -0.19564654026E+02  0.25198775659E+02  0.38288174278E+02  0.51100000000E-03 0. -1.
        -11    1    3    3    0    0  0.50089154896E+00  0.73613614557E+01 -0.66680961049E+01  0.99450510682E+01  0.51100000000E-03 0.  1.
        -12    1    3    3    0    0 -0.73922609969E+01  0.96470103674E+00 -0.23052951433E+02  0.24228387081E+02  0.00000000000E+00 0.  1.
</event>
<event>
 7    1  0.3162486E-013  0.7246155E+02  0.7816164E-02  0.1226708E+00
        -11   -1    0    0    0    0  0.00000000000E+00  0.00000000000E+00  0.45593999997E+02  0.45594000000E+02  0.51100000000E-03 0.  1.
         11   -1    0    0    0    0 -0.00000000000E+00 -0.00000000000E+00 -0.45593999997E+02  0.45594000000E+02  0.51100000000E-03 0. -1.
    9900012    2    1    2    0    0 -0.80958895837E+01  0.12846697998E+02  0.10958969568E+02  0.72461545675E+02  0.69999967928E+02 0.  0.
         12    1    1    2    0    0  0.80958895837E+01 -0.12846697998E+02 -0.10958969568E+02  0.18726454325E+02  0.00000000000E+00 0. -1.
         11    1    3    3    0    0  0.45435428096E+01  0.10069884114E+01  0.26040163703E+02  0.26452749061E+02  0.51100000000E-03 0. -1.
        -11    1    3    3    0    0 -0.35655619614E+01  0.20497074669E+02  0.58466963051E+01  0.21610811184E+02  0.51100000000E-03 0.  1.
         12    1    3    3    0    0 -0.90738704318E+01 -0.86573650824E+01 -0.20927890440E+02  0.24397985430E+02  0.00000000000E+00 0. -1.
</event>
<event>
 7    1  0.3162486E-013  0.7246161E+02  0.7816164E-02  0.1226708E+00
        -11   -1    0    0    0    0  0.00000000000E+00  0.00000000000E+00  0.45593999997E+02  0.45594000000E+02  0.51100000000E-03 0.  1.
         11   -1    0    0    0    0 -0.00000000000E+00 -0.00000000000E+00 -0.45593999997E+02  0.45594000000E+02  0.51100000000E-03 0. -1.
    9900012    2    1    2    0    0  0.13631960887E+02  0.91834618005E+01  0.89728171420E+01  0.72461607509E+02  0.70000048479E+02 0.  0.
         12    1    1    2    0    0 -0.13631960887E+02 -0.91834618005E+01 -0.89728171420E+01  0.18726392491E+02  0.00000000000E+00 0. -1.
         11    1    3    3    0    0  0.66826910082E+01  0.29881792251E+02  0.21977266314E+02  0.37690583733E+02  0.51100000000E-03 0. -1.
        -11    1    3    3    0    0  0.10077718956E+01 -0.93465234791E+01  0.65039568785E+01  0.11431297419E+02  0.51100000000E-03 0.  1.
        -12    1    3    3    0    0  0.59414979831E+01 -0.11351806971E+02 -0.19508406050E+02  0.23339726357E+02  0.00000000000E+00 0.  1.
</event>
<event>
 7    1  0.3162486E-013  0.7246156E+02  0.7816164E-02  0.1226708E+00
        -11   -1    0    0    0    0  0.00000000000E+00  0.00000000000E+00  0.45593999997E+02  0.45594000000E+02  0.51100000000E-03 0. -1.
         11   -1    0    0    0    0 -0.00000000000E+00 -0.00000000000E+00 -0.45593999997E+02  0.45594000000E+02  0.51100000000E-03 0.  1.
    9900012    2    1    2    0    0 -0.17685429218E+02  0.50118838701E+01  0.35757874248E+01  0.72461557672E+02  0.69999983557E+02 0.  0.
         12    1    1    2    0    0  0.17685429218E+02 -0.50118838701E+01 -0.35757874248E+01  0.18726442328E+02  0.00000000000E+00 0. -1.
         11    1    3    3    0    0  0.15587004186E+01  0.11498164175E+01 -0.47373819362E+01  0.51180477391E+01  0.51100000000E-03 0. -1.
        -11    1    3    3    0    0 -0.61744113670E+01  0.32989237612E+02 -0.24539314882E+01  0.33651670597E+02  0.51100000000E-03 0.  1.
         12    1    3    3    0    0 -0.13069718270E+02 -0.29127170159E+02  0.10767100849E+02  0.33691839336E+02  0.00000000000E+00 0. -1.
</event>
<event>
 7    1  0.3162486E-013  0.7246147E+02  0.7816164E-02  0.1226708E+00
        -11   -1    0    0    0    0  0.00000000000E+00  0.00000000000E+00  0.45593999997E+02  0.45594000000E+02  0.51100000000E-03 0. -1.
         11   -1    0    0    0    0 -0.00000000000E+00 -0.00000000000E+00 -0.45593999997E+02  0.45594000000E+02  0.51100000000E-03 0.  1.
    9900012    2    1    2    0    0  0.34002668916E+01  0.84715076409E+01 -0.16350986677E+02  0.72461467433E+02  0.69999866005E+02 0.  0.
         12    1    1    2    0    0 -0.34002668916E+01 -0.84715076409E+01  0.16350986677E+02  0.18726532567E+02  0.00000000000E+00 0. -1.
         11    1    3    3    0    0  0.18893696130E+01 -0.83265368110E+01 -0.30083754524E+02  0.31271923819E+02  0.51100000000E-03 0. -1.
        -11    1    3    3    0    0  0.28628142714E+01  0.13578800805E+02 -0.10061168247E+02  0.17140788885E+02  0.51100000000E-03 0.  1.
         12    1    3    3    0    0 -0.13519169929E+01  0.32192436467E+01  0.23793936094E+02  0.24048754729E+02  0.00000000000E+00 0. -1.
</event>
<event>
 7    1  0.3162486E-013  0.7246156E+02  0.7816164E-02  0.1226708E+00
        -11   -1    0    0    0    0  0.00000000000E+00  0.00000000000E+00  0.45593999997E+02  0.45594000000E+02  0.51100000000E-03 0.  1.
         11   -1    0    0    0    0 -0.00000000000E+00 -0.00000000000E+00 -0.45593999997E+02  0.45594000000E+02  0.51100000000E-03 0. -1.
    9900012    2    1    2    0    0  0.11728406817E+01 -0.18229936418E+02  0.41198865247E+01  0.72461558746E+02  0.69999984956E+02 0.  0.
         12    1    1    2    0    0 -0.11728406817E+01  0.18229936418E+02 -0.41198865247E+01  0.18726441254E+02  0.00000000000E+00 0. -1.
         11    1    3    3    0    0 -0.58669734571E+01 -0.23643901042E+01 -0.96658252610E+01  0.11551618776E+02  0.51100000000E-03 0. -1.
        -11    1    3    3    0    0 -0.21627318398E+02 -0.15352256106E+02 -0.45031056503E+01  0.26901870370E+02  0.51100000000E-03 0.  1.
         12    1    3    3    0    0  0.28667132537E+02 -0.51329020744E+00  0.18288817436E+02  0.34008069600E+02  0.00000000000E+00 0. -1.
</event>
<event>
 7    1  0.3162486E-013  0.7246155E+02  0.7816164E-02  0.1226708E+00
        -11   -1    0    0    0    0  0.00000000000E+00  0.00000000000E+00  0.45593999997E+02  0.45594000000E+02  0.51100000000E-03 0.  1.
         11   -1    0    0    0    0 -0.00000000000E+00 -0.00000000000E+00 -0.45593999997E+02  0.45594000000E+02  0.51100000000E-03 0. -1.
    9900012    2    1    2    0    0 -0.73030039077E+01 -0.33081101431E+01  0.16923428491E+02  0.72461551039E+02  0.69999974917E+02 0.  0.
         12    1    1    2    0    0  0.73030039077E+01  0.33081101431E+01 -0.16923428491E+02  0.18726448961E+02  0.00000000000E+00 0. -1.
         11    1    3    3    0    0 -0.36693992883E+01 -0.43229730403E+01 -0.13749443765E+02  0.14872786933E+02  0.51100000000E-03 0. -1.
        -11    1    3    3    0    0  0.12306956195E+02  0.10536609514E+02 -0.53502588303E+01  0.17061845757E+02  0.51100000000E-03 0.  1.
        -12    1    3    3    0    0 -0.15940560814E+02 -0.95217466165E+01  0.36023131086E+02  0.40526918350E+02  0.00000000000E+00 0.  1.
</event>
<event>
 7    1  0.3162486E-013  0.7246154E+02  0.7816164E-02  0.1226708E+00
        -11   -1    0    0    0    0  0.00000000000E+00  0.00000000000E+00  0.45593999997E+02  0.45594000000E+02  0.51100000000E-03 0. -1.
         11   -1    0    0    0    0 -0.00000000000E+00 -0.00000000000E+00 -0.45593999997E+02  0.45594000000E+02  0.51100000000E-03 0.  1.
    9900012    2    1    2    0    0  0.14793227891E+02  0.77169586737E+01 -0.85023054789E+01  0.72461541684E+02  0.69999962730E+02 0.  0.
         12    1    1    2    0    0 -0.14793227891E+02 -0.77169586737E+01  0.85023054789E+01  0.18726458316E+02  0.00000000000E+00 0. -1.
         11    1    3    3    0    0  0.16547121371E+02  0.39886532759E+01 -0.16571073360E+02  0.23755358410E+02  0.51100000000E-03 0. -1.
        -11    1    3    3    0    0  0.15151691704E+02  0.19394802343E+02  0.71919576624E+01  0.25640912127E+02  0.51100000000E-03 0.  1.
         12    1    3    3    0    0 -0.16905585184E+02 -0.15666496945E+02  0.87681021909E+00  0.23065271147E+02  0.00000000000E+00 0. -1.
</event>
<event>
 7    1  0.3162486E-013  0.7246157E+02  0.7816164E-02  0.1226708E+00
        -11   -1    0    0    0    0  0.00000000000E+00  0.00000000000E+00  0.45593999997E+02  0.45594000000E+02  0.51100000000E-03 0.  1.
         11   -1    0    0    0    0 -0.00000000000E+00 -0.00000000000E+00 -0.45593999997E+02  0.45594000000E+02  0.51100000000E-03 0. -1.
    9900012    2    1    2    0    0 -0.78541071245E+01  0.32442856986E+01  0.16687321584E+02  0.72461572416E+02  0.70000002763E+02 0.  0.
         12    1    1    2    0    0  0.78541071245E+01 -0.32442856986E+01 -0.16687321584E+02  0.18726427584E+02  0.00000000000E+00 0. -1.
         11    1    3    3    0    0  0.22967121584E+02 -0.15960068300E+01  0.14141027083E+02  0.27018596538E+02  0.51100000000E-03 0. -1.
        -11    1    3    3    0    0 -0.44668947381E+01  0.34652484046E+01 -0.13445415439E+02  0.14585619345E+02  0.51100000000E-03 0.  1.
        -12    1    3    3    0    0 -0.26354333970E+02  0.13750441240E+01  0.15991709940E+02  0.30857356532E+02  0.00000000000E+00 0.  1.
</event>
<event>
 7    1  0.3162486E-013  0.7246152E+02  0.7816164E-02  0.1226708E+00
        -11   -1    0    0    0    0  0.00000000000E+00  0.00000000000E+00  0.45593999997E+02  0.45594000000E+02  0.51100000000E-03 0.  1.
         11   -1    0    0    0    0 -0.00000000000E+00 -0.00000000000E+00 -0.45593999997E+02  0.45594000000E+02  0.51100000000E-03 0. -1.
    9900012    2    1    2    0    0  0.88404372770E+01  0.92306771344E+01  0.13686570034E+02  0.72461523265E+02  0.69999938735E+02 0.  0.
         12    1    1    2    0    0 -0.88404372770E+01 -0.92306771344E+01 -0.13686570034E+02  0.18726476735E+02  0.00000000000E+00 0. -1.
         11    1    3    3    0    0  0.18293210305E+01  0.22955400609E+02 -0.18125169321E+01  0.23099395023E+02  0.51100000000E-03 0. -1.
        -11    1    3    3    0    0  0.65295090495E+01  0.14754739433E+02  0.13089758300E+02  0.20776876492E+02  0.51100000000E-03 0.  1.
        -12    1    3    3    0    0  0.48160719693E+00 -0.28479462907E+02  0.24093286667E+01  0.28585251750E+02  0.00000000000E+00 0.  1.
</event>
<event>
 7    1  0.3162486E-013  0.7246157E+02  0.7816164E-02  0.1226708E+00
        -11   -1    0    0    0    0  0.00000000000E+00  0.00000000000E+00  0.45593999997E+02  0.45594000000E+02  0.51100000000E-03 0.  1.
         11   -1    0    0    0    0 -0.00000000000E+00 -0.00000000000E+00 -0.45593999997E+02  0.45594000000E+02  0.51100000000E-03 0. -1.
    9900012    2    1    2    0    0  0.90197295476E+01 -0.10161466297E+02  0.12886744319E+02  0.72461572216E+02  0.70000002503E+02 0.  0.
         12    1    1    2    0    0 -0.90197295476E+01  0.10161466297E+02 -0.12886744319E+02  0.18726427784E+02  0.00000000000E+00 0. -1.
         11    1    3    3    0    0  0.89062029806E+01 -0.13340575299E+02 -0.88842823268E+01  0.18336353879E+02  0.51100000000E-03 0. -1.
        -11    1    3    3    0    0  0.12192297887E+02  0.19394010038E+02  0.24708045782E+02  0.33693727602E+02  0.51100000000E-03 0.  1.
         12    1    3    3    0    0 -0.12078771320E+02 -0.16214901037E+02 -0.29370191364E+01  0.20431490735E+02  0.00000000000E+00 0. -1.
</event>
<event>
 7    1  0.3162486E-013  0.7246159E+02  0.7816164E-02  0.1226708E+00
        -11   -1    0    0    0    0  0.00000000000E+00  0.00000000000E+00  0.45593999997E+02  0.45594000000E+02  0.51100000000E-03 0. -1.
         11   -1    0    0    0    0 -0.00000000000E+00 -0.00000000000E+00 -0.45593999997E+02  0.45594000000E+02  0.51100000000E-03 0.  1.
    9900012    2    1    2    0    0  0.88489050112E+01  0.92524871698E+01 -0.13666269710E+02  0.72461586395E+02  0.70000020974E+02 0.  0.
         12    1    1    2    0    0 -0.88489050112E+01 -0.92524871698E+01  0.13666269710E+02  0.18726413605E+02  0.00000000000E+00 0. -1.
         11    1    3    3    0    0  0.14498133582E+01  0.82391397021E+01 -0.47782875374E+01  0.96341794594E+01  0.51100000000E-03 0. -1.
        -11    1    3    3    0    0  0.20270305351E+02  0.17522379718E+02  0.15287295200E+02  0.30848346225E+02  0.51100000000E-03 0.  1.
         12    1    3    3    0    0 -0.12871213698E+02 -0.16509032250E+02 -0.24175277373E+02  0.31979060711E+02  0.00000000000E+00 0. -1.
</event>
<event>
 7    1  0.3162486E-013  0.7246156E+02  0.7816164E-02  0.1226708E+00
        -11   -1    0    0    0    0  0.00000000000E+00  0.00000000000E+00  0.45593999997E+02  0.45594000000E+02  0.51100000000E-03 0.  1.
         11   -1    0    0    0    0 -0.00000000000E+00 -0.00000000000E+00 -0.45593999997E+02  0.45594000000E+02  0.51100000000E-03 0. -1.
    9900012    2    1    2    0    0  0.42880194007E+01  0.15821202644E+02  0.90543974366E+01  0.72461556760E+02  0.69999982369E+02 0.  0.
         12    1    1    2    0    0 -0.42880194007E+01 -0.15821202644E+02 -0.90543974366E+01  0.18726443240E+02  0.00000000000E+00 0. -1.
         11    1    3    3    0    0  0.13735009748E+01 -0.20051735921E+02 -0.74373450799E+01  0.21430649092E+02  0.51100000000E-03 0. -1.
        -11    1    3    3    0    0  0.35994075272E+00 -0.42530547280E+01 -0.40467638906E+01  0.58816944933E+01  0.51100000000E-03 0.  1.
        -12    1    3    3    0    0  0.25545776731E+01  0.40125993294E+02  0.20538506407E+02  0.45149213175E+02  0.00000000000E+00 0.  1.
</event>
<event>
 7    1  0.3162486E-013  0.7246189E+02  0.7816164E-02  0.1226707E+00
        -11   -1    0    0    0    0  0.00000000000E+00  0.00000000000E+00  0.45593999997E+02  0.45594000000E+02  0.51100000000E-03 0. -1.
         11   -1    0    0    0    0 -0.00000000000E+00 -0.00000000000E+00 -0.45593999997E+02  0.45594000000E+02  0.51100000000E-03 0.  1.
    9900012    2    1    2    0    0  0.17346605518E+02 -0.61067685645E+01 -0.35312638814E+01  0.72461890690E+02  0.70000417373E+02 0.  0.
         12    1    1    2    0    0 -0.17346605518E+02  0.61067685645E+01  0.35312638814E+01  0.18726109310E+02  0.00000000000E+00 0. -1.
         11    1    3    3    0    0 -0.29839571819E+00 -0.14093495677E+02 -0.13733107385E+02  0.19680292150E+02  0.51100000000E-03 0. -1.
        -11    1    3    3    0    0  0.29332954304E+02 -0.73119344494E+01 -0.14719778460E+01  0.30266372638E+02  0.51100000000E-03 0.  1.
         12    1    3    3    0    0 -0.11687953068E+02  0.15298661562E+02  0.11673821349E+02  0.22515225902E+02  0.00000000000E+00 0. -1.
</event>
<event>
 7    1  0.3162486E-013  0.7246151E+02  0.7816164E-02  0.1226708E+00
        -11   -1    0    0    0    0  0.00000000000E+00  0.00000000000E+00  0.45593999997E+02  0.45594000000E+02  0.51100000000E-03 0.  1.
         11   -1    0    0    0    0 -0.00000000000E+00 -0.00000000000E+00 -0.45593999997E+02  0.45594000000E+02  0.51100000000E-03 0. -1.
    9900012    2    1    2    0    0  0.55075428914E+01 -0.12425083537E+02  0.12882762250E+02  0.72461513602E+02  0.69999926148E+02 0.  0.
         12    1    1    2    0    0 -0.55075428914E+01  0.12425083537E+02 -0.12882762250E+02  0.18726486398E+02  0.00000000000E+00 0. -1.
         11    1    3    3    0    0  0.15333666624E+02  0.82123377159E+01 -0.12558318054E+02  0.21454024693E+02  0.51100000000E-03 0. -1.
        -11    1    3    3    0    0  0.74788267394E+01 -0.19482351692E+02  0.26382810477E+02  0.33638483404E+02  0.51100000000E-03 0.  1.
         12    1    3    3    0    0 -0.17304950472E+02 -0.11550695611E+01 -0.94173017218E+00  0.17369005506E+02  0.00000000000E+00 0. -1.
</event>
<event>
 7    1  0.3162486E-013  0.7246157E+02  0.7816164E-02  0.1226708E+00
        -11   -1    0    0    0    0  0.00000000000E+00  0.00000000000E+00  0.45593999997E+02  0.45594000000E+02  0.51100000000E-03 0. -1.
         11   -1    0    0    0    0 -0.00000000000E+00 -0.00000000000E+00 -0.45593999997E+02  0.45594000000E+02  0.51100000000E-03 0.  1.
    9900012    2    1    2    0    0 -0.14213651238E+01 -0.18665471126E+02  0.50903685881E+00  0.72461569222E+02  0.69999998603E+02 0.  0.
         12    1    1    2    0    0  0.14213651238E+01  0.18665471126E+02 -0.50903685881E+00  0.18726430778E+02  0.00000000000E+00 0. -1.
         11    1    3    3    0    0 -0.18619527978E+02 -0.19062486989E+02  0.19133644769E+02  0.32804901992E+02  0.51100000000E-03 0. -1.
        -11    1    3    3    0    0 -0.35275873396E+01 -0.10546426196E+02 -0.90542561063E+01  0.14340520627E+02  0.51100000000E-03 0.  1.
        -12    1    3    3    0    0  0.20725750193E+02  0.10943442060E+02 -0.95703518034E+01  0.25316146603E+02  0.00000000000E+00 0.  1.
</event>
<event>
 7    1  0.3162486E-013  0.7246158E+02  0.7816164E-02  0.1226708E+00
        -11   -1    0    0    0    0  0.00000000000E+00  0.00000000000E+00  0.45593999997E+02  0.45594000000E+02  0.51100000000E-03 0.  1.
         11   -1    0    0    0    0 -0.00000000000E+00 -0.00000000000E+00 -0.45593999997E+02  0.45594000000E+02  0.51100000000E-03 0. -1.
    9900012    2    1    2    0    0  0.86002992950E+01  0.15793372688E+02  0.52233311423E+01  0.72461575967E+02  0.70000007390E+02 0.  0.
         12    1    1    2    0    0 -0.86002992950E+01 -0.15793372688E+02 -0.52233311423E+01  0.18726424033E+02  0.00000000000E+00 0. -1.
         11    1    3    3    0    0 -0.10580855081E+02  0.13994987684E+02 -0.20127272940E+01  0.17659706848E+02  0.51100000000E-03 0. -1.
        -11    1    3    3    0    0  0.28392351666E+02  0.13281874187E+02  0.18381394043E+02  0.36337438852E+02  0.51100000000E-03 0.  1.
         12    1    3    3    0    0 -0.92111972907E+01 -0.11483489183E+02 -0.11145335607E+02  0.18464430268E+02  0.00000000000E+00 0. -1.
</event>
<event>
 7    1  0.3162486E-013  0.7246156E+02  0.7816164E-02  0.1226708E+00
        -11   -1    0    0    0    0  0.00000000000E+00  0.00000000000E+00  0.45593999997E+02  0.45594000000E+02  0.51100000000E-03 0. -1.
         11   -1    0    0    0    0 -0.00000000000E+00 -0.00000000000E+00 -0.45593999997E+02  0.45594000000E+02  0.51100000000E-03 0.  1.
    9900012    2    1    2    0    0  0.91159493666E+01 -0.12906524547E+02 -0.10049903332E+02  0.72461562386E+02  0.69999989698E+02 0.  0.
         12    1    1    2    0    0 -0.91159493666E+01  0.12906524547E+02  0.10049903332E+02  0.18726437614E+02  0.00000000000E+00 0. -1.
         11    1    3    3    0    0 -0.10835333408E+02  0.45170592377E+01 -0.28590085373E+02  0.30906330357E+02  0.51100000000E-03 0. -1.
        -11    1    3    3    0    0 -0.21304417856E+01  0.49605404706E+01  0.48649240820E+01  0.72672711899E+01  0.51100000000E-03 0.  1.
        -12    1    3    3    0    0  0.22081724560E+02 -0.22384124256E+02  0.13675257959E+02  0.34287960839E+02  0.00000000000E+00 0.  1.
</event>
<event>
 7    1  0.3162486E-013  0.7246119E+02  0.7816164E-02  0.1226709E+00
        -11   -1    0    0    0    0  0.00000000000E+00  0.00000000000E+00  0.45593999997E+02  0.45594000000E+02  0.51100000000E-03 0. -1.
         11   -1    0    0    0    0 -0.00000000000E+00 -0.00000000000E+00 -0.45593999997E+02  0.45594000000E+02  0.51100000000E-03 0.  1.
    9900012    2    1    2    0    0  0.17353354732E+02  0.55840293826E+01  0.42863719867E+01  0.72461193294E+02  0.69999508885E+02 0.  0.
         12    1    1    2    0    0 -0.17353354732E+02 -0.55840293826E+01 -0.42863719867E+01  0.18726806706E+02  0.00000000000E+00 0. -1.
         11    1    3    3    0    0  0.21471873712E+02  0.26006498919E+02  0.71956661571E+01  0.34484155180E+02  0.51100000000E-03 0. -1.
        -11    1    3    3    0    0 -0.74142995835E+00 -0.18152842512E+01  0.13071551494E+02  0.13217807459E+02  0.51100000000E-03 0.  1.
        -12    1    3    3    0    0 -0.33770890218E+01 -0.18607185286E+02 -0.15980845664E+02  0.24759230656E+02  0.00000000000E+00 0.  1.
</event>
<event>
 7    1  0.3162486E-013  0.7246158E+02  0.7816164E-02  0.1226708E+00
        -11   -1    0    0    0    0  0.00000000000E+00  0.00000000000E+00  0.45593999997E+02  0.45594000000E+02  0.51100000000E-03 0.  1.
         11   -1    0    0    0    0 -0.00000000000E+00 -0.00000000000E+00 -0.45593999997E+02  0.45594000000E+02  0.51100000000E-03 0. -1.
    9900012    2    1    2    0    0 -0.20882257666E+01  0.17592970691E+02  0.60667449792E+01  0.72461582852E+02  0.70000016358E+02 0.  0.
         12    1    1    2    0    0  0.20882257666E+01 -0.17592970691E+02 -0.60667449792E+01  0.18726417148E+02  0.00000000000E+00 0. -1.
         11    1    3    3    0    0 -0.32558841156E+02  0.89024021588E+01 -0.93349036119E+01  0.35021012654E+02  0.51100000000E-03 0. -1.
        -11    1    3    3    0    0 -0.60619582222E+00  0.21878290049E+01  0.32677262690E+00  0.22936542330E+01  0.51100000000E-03 0.  1.
        -12    1    3    3    0    0  0.31076811212E+02  0.65027395268E+01  0.15074875964E+02  0.35146915964E+02  0.00000000000E+00 0.  1.
</event>
<event>
 7    1  0.3162486E-013  0.7246159E+02  0.7816164E-02  0.1226708E+00
        -11   -1    0    0    0    0  0.00000000000E+00  0.00000000000E+00  0.45593999997E+02  0.45594000000E+02  0.51100000000E-03 0. -1.
         11   -1    0    0    0    0 -0.00000000000E+00 -0.00000000000E+00 -0.45593999997E+02  0.45594000000E+02  0.51100000000E-03 0.  1.
    9900012    2    1    2    0    0 -0.86340649623E+01  0.16147914952E+02 -0.39212332980E+01  0.72461593360E+02  0.70000030047E+02 0.  0.
         12    1    1    2    0    0  0.86340649623E+01 -0.16147914952E+02  0.39212332980E+01  0.18726406640E+02  0.00000000000E+00 0. -1.
         11    1    3    3    0    0  0.79317275219E+01  0.27549301820E+01  0.40667338022E+01  0.93295372805E+01  0.51100000000E-03 0. -1.
        -11    1    3    3    0    0  0.12244792190E+02 -0.16023581345E+02 -0.86701897855E+01  0.21951361828E+02  0.51100000000E-03 0.  1.
         12    1    3    3    0    0 -0.28810584674E+02  0.29416566115E+02  0.68222268530E+00  0.41180694252E+02  0.00000000000E+00 0. -1.
</event>
<event>
 7    1  0.3162486E-013  0.7246162E+02  0.7816164E-02  0.1226708E+00
        -11   -1    0    0    0    0  0.00000000000E+00  0.00000000000E+00  0.45593999997E+02  0.45594000000E+02  0.51100000000E-03 0.  1.
         11   -1    0    0    0    0 -0.00000000000E+00 -0.00000000000E+00 -0.45593999997E+02  0.45594000000E+02  0.51100000000E-03 0. -1.
    9900012    2    1    2    0    0  0.51520777061E+01 -0.31368581751E+01  0.17728327733E+02  0.72461617859E+02  0.70000061962E+02 0.  0.
         12    1    1    2    0    0 -0.51520777061E+01  0.31368581751E+01 -0.17728327733E+02  0.18726382141E+02  0.00000000000E+00 0. -1.
         11    1    3    3    0    0  0.36960611884E+01  0.25585310974E+02  0.18790624387E+02  0.31958669732E+02  0.51100000000E-03 0. -1.
        -11    1    3    3    0    0  0.54354271149E-01  0.44611902245E+01 -0.54036475351E+01  0.70074659864E+01  0.51100000000E-03 0.  1.
        -12    1    3    3    0    0  0.14016622465E+01 -0.33183359373E+02  0.43413508808E+01  0.33495482141E+02  0.00000000000E+00 0.  1.
</event>
<event>
 7    1  0.3162486E-013  0.7246156E+02  0.7816164E-02  0.1226708E+00
        -11   -1    0    0    0    0  0.00000000000E+00  0.00000000000E+00  0.45593999997E+02  0.45594000000E+02  0.51100000000E-03 0. -1.
         11   -1    0    0    0    0 -0.00000000000E+00 -0.00000000000E+00 -0.45593999997E+02  0.45594000000E+02  0.51100000000E-03 0.  1.
    9900012    2    1    2    0    0 -0.14157302538E+00 -0.11179533657E+02 -0.15022565793E+02  0.72461561505E+02  0.69999988551E+02 0.  0.
         12    1    1    2    0    0  0.14157302538E+00  0.11179533657E+02  0.15022565793E+02  0.18726438495E+02  0.00000000000E+00 0. -1.
         11    1    3    3    0    0  0.90836205824E-01 -0.26117978233E+01  0.21727553766E+02  0.21884157100E+02  0.51100000000E-03 0. -1.
        -11    1    3    3    0    0  0.29793767838E+01 -0.20558064512E+02 -0.15317322643E+02  0.25809515216E+02  0.51100000000E-03 0.  1.
         12    1    3    3    0    0 -0.32117860150E+01  0.11990328678E+02 -0.21432796916E+02  0.24767889189E+02  0.00000000000E+00 0. -1.
</event>
<event>
 7    1  0.3162486E-013  0.7246159E+02  0.7816164E-02  0.1226708E+00
        -11   -1    0    0    0    0  0.00000000000E+00  0.00000000000E+00  0.45593999997E+02  0.45594000000E+02  0.51100000000E-03 0. -1.
         11   -1    0    0    0    0 -0.00000000000E+00 -0.00000000000E+00 -0.45593999997E+02  0.45594000000E+02  0.51100000000E-03 0.  1.
    9900012    2    1    2    0    0 -0.75570839984E+01  0.11778484084E+02 -0.12443321520E+02  0.72461589337E+02  0.70000024806E+02 0.  0.
         12    1    1    2    0    0  0.75570839984E+01 -0.11778484084E+02  0.12443321520E+02  0.18726410663E+02  0.00000000000E+00 0. -1.
         11    1    3    3    0    0 -0.73896023794E+01 -0.22053979446E+01 -0.27544370140E+02  0.28603537020E+02  0.51100000000E-03 0. -1.
        -11    1    3    3    0    0  0.52038210918E+00  0.27431790924E+02  0.77192929434E+01  0.28501954927E+02  0.51100000000E-03 0.  1.
         12    1    3    3    0    0 -0.68786372814E+00 -0.13447908895E+02  0.73817556763E+01  0.15356097389E+02  0.00000000000E+00 0. -1.
</event>
<event>
 7    1  0.3162486E-013  0.7246156E+02  0.7816164E-02  0.1226708E+00
        -11   -1    0    0    0    0  0.00000000000E+00  0.00000000000E+00  0.45593999997E+02  0.45594000000E+02  0.51100000000E-03 0. -1.
         11   -1    0    0    0    0 -0.00000000000E+00 -0.00000000000E+00 -0.45593999997E+02  0.45594000000E+02  0.51100000000E-03 0.  1.
    9900012    2    1    2    0    0 -0.16119917606E+02  0.79567345532E+01 -0.52457713917E+01  0.72461561848E+02  0.69999988997E+02 0.  0.
         12    1    1    2    0    0  0.16119917606E+02 -0.79567345532E+01  0.52457713917E+01  0.18726438152E+02  0.00000000000E+00 0. -1.
         11    1    3    3    0    0  0.14956292142E+02  0.11132047769E+02 -0.11534172066E+01  0.18680030345E+02  0.51100000000E-03 0. -1.
        -11    1    3    3    0    0  0.39593022731E+01 -0.58750930092E+01  0.12924275507E+02  0.14738713988E+02  0.51100000000E-03 0.  1.
        -12    1    3    3    0    0 -0.35035512021E+02  0.26997797933E+01 -0.17016629692E+02  0.39042817516E+02  0.00000000000E+00 0.  1.
</event>
<event>
 7    1  0.3162486E-013  0.7246156E+02  0.7816164E-02  0.1226708E+00
        -11   -1    0    0    0    0  0.00000000000E+00  0.00000000000E+00  0.45593999997E+02  0.45594000000E+02  0.51100000000E-03 0.  1.
         11   -1    0    0    0    0 -0.00000000000E+00 -0.00000000000E+00 -0.45593999997E+02  0.45594000000E+02  0.51100000000E-03 0. -1.
    9900012    2    1    2    0    0 -0.89864166804E+01 -0.13307253221E+02  0.96354061686E+01  0.72461555461E+02  0.69999980677E+02 0.  0.
         12    1    1    2    0    0  0.89864166804E+01  0.13307253221E+02 -0.96354061686E+01  0.18726444539E+02  0.00000000000E+00 0. -1.
         11    1    3    3    0    0 -0.49400568767E+01  0.18426607079E+02  0.31118529724E+01  0.19329450059E+02  0.51100000000E-03 0. -1.
        -11    1    3    3    0    0 -0.71679639700E+01  0.44031926402E+00  0.17562399194E+02  0.18973967804E+02  0.51100000000E-03 0.  1.
        -12    1    3    3    0    0  0.31216041664E+01 -0.32174179564E+02 -0.11038845998E+02  0.34158137598E+02  0.00000000000E+00 0.  1.
</event>
<event>
 7    1  0.3162486E-013  0.7246160E+02  0.7816164E-02  0.1226708E+00
        -11   -1    0    0    0    0  0.00000000000E+00  0.00000000000E+00  0.45593999997E+02  0.45594000000E+02  0.51100000000E-03 0.  1.
         11   -1    0    0    0    0 -0.00000000000E+00 -0.00000000000E+00 -0.45593999997E+02  0.45594000000E+02  0.51100000000E-03 0. -1.
    9900012    2    1    2    0    0 -0.15683613917E+02  0.19606885132E+01  0.10042799796E+02  0.72461604920E+02  0.70000045107E+02 0.  0.
         12    1    1    2    0    0  0.15683613917E+02 -0.19606885132E+01 -0.10042799796E+02  0.18726395080E+02  0.00000000000E+00 0. -1.
         11    1    3    3    0    0 -0.10870013305E+02  0.27681312334E+01 -0.14695597733E+02  0.18487301933E+02  0.51100000000E-03 0. -1.
        -11    1    3    3    0    0 -0.11323566813E+02  0.20556254625E+00  0.37737848764E+02  0.39400642773E+02  0.51100000000E-03 0.  1.
         12    1    3    3    0    0  0.65099662008E+01 -0.10130052665E+01 -0.12999451236E+02  0.14573660214E+02  0.00000000000E+00 0. -1.
</event>
<event>
 7    1  0.3162486E-013  0.7246162E+02  0.7816164E-02  0.1226708E+00
        -11   -1    0    0    0    0  0.00000000000E+00  0.00000000000E+00  0.45593999997E+02  0.45594000000E+02  0.51100000000E-03 0.  1.
         11   -1    0    0    0    0 -0.00000000000E+00 -0.00000000000E+00 -0.45593999997E+02  0.45594000000E+02  0.51100000000E-03 0. -1.
    9900012    2    1    2    0    0  0.12280066867E+02 -0.10443907128E+02  0.95290216142E+01  0.72461615104E+02  0.70000058373E+02 0.  0.
         12    1    1    2    0    0 -0.12280066867E+02  0.10443907128E+02 -0.95290216142E+01  0.18726384896E+02  0.00000000000E+00 0. -1.
         11    1    3    3    0    0  0.36980388847E+02 -0.77405408936E+01  0.41777730805E+01  0.38012089140E+02  0.51100000000E-03 0. -1.
        -11    1    3    3    0    0 -0.84425338203E+01  0.97086844000E+01  0.55061370075E+01  0.13994730261E+02  0.51100000000E-03 0.  1.
        -12    1    3    3    0    0 -0.16257788160E+02 -0.12412050634E+02 -0.15488847383E+00  0.20454795703E+02  0.00000000000E+00 0.  1.
</event>
<event>
 7    1  0.3162486E-013  0.7246159E+02  0.7816164E-02  0.1226708E+00
        -11   -1    0    0    0    0  0.00000000000E+00  0.00000000000E+00  0.45593999997E+02  0.45594000000E+02  0.51100000000E-03 0.  1.
         11   -1    0    0    0    0 -0.00000000000E+00 -0.00000000000E+00 -0.45593999997E+02  0.45594000000E+02  0.51100000000E-03 0. -1.
    9900012    2    1    2    0    0  0.99353342382E+01  0.15111842480E+02  0.48579781995E+01  0.72461585454E+02  0.70000019748E+02 0.  0.
         12    1    1    2    0    0 -0.99353342382E+01 -0.15111842480E+02 -0.48579781995E+01  0.18726414546E+02  0.00000000000E+00 0. -1.
         11    1    3    3    0    0  0.12658705209E+02 -0.94664390452E+00  0.11637943568E+01  0.12747288724E+02  0.51100000000E-03 0. -1.
        -11    1    3    3    0    0  0.25402247886E+02  0.53069355588E+01 -0.83842899568E+01  0.27271488427E+02  0.51100000000E-03 0.  1.
         12    1    3    3    0    0 -0.28125618857E+02  0.10751550826E+02  0.12078473800E+02  0.32442808303E+02  0.00000000000E+00 0. -1.
</event>
<event>
 7    1  0.3162486E-013  0.7246156E+02  0.7816164E-02  0.1226708E+00
        -11   -1    0    0    0    0  0.00000000000E+00  0.00000000000E+00  0.45593999997E+02  0.45594000000E+02  0.51100000000E-03 0. -1.
         11   -1    0    0    0    0 -0.00000000000E+00 -0.00000000000E+00 -0.45593999997E+02  0.45594000000E+02  0.51100000000E-03 0.  1.
    9900012    2    1    2    0    0 -0.16515809652E+02  0.68654939154E+01 -0.55473085362E+01  0.72461558610E+02  0.69999984778E+02 0.  0.
         12    1    1    2    0    0  0.16515809652E+02 -0.68654939154E+01  0.55473085362E+01  0.18726441390E+02  0.00000000000E+00 0. -1.
         11    1    3    3    0    0 -0.17947212555E+01 -0.20567164910E+02  0.13485382426E+02  0.24659376234E+02  0.51100000000E-03 0. -1.
        -11    1    3    3    0    0  0.29351808533E+01 -0.44010098489E+01  0.21215687062E+01  0.56995814204E+01  0.51100000000E-03 0.  1.
        -12    1    3    3    0    0 -0.17656269249E+02  0.31833668674E+02 -0.21154259669E+02  0.42102600955E+02  0.00000000000E+00 0.  1.
</event>
<event>
 7    1  0.3162486E-013  0.7246153E+02  0.7816164E-02  0.1226708E+00
        -11   -1    0    0    0    0  0.00000000000E+00  0.00000000000E+00  0.45593999997E+02  0.45594000000E+02  0.51100000000E-03 0.  1.
         11   -1    0    0    0    0 -0.00000000000E+00 -0.00000000000E+00 -0.45593999997E+02  0.45594000000E+02  0.51100000000E-03 0. -1.
    9900012    2    1    2    0    0 -0.30498274934E+01  0.94731579419E+01  0.15863116125E+02  0.72461531504E+02  0.69999949469E+02 0.  0.
         12    1    1    2    0    0  0.30498274934E+01 -0.94731579419E+01 -0.15863116125E+02  0.18726468496E+02  0.00000000000E+00 0. -1.
         11    1    3    3    0    0  0.93545677955E+01 -0.89211968210E+01 -0.13509187243E+01  0.12996948604E+02  0.51100000000E-03 0. -1.
        -11    1    3    3    0    0  0.11484504865E+02  0.27668073560E+02  0.28615903763E+01  0.30093269119E+02  0.51100000000E-03 0.  1.
         12    1    3    3    0    0 -0.23888900154E+02 -0.92737187974E+01  0.14352444473E+02  0.29371313781E+02  0.00000000000E+00 0. -1.
</event>
<event>
 7    1  0.3162486E-013  0.7246157E+02  0.7816164E-02  0.1226708E+00
        -11   -1    0    0    0    0  0.00000000000E+00  0.00000000000E+00  0.45593999997E+02  0.45594000000E+02  0.51100000000E-03 0.  1.
         11   -1    0    0    0    0 -0.00000000000E+00 -0.00000000000E+00 -0.45593999997E+02  0.45594000000E+02  0.51100000000E-03 0. -1.
    9900012    2    1    2    0    0 -0.25988118562E+00  0.58662588605E+00  0.18715439277E+02  0.72461565863E+02  0.69999994227E+02 0.  0.
         12    1    1    2    0    0  0.25988118562E+00 -0.58662588605E+00 -0.18715439277E+02  0.18726434137E+02  0.00000000000E+00 0. -1.
         11    1    3    3    0    0  0.28658046985E+01 -0.29412445467E+01 -0.15780783813E+02  0.16306345209E+02  0.51100000000E-03 0. -1.
        -11    1    3    3    0    0 -0.77505672707E+01 -0.13331592517E+02 -0.21332167022E+01  0.15567699439E+02  0.51100000000E-03 0.  1.
        -12    1    3    3    0    0  0.46248813865E+01  0.16859462950E+02  0.36629439793E+02  0.40587521215E+02  0.00000000000E+00 0.  1.
</event>
<event>
 7    1  0.3162486E-013  0.7246159E+02  0.7816164E-02  0.1226708E+00
        -11   -1    0    0    0    0  0.00000000000E+00  0.00000000000E+00  0.45593999997E+02  0.45594000000E+02  0.51100000000E-03 0. -1.
         11   -1    0    0    0    0 -0.00000000000E+00 -0.00000000000E+00 -0.45593999997E+02  0.45594000000E+02  0.51100000000E-03 0.  1.
    9900012    2    1    2    0    0  0.16749763753E+02 -0.60190640769E+01 -0.58219085326E+01  0.72461592520E+02  0.70000028953E+02 0.  0.
         12    1    1    2    0    0 -0.16749763753E+02  0.60190640769E+01  0.58219085326E+01  0.18726407480E+02  0.00000000000E+00 0. -1.
         11    1    3    3    0    0 -0.21701371497E+02 -0.84665134617E+01 -0.14837921315E+01  0.23341658347E+02  0.51100000000E-03 0. -1.
        -11    1    3    3    0    0  0.29767355450E+01  0.10114791298E+02 -0.71158187251E+01  0.12720252902E+02  0.51100000000E-03 0.  1.
         12    1    3    3    0    0  0.35474399705E+02 -0.76673419134E+01  0.27777023241E+01  0.36399681271E+02  0.00000000000E+00 0. -1.
</event>
<event>
 7    1  0.3162486E-013  0.7246120E+02  0.7816164E-02  0.1226709E+00
        -11   -1    0    0    0    0  0.00000000000E+00  0.00000000000E+00  0.45593999997E+02  0.45594000000E+02  0.51100000000E-03 0.  1.
         11   -1    0    0    0    0 -0.00000000000E+00 -0.00000000000E+00 -0.45593999997E+02  0.45594000000E+02  0.51100000000E-03 0. -1.
    9900012    2    1    2    0    0 -0.12503752147E+02 -0.90054590391E+01  0.10641948585E+02  0.72461196216E+02  0.69999512692E+02 0.  0.
         12    1    1    2    0    0  0.12503752147E+02  0.90054590391E+01 -0.10641948585E+02  0.18726803784E+02  0.00000000000E+00 0. -1.
         11    1    3    3    0    0  0.25680945745E+00 -0.67917322293E+01 -0.72551004232E+01  0.99413309061E+01  0.51100000000E-03 0. -1.
        -11    1    3    3    0    0 -0.26884059052E+02 -0.22548808758E+02  0.11826143831E+02  0.37027815027E+02  0.51100000000E-03 0.  1.
        -12    1    3    3    0    0  0.14123497448E+02  0.20335081948E+02  0.60709051776E+01  0.25492050283E+02  0.00000000000E+00 0.  1.
</event>
<event>
 7    1  0.3162486E-013  0.7246155E+02  0.7816164E-02  0.1226708E+00
        -11   -1    0    0    0    0  0.00000000000E+00  0.00000000000E+00  0.45593999997E+02  0.45594000000E+02  0.51100000000E-03 0.  1.
         11   -1    0    0    0    0 -0.00000000000E+00 -0.00000000000E+00 -0.45593999997E+02  0.45594000000E+02  0.51100000000E-03 0. -1.
    9900012    2    1    2    0    0 -0.29558075866E+01  0.14154100356E+02  0.11899774775E+02  0.72461548252E+02  0.69999971286E+02 0.  0.
         12    1    1    2    0    0  0.29558075866E+01 -0.14154100356E+02 -0.11899774775E+02  0.18726451748E+02  0.00000000000E+00 0. -1.
         11    1    3    3    0    0 -0.26305859900E+02  0.25558148471E+02  0.16605476821E+02  0.40261136088E+02  0.51100000000E-03 0. -1.
        -11    1    3    3    0    0 -0.10899855187E+00 -0.36403550365E+01  0.45370881778E+01  0.58180095282E+01  0.51100000000E-03 0.  1.
        -12    1    3    3    0    0  0.23459050865E+02 -0.77636930790E+01 -0.92427902239E+01  0.26382402636E+02  0.00000000000E+00 0.  1.
</event>
<event>
 7    1  0.3162486E-013  0.7246145E+02  0.7816164E-02  0.1226708E+00
        -11   -1    0    0    0    0  0.00000000000E+00  0.00000000000E+00  0.45593999997E+02  0.45594000000E+02  0.51100000000E-03 0.  1.
         11   -1    0    0    0    0 -0.00000000000E+00 -0.00000000000E+00 -0.45593999997E+02  0.45594000000E+02  0.51100000000E-03 0. -1.
    9900012    2    1    2    0    0  0.78205667015E+01 -0.40642845754E+01  0.16522833070E+02  0.72461449722E+02  0.69999842932E+02 0.  0.
         12    1    1    2    0    0 -0.78205667015E+01  0.40642845754E+01 -0.16522833070E+02  0.18726550278E+02  0.00000000000E+00 0. -1.
         11    1    3    3    0    0  0.22735591737E+01 -0.43837880813E+01 -0.56768224365E+01  0.75241599195E+01  0.51100000000E-03 0. -1.
        -11    1    3    3    0    0 -0.25630511259E+02 -0.64872674338E+00 -0.16201987955E+01  0.25689861778E+02  0.51100000000E-03 0.  1.
         12    1    3    3    0    0  0.31177518787E+02  0.96823024920E+00  0.23819854302E+02  0.39247428024E+02  0.00000000000E+00 0. -1.
</event>
<event>
 7    1  0.3162486E-013  0.7246158E+02  0.7816164E-02  0.1226708E+00
        -11   -1    0    0    0    0  0.00000000000E+00  0.00000000000E+00  0.45593999997E+02  0.45594000000E+02  0.51100000000E-03 0.  1.
         11   -1    0    0    0    0 -0.00000000000E+00 -0.00000000000E+00 -0.45593999997E+02  0.45594000000E+02  0.51100000000E-03 0. -1.
    9900012    2    1    2    0    0  0.93147211007E+01 -0.15467053898E+02  0.49684202759E+01  0.72461575207E+02  0.70000006400E+02 0.  0.
         12    1    1    2    0    0 -0.93147211007E+01  0.15467053898E+02 -0.49684202759E+01  0.18726424793E+02  0.00000000000E+00 0. -1.
         11    1    3    3    0    0  0.20518726480E+02 -0.74744009203E+00  0.10078360107E+02  0.22872475724E+02  0.51100000000E-03 0. -1.
        -11    1    3    3    0    0 -0.29851135545E+01 -0.24697486305E+02 -0.18481137484E+02  0.30990791789E+02  0.51100000000E-03 0.  1.
         12    1    3    3    0    0 -0.82188918246E+01  0.99778724988E+01  0.13371197653E+02  0.18598307695E+02  0.00000000000E+00 0. -1.
</event>
<event>
 7    1  0.3162486E-013  0.7246183E+02  0.7816164E-02  0.1226707E+00
        -11   -1    0    0    0    0  0.00000000000E+00  0.00000000000E+00  0.45593999997E+02  0.45594000000E+02  0.51100000000E-03 0.  1.
         11   -1    0    0    0    0 -0.00000000000E+00 -0.00000000000E+00 -0.45593999997E+02  0.45594000000E+02  0.51100000000E-03 0. -1.
    9900012    2    1    2    0    0  0.14223563274E+02 -0.80463459811E+01  0.91441734534E+01  0.72461832640E+02  0.70000341752E+02 0.  0.
         12    1    1    2    0    0 -0.14223563274E+02  0.80463459811E+01 -0.91441734534E+01  0.18726167360E+02  0.00000000000E+00 0. -1.
         11    1    3    3    0    0 -0.55100630531E+01 -0.13732256647E+02  0.12588727644E+00  0.14797010351E+02  0.51100000000E-03 0. -1.
        -11    1    3    3    0    0  0.30861035403E+02 -0.14033680945E+02  0.20058220655E+01  0.33961316663E+02  0.51100000000E-03 0.  1.
         12    1    3    3    0    0 -0.11127409076E+02  0.19719591611E+02  0.70124641115E+01  0.23703505626E+02  0.00000000000E+00 0. -1.
</event>
<event>
 7    1  0.3162486E-013  0.7246157E+02  0.7816164E-02  0.1226708E+00
        -11   -1    0    0    0    0  0.00000000000E+00  0.00000000000E+00  0.45593999997E+02  0.45594000000E+02  0.51100000000E-03 0.  1.
         11   -1    0    0    0    0 -0.00000000000E+00 -0.00000000000E+00 -0.45593999997E+02  0.45594000000E+02  0.51100000000E-03 0. -1.
    9900012    2    1    2    0    0 -0.70601215532E+00  0.23390019975E+01  0.18566361933E+02  0.72461570043E+02  0.69999999673E+02 0.  0.
         12    1    1    2    0    0  0.70601215532E+00 -0.23390019975E+01 -0.18566361933E+02  0.18726429957E+02  0.00000000000E+00 0. -1.
         11    1    3    3    0    0  0.97092635835E+01 -0.56608885569E+01  0.33401889828E+01  0.11724859116E+02  0.51100000000E-03 0.  1.
        -11    1    3    3    0    0 -0.12068085295E+02  0.19525134105E+02 -0.15621349671E+02  0.27765015943E+02  0.51100000000E-03 0. -1.
         12    1    3    3    0    0  0.16528095559E+01 -0.11525243551E+02  0.30847522620E+02  0.32971694985E+02  0.00000000000E+00 0. -1.
</event>
<event>
 7    1  0.3162486E-013  0.7246157E+02  0.7816164E-02  0.1226708E+00
        -11   -1    0    0    0    0  0.00000000000E+00  0.00000000000E+00  0.45593999997E+02  0.45594000000E+02  0.51100000000E-03 0.  1.
         11   -1    0    0    0    0 -0.00000000000E+00 -0.00000000000E+00 -0.45593999997E+02  0.45594000000E+02  0.51100000000E-03 0. -1.
    9900012    2    1    2    0    0 -0.10957797608E+01 -0.18366839065E+02  0.34839133844E+01  0.72461570469E+02  0.70000000227E+02 0.  0.
         12    1    1    2    0    0  0.10957797608E+01  0.18366839065E+02 -0.34839133844E+01  0.18726429531E+02  0.00000000000E+00 0. -1.
         11    1    3    3    0    0  0.15691626783E+02 -0.10906230204E+02 -0.52369462340E+01  0.19814101404E+02  0.51100000000E-03 0. -1.
        -11    1    3    3    0    0 -0.63741925426E+01 -0.19118763908E+02  0.23622345129E+02  0.31051129667E+02  0.51100000000E-03 0.  1.
         12    1    3    3    0    0 -0.10413214001E+02  0.11658155047E+02 -0.14901485511E+02  0.21596339397E+02  0.00000000000E+00 0. -1.
</event>
<event>
 7    1  0.3162486E-013  0.7246163E+02  0.7816164E-02  0.1226708E+00
        -11   -1    0    0    0    0  0.00000000000E+00  0.00000000000E+00  0.45593999997E+02  0.45594000000E+02  0.51100000000E-03 0. -1.
         11   -1    0    0    0    0 -0.00000000000E+00 -0.00000000000E+00 -0.45593999997E+02  0.45594000000E+02  0.51100000000E-03 0.  1.
    9900012    2    1    2    0    0  0.19033715624E+00  0.17664195091E+02 -0.62142495258E+01  0.72461630527E+02  0.70000078464E+02 0.  0.
         12    1    1    2    0    0 -0.19033715624E+00 -0.17664195091E+02  0.62142495258E+01  0.18726369473E+02  0.00000000000E+00 0. -1.
         11    1    3    3    0    0  0.57990394207E+00  0.19766364534E+01  0.56118210631E+01  0.59779525054E+01  0.51100000000E-03 0. -1.
        -11    1    3    3    0    0  0.28452250014E+02  0.18771794440E+02 -0.15122403909E+02  0.37290721334E+02  0.51100000000E-03 0.  1.
        -12    1    3    3    0    0 -0.28841816800E+02 -0.30842358016E+01  0.32963333203E+01  0.29192956688E+02  0.00000000000E+00 0.  1.
</event>
<event>
 7    1  0.3162486E-013  0.7246167E+02  0.7816164E-02  0.1226708E+00
        -11   -1    0    0    0    0  0.00000000000E+00  0.00000000000E+00  0.45593999997E+02  0.45594000000E+02  0.51100000000E-03 0. -1.
         11   -1    0    0    0    0 -0.00000000000E+00 -0.00000000000E+00 -0.45593999997E+02  0.45594000000E+02  0.51100000000E-03 0.  1.
    9900012    2    1    2    0    0  0.24671148809E+01 -0.13904873896E+02 -0.12298093475E+02  0.72461674226E+02  0.70000135390E+02 0.  0.
         12    1    1    2    0    0 -0.24671148809E+01  0.13904873896E+02  0.12298093475E+02  0.18726325774E+02  0.00000000000E+00 0. -1.
         11    1    3    3    0    0 -0.17777151393E+02  0.77628526492E+01  0.16969237986E+02  0.25772932138E+02  0.51100000000E-03 0. -1.
        -11    1    3    3    0    0  0.65272167770E+01  0.36777511777E+01 -0.49363044945E+01  0.89720407324E+01  0.51100000000E-03 0.  1.
        -12    1    3    3    0    0  0.13717049497E+02 -0.25345477723E+02 -0.24331026966E+02  0.37716701355E+02  0.00000000000E+00 0.  1.
</event>
<event>
 7    1  0.3162486E-013  0.7246157E+02  0.7816164E-02  0.1226708E+00
        -11   -1    0    0    0    0  0.00000000000E+00  0.00000000000E+00  0.45593999997E+02  0.45594000000E+02  0.51100000000E-03 0. -1.
         11   -1    0    0    0    0 -0.00000000000E+00 -0.00000000000E+00 -0.45593999997E+02  0.45594000000E+02  0.51100000000E-03 0.  1.
    9900012    2    1    2    0    0 -0.11437253909E+02 -0.13191752389E+01 -0.14769168051E+02  0.72461566138E+02  0.69999994586E+02 0.  0.
         12    1    1    2    0    0  0.11437253909E+02  0.13191752389E+01  0.14769168051E+02  0.18726433862E+02  0.00000000000E+00 0. -1.
         11    1    3    3    0    0  0.99309318364E+01  0.18319290985E+01  0.19923405275E+01  0.10293142980E+02  0.51100000000E-03 0. -1.
        -11    1    3    3    0    0 -0.84904534673E-01  0.14615753140E+02  0.14359250656E+02  0.20489400389E+02  0.51100000000E-03 0.  1.
         12    1    3    3    0    0 -0.21283281210E+02 -0.17766857477E+02 -0.31120759234E+02  0.41679022769E+02  0.00000000000E+00 0. -1.
</event>
<event>
 7    1  0.3162486E-013  0.7246168E+02  0.7816164E-02  0.1226708E+00
        -11   -1    0    0    0    0  0.00000000000E+00  0.00000000000E+00  0.45593999997E+02  0.45594000000E+02  0.51100000000E-03 0.  1.
         11   -1    0    0    0    0 -0.00000000000E+00 -0.00000000000E+00 -0.45593999997E+02  0.45594000000E+02  0.51100000000E-03 0. -1.
    9900012    2    1    2    0    0  0.16381323614E+01  0.86392483933E+01  0.16533446286E+02  0.72461683317E+02  0.70000147233E+02 0.  0.
         12    1    1    2    0    0 -0.16381323614E+01 -0.86392483933E+01 -0.16533446286E+02  0.18726316683E+02  0.00000000000E+00 0. -1.
         11    1    3    3    0    0 -0.67566987430E+01 -0.18844793921E+02  0.19693371273E+02  0.28082167085E+02  0.51100000000E-03 0. -1.
        -11    1    3    3    0    0  0.13964538714E+02  0.74582951121E+01  0.10956752579E+02  0.19253179862E+02  0.51100000000E-03 0.  1.
         12    1    3    3    0    0 -0.55697076091E+01  0.20025747202E+02 -0.14116677566E+02  0.25126336370E+02  0.00000000000E+00 0. -1.
</event>
<event>
 7    1  0.3162486E-013  0.7246153E+02  0.7816164E-02  0.1226708E+00
        -11   -1    0    0    0    0  0.00000000000E+00  0.00000000000E+00  0.45593999997E+02  0.45594000000E+02  0.51100000000E-03 0. -1.
         11   -1    0    0    0    0 -0.00000000000E+00 -0.00000000000E+00 -0.45593999997E+02  0.45594000000E+02  0.51100000000E-03 0.  1.
    9900012    2    1    2    0    0  0.15754171618E+02  0.10035582877E+02 -0.13318241086E+01  0.72461532033E+02  0.69999950158E+02 0.  0.
         12    1    1    2    0    0 -0.15754171618E+02 -0.10035582877E+02  0.13318241086E+01  0.18726467967E+02  0.00000000000E+00 0. -1.
         11    1    3    3    0    0  0.14211479436E+02  0.22137064279E+02  0.12077630484E+01  0.26333903138E+02  0.51100000000E-03 0. -1.
        -11    1    3    3    0    0  0.64926991742E+01  0.16051728209E+02  0.88761242003E+00  0.17337848111E+02  0.51100000000E-03 0.  1.
        -12    1    3    3    0    0 -0.49500069925E+01 -0.28153209611E+02 -0.34271995770E+01  0.28789780784E+02  0.00000000000E+00 0.  1.
</event>
<event>
 7    1  0.3162486E-013  0.7246154E+02  0.7816164E-02  0.1226708E+00
        -11   -1    0    0    0    0  0.00000000000E+00  0.00000000000E+00  0.45593999997E+02  0.45594000000E+02  0.51100000000E-03 0.  1.
         11   -1    0    0    0    0 -0.00000000000E+00 -0.00000000000E+00 -0.45593999997E+02  0.45594000000E+02  0.51100000000E-03 0. -1.
    9900012    2    1    2    0    0 -0.52745865237E+01 -0.24714174573E+01  0.17797504685E+02  0.72461539036E+02  0.69999959280E+02 0.  0.
         12    1    1    2    0    0  0.52745865237E+01  0.24714174573E+01 -0.17797504685E+02  0.18726460964E+02  0.00000000000E+00 0. -1.
         11    1    3    3    0    0 -0.55916801001E+01  0.25853552799E+02  0.26170474560E+02  0.37209767772E+02  0.51100000000E-03 0.  1.
        -11    1    3    3    0    0 -0.20313671564E+01 -0.20254214974E+02  0.35507219824E+01  0.20663187160E+02  0.51100000000E-03 0. -1.
        -12    1    3    3    0    0  0.23484607327E+01 -0.80707552818E+01 -0.11923691858E+02  0.14588584104E+02  0.00000000000E+00 0.  1.
</event>
<event>
 7    1  0.3162486E-013  0.7246157E+02  0.7816164E-02  0.1226708E+00
        -11   -1    0    0    0    0  0.00000000000E+00  0.00000000000E+00  0.45593999997E+02  0.45594000000E+02  0.51100000000E-03 0. -1.
         11   -1    0    0    0    0 -0.00000000000E+00 -0.00000000000E+00 -0.45593999997E+02  0.45594000000E+02  0.51100000000E-03 0.  1.
    9900012    2    1    2    0    0 -0.13689164966E+01 -0.17226456961E+02 -0.72148870859E+01  0.72461565543E+02  0.69999993810E+02 0.  0.
         12    1    1    2    0    0  0.13689164966E+01  0.17226456961E+02  0.72148870859E+01  0.18726434457E+02  0.00000000000E+00 0. -1.
         11    1    3    3    0    0  0.52907116009E+01 -0.34087648302E+01  0.48872037664E+01  0.79684419950E+01  0.51100000000E-03 0. -1.
        -11    1    3    3    0    0  0.11070055561E+02 -0.27393298368E+02  0.11771202753E+02  0.31804089991E+02  0.51100000000E-03 0.  1.
         12    1    3    3    0    0 -0.17729683659E+02  0.13575606237E+02 -0.23873293605E+02  0.32689033557E+02  0.00000000000E+00 0. -1.
</event>
<event>
 7    1  0.3162486E-013  0.7246158E+02  0.7816164E-02  0.1226708E+00
        -11   -1    0    0    0    0  0.00000000000E+00  0.00000000000E+00  0.45593999997E+02  0.45594000000E+02  0.51100000000E-03 0.  1.
         11   -1    0    0    0    0 -0.00000000000E+00 -0.00000000000E+00 -0.45593999997E+02  0.45594000000E+02  0.51100000000E-03 0. -1.
    9900012    2    1    2    0    0  0.69621213965E+01 -0.85331240956E+01  0.15145739498E+02  0.72461581066E+02  0.70000014032E+02 0.  0.
         12    1    1    2    0    0 -0.69621213965E+01  0.85331240956E+01 -0.15145739498E+02  0.18726418934E+02  0.00000000000E+00 0. -1.
         11    1    3    3    0    0 -0.25115128058E+01  0.12726477785E+02  0.14711814074E+01  0.13055087452E+02  0.51100000000E-03 0. -1.
        -11    1    3    3    0    0 -0.17951856408E+01  0.90334480479E+01  0.23813428008E+02  0.25532434840E+02  0.51100000000E-03 0.  1.
        -12    1    3    3    0    0  0.11268819843E+02 -0.30293049928E+02 -0.10138869918E+02  0.33874058774E+02  0.00000000000E+00 0.  1.
</event>
<event>
 7    1  0.3162486E-013  0.7246148E+02  0.7816164E-02  0.1226708E+00
        -11   -1    0    0    0    0  0.00000000000E+00  0.00000000000E+00  0.45593999997E+02  0.45594000000E+02  0.51100000000E-03 0.  1.
         11   -1    0    0    0    0 -0.00000000000E+00 -0.00000000000E+00 -0.45593999997E+02  0.45594000000E+02  0.51100000000E-03 0. -1.
    9900012    2    1    2    0    0 -0.39526927775E+01  0.20953092957E+00  0.18303415248E+02  0.72461476213E+02  0.69999877442E+02 0.  0.
         12    1    1    2    0    0  0.39526927775E+01 -0.20953092957E+00 -0.18303415248E+02  0.18726523787E+02  0.00000000000E+00 0. -1.
         11    1    3    3    0    0  0.77216901777E+01  0.12434766204E+01  0.42699571243E+01  0.89108511047E+01  0.51100000000E-03 0. -1.
        -11    1    3    3    0    0  0.18210874872E+02 -0.89048362160E+01  0.23683794579E+02  0.31174576141E+02  0.51100000000E-03 0.  1.
         12    1    3    3    0    0 -0.29885257827E+02  0.78708905251E+01 -0.96503364557E+01  0.32376048968E+02  0.00000000000E+00 0. -1.
</event>
<event>
 7    1  0.3162486E-013  0.7246158E+02  0.7816164E-02  0.1226708E+00
        -11   -1    0    0    0    0  0.00000000000E+00  0.00000000000E+00  0.45593999997E+02  0.45594000000E+02  0.51100000000E-03 0. -1.
         11   -1    0    0    0    0 -0.00000000000E+00 -0.00000000000E+00 -0.45593999997E+02  0.45594000000E+02  0.51100000000E-03 0.  1.
    9900012    2    1    2    0    0  0.29097772037E+01 -0.66580123823E+01 -0.17259280357E+02  0.72461583079E+02  0.70000016655E+02 0.  0.
         12    1    1    2    0    0 -0.29097772037E+01  0.66580123823E+01  0.17259280357E+02  0.18726416921E+02  0.00000000000E+00 0. -1.
         11    1    3    3    0    0 -0.70237896139E+01  0.31864088485E+01 -0.50094111075E+01  0.91967941042E+01  0.51100000000E-03 0. -1.
        -11    1    3    3    0    0  0.68207069381E+01  0.16212273437E+02 -0.27700044849E+02  0.32812380865E+02  0.51100000000E-03 0.  1.
         12    1    3    3    0    0  0.31128598795E+01 -0.26056694668E+02  0.15450175600E+02  0.30452408110E+02  0.00000000000E+00 0. -1.
</event>
<event>
 7    1  0.3162486E-013  0.7246159E+02  0.7816164E-02  0.1226708E+00
        -11   -1    0    0    0    0  0.00000000000E+00  0.00000000000E+00  0.45593999997E+02  0.45594000000E+02  0.51100000000E-03 0. -1.
         11   -1    0    0    0    0 -0.00000000000E+00 -0.00000000000E+00 -0.45593999997E+02  0.45594000000E+02  0.51100000000E-03 0.  1.
    9900012    2    1    2    0    0 -0.80816387105E+01 -0.11278610437E+02 -0.12576110245E+02  0.72461588530E+02  0.70000023755E+02 0.  0.
         12    1    1    2    0    0  0.80816387105E+01  0.11278610437E+02  0.12576110245E+02  0.18726411470E+02  0.00000000000E+00 0. -1.
         11    1    3    3    0    0 -0.31908325549E+00 -0.63741566036E+01 -0.28270446664E+01  0.69802484439E+01  0.51100000000E-03 0. -1.
        -11    1    3    3    0    0  0.71633491305E+01  0.13425293004E+02 -0.30462661678E+02  0.34051810815E+02  0.51100000000E-03 0.  1.
         12    1    3    3    0    0 -0.14925904585E+02 -0.18329746837E+02  0.20713596099E+02  0.31429529271E+02  0.00000000000E+00 0. -1.
</event>
<event>
 7    1  0.3162486E-013  0.7246164E+02  0.7816164E-02  0.1226708E+00
        -11   -1    0    0    0    0  0.00000000000E+00  0.00000000000E+00  0.45593999997E+02  0.45594000000E+02  0.51100000000E-03 0.  1.
         11   -1    0    0    0    0 -0.00000000000E+00 -0.00000000000E+00 -0.45593999997E+02  0.45594000000E+02  0.51100000000E-03 0. -1.
    9900012    2    1    2    0    0  0.40927444025E+01 -0.18081303575E+02  0.26443262077E+01  0.72461640054E+02  0.70000090875E+02 0.  0.
         12    1    1    2    0    0 -0.40927444025E+01  0.18081303575E+02 -0.26443262077E+01  0.18726359946E+02  0.00000000000E+00 0. -1.
         11    1    3    3    0    0  0.33508032183E+01  0.21003400085E+02 -0.32890752421E+01  0.21521819476E+02  0.51100000000E-03 0. -1.
        -11    1    3    3    0    0 -0.70102881253E+01 -0.67798883144E+00  0.92412634632E+01  0.11619154836E+02  0.51100000000E-03 0.  1.
         12    1    3    3    0    0  0.77522293094E+01 -0.38406714829E+02 -0.33078620133E+01  0.39320665741E+02  0.00000000000E+00 0. -1.
</event>
<event>
 7    1  0.3162486E-013  0.7246157E+02  0.7816164E-02  0.1226708E+00
        -11   -1    0    0    0    0  0.00000000000E+00  0.00000000000E+00  0.45593999997E+02  0.45594000000E+02  0.51100000000E-03 0. -1.
         11   -1    0    0    0    0 -0.00000000000E+00 -0.00000000000E+00 -0.45593999997E+02  0.45594000000E+02  0.51100000000E-03 0.  1.
    9900012    2    1    2    0    0  0.33257739514E+01 -0.17321555502E+02 -0.62914431461E+01  0.72461566430E+02  0.69999994966E+02 0.  0.
         12    1    1    2    0    0 -0.33257739514E+01  0.17321555502E+02  0.62914431461E+01  0.18726433570E+02  0.00000000000E+00 0. -1.
         11    1    3    3    0    0 -0.16077281862E+01  0.10275767286E+02  0.13152623512E+02  0.16768055604E+02  0.51100000000E-03 0. -1.
        -11    1    3    3    0    0  0.92243066660E+01  0.91645061021E+01  0.16271228934E+01  0.13104332670E+02  0.51100000000E-03 0.  1.
        -12    1    3    3    0    0 -0.42908045284E+01 -0.36761828890E+02 -0.21071189552E+02  0.42589178156E+02  0.00000000000E+00 0.  1.
</event>
<event>
 7    1  0.3162486E-013  0.7246164E+02  0.7816164E-02  0.1226708E+00
        -11   -1    0    0    0    0  0.00000000000E+00  0.00000000000E+00  0.45593999997E+02  0.45594000000E+02  0.51100000000E-03 0.  1.
         11   -1    0    0    0    0 -0.00000000000E+00 -0.00000000000E+00 -0.45593999997E+02  0.45594000000E+02  0.51100000000E-03 0. -1.
    9900012    2    1    2    0    0  0.82652195750E+01  0.45381225409E+01  0.16179245413E+02  0.72461644429E+02  0.70000096574E+02 0.  0.
         12    1    1    2    0    0 -0.82652195750E+01 -0.45381225409E+01 -0.16179245413E+02  0.18726355571E+02  0.00000000000E+00 0. -1.
         11    1    3    3    0    0 -0.16023227516E+02  0.16999030310E+02  0.36335996700E+01  0.23641359909E+02  0.51100000000E-03 0. -1.
        -11    1    3    3    0    0 -0.99943136067E+01  0.14800640675E+01  0.16200604339E+01  0.10232374611E+02  0.51100000000E-03 0.  1.
        -12    1    3    3    0    0  0.34282760698E+02 -0.13940971837E+02  0.10925585309E+02  0.38587909909E+02  0.00000000000E+00 0.  1.
</event>
<event>
 7    1  0.3162486E-013  0.7246158E+02  0.7816164E-02  0.1226708E+00
        -11   -1    0    0    0    0  0.00000000000E+00  0.00000000000E+00  0.45593999997E+02  0.45594000000E+02  0.51100000000E-03 0.  1.
         11   -1    0    0    0    0 -0.00000000000E+00 -0.00000000000E+00 -0.45593999997E+02  0.45594000000E+02  0.51100000000E-03 0. -1.
    9900012    2    1    2    0    0 -0.17285439420E+02 -0.64545054053E+01 -0.31987303037E+01  0.72461576649E+02  0.70000008278E+02 0.  0.
         12    1    1    2    0    0  0.17285439420E+02  0.64545054053E+01  0.31987303037E+01  0.18726423351E+02  0.00000000000E+00 0. -1.
         11    1    3    3    0    0 -0.28738883578E+01  0.34661597939E+01 -0.10198379439E+02  0.11148113807E+02  0.51100000000E-03 0. -1.
        -11    1    3    3    0    0 -0.21754250972E+01 -0.13590455725E+01 -0.25457003639E+02  0.25585904591E+02  0.51100000000E-03 0.  1.
        -12    1    3    3    0    0 -0.12236125965E+02 -0.85616196266E+01  0.32456652774E+02  0.35727558251E+02  0.00000000000E+00 0.  1.
</event>
<event>
 7    1  0.3162486E-013  0.7246160E+02  0.7816164E-02  0.1226708E+00
        -11   -1    0    0    0    0  0.00000000000E+00  0.00000000000E+00  0.45593999997E+02  0.45594000000E+02  0.51100000000E-03 0. -1.
         11   -1    0    0    0    0 -0.00000000000E+00 -0.00000000000E+00 -0.45593999997E+02  0.45594000000E+02  0.51100000000E-03 0.  1.
    9900012    2    1    2    0    0 -0.15798245418E+02 -0.73927204564E+01 -0.68147879186E+01  0.72461595957E+02  0.70000033430E+02 0.  0.
         12    1    1    2    0    0  0.15798245418E+02  0.73927204564E+01  0.68147879186E+01  0.18726404043E+02  0.00000000000E+00 0. -1.
         11    1    3    3    0    0  0.27666004531E+00 -0.16399807267E+02  0.71261769428E+01  0.17883305546E+02  0.51100000000E-03 0. -1.
        -11    1    3    3    0    0  0.17077530252E+02  0.65224401392E+01 -0.10683670716E+02  0.21173688510E+02  0.51100000000E-03 0.  1.
        -12    1    3    3    0    0 -0.33152435715E+02  0.24846466718E+01 -0.32572941450E+01  0.33404601900E+02  0.00000000000E+00 0.  1.
</event>
<event>
 7    1  0.3162486E-013  0.7246136E+02  0.7816164E-02  0.1226709E+00
        -11   -1    0    0    0    0  0.00000000000E+00  0.00000000000E+00  0.45593999997E+02  0.45594000000E+02  0.51100000000E-03 0.  1.
         11   -1    0    0    0    0 -0.00000000000E+00 -0.00000000000E+00 -0.45593999997E+02  0.45594000000E+02  0.51100000000E-03 0. -1.
    9900012    2    1    2    0    0 -0.10685605073E+02 -0.11375343265E+02  0.10349233777E+02  0.72461355081E+02  0.69999719643E+02 0.  0.
         12    1    1    2    0    0  0.10685605073E+02  0.11375343265E+02 -0.10349233777E+02  0.18726644919E+02  0.00000000000E+00 0. -1.
         11    1    3    3    0    0  0.71427336455E+01 -0.40659538849E+01  0.16343179710E+02  0.18293445499E+02  0.51100000000E-03 0. -1.
        -11    1    3    3    0    0 -0.11978832828E+02 -0.21982129274E+02  0.14003451080E+02  0.28684544371E+02  0.51100000000E-03 0.  1.
         12    1    3    3    0    0 -0.58495058899E+01  0.14672739894E+02 -0.19997397013E+02  0.25483365211E+02  0.00000000000E+00 0. -1.
</event>
<event>
 7    1  0.3162486E-013  0.7246159E+02  0.7816164E-02  0.1226708E+00
        -11   -1    0    0    0    0  0.00000000000E+00  0.00000000000E+00  0.45593999997E+02  0.45594000000E+02  0.51100000000E-03 0.  1.
         11   -1    0    0    0    0 -0.00000000000E+00 -0.00000000000E+00 -0.45593999997E+02  0.45594000000E+02  0.51100000000E-03 0. -1.
    9900012    2    1    2    0    0  0.14365089954E+02  0.80295701467E+01  0.89358069636E+01  0.72461589446E+02  0.70000024949E+02 0.  0.
         12    1    1    2    0    0 -0.14365089954E+02 -0.80295701467E+01 -0.89358069636E+01  0.18726410554E+02  0.00000000000E+00 0. -1.
         11    1    3    3    0    0  0.17122347049E+02 -0.22870075818E+02  0.10881064496E+02  0.30571436035E+02  0.51100000000E-03 0. -1.
        -11    1    3    3    0    0  0.31168827109E+00 -0.53027587343E+01  0.11204315573E+01  0.54287905567E+01  0.51100000000E-03 0.  1.
         12    1    3    3    0    0 -0.30689453664E+01  0.36202404699E+02 -0.30656890897E+01  0.36461362855E+02  0.00000000000E+00 0. -1.
</event>
<event>
 7    1  0.3162486E-013  0.7246142E+02  0.7816164E-02  0.1226708E+00
        -11   -1    0    0    0    0  0.00000000000E+00  0.00000000000E+00  0.45593999997E+02  0.45594000000E+02  0.51100000000E-03 0.  1.
         11   -1    0    0    0    0 -0.00000000000E+00 -0.00000000000E+00 -0.45593999997E+02  0.45594000000E+02  0.51100000000E-03 0. -1.
    9900012    2    1    2    0    0 -0.30338597375E+00 -0.17687905853E+02  0.61425442349E+01  0.72461417125E+02  0.69999800468E+02 0.  0.
         12    1    1    2    0    0  0.30338597375E+00  0.17687905853E+02 -0.61425442349E+01  0.18726582875E+02  0.00000000000E+00 0. -1.
         11    1    3    3    0    0  0.39600757705E+01  0.47956624620E+01 -0.16941740953E+02  0.18047248138E+02  0.51100000000E-03 0. -1.
        -11    1    3    3    0    0 -0.70647511182E+01 -0.11332866738E+01 -0.11576453088E+02  0.13609162847E+02  0.51100000000E-03 0.  1.
        -12    1    3    3    0    0  0.28012893740E+01 -0.21350281641E+02  0.34660738275E+02  0.40805006140E+02  0.00000000000E+00 0.  1.
</event>
<event>
 7    1  0.3162486E-013  0.7246155E+02  0.7816164E-02  0.1226708E+00
        -11   -1    0    0    0    0  0.00000000000E+00  0.00000000000E+00  0.45593999997E+02  0.45594000000E+02  0.51100000000E-03 0.  1.
         11   -1    0    0    0    0 -0.00000000000E+00 -0.00000000000E+00 -0.45593999997E+02  0.45594000000E+02  0.51100000000E-03 0. -1.
    9900012    2    1    2    0    0  0.43752772868E+01 -0.15874114343E+02  0.89190425177E+01  0.72461551406E+02  0.69999975395E+02 0.  0.
         12    1    1    2    0    0 -0.43752772868E+01  0.15874114343E+02 -0.89190425177E+01  0.18726448594E+02  0.00000000000E+00 0. -1.
         11    1    3    3    0    0  0.98277650521E+01 -0.36160765931E+01 -0.19871904772E+02  0.22462270041E+02  0.51100000000E-03 0. -1.
        -11    1    3    3    0    0 -0.17927409580E+02  0.18450818795E+01  0.33213528305E+01  0.18325603026E+02  0.51100000000E-03 0.  1.
         12    1    3    3    0    0  0.12474921815E+02 -0.14103119629E+02  0.25469594460E+02  0.31673678339E+02  0.00000000000E+00 0. -1.
</event>
<event>
 7    1  0.3162486E-013  0.7246155E+02  0.7816164E-02  0.1226708E+00
        -11   -1    0    0    0    0  0.00000000000E+00  0.00000000000E+00  0.45593999997E+02  0.45594000000E+02  0.51100000000E-03 0.  1.
         11   -1    0    0    0    0 -0.00000000000E+00 -0.00000000000E+00 -0.45593999997E+02  0.45594000000E+02  0.51100000000E-03 0. -1.
    9900012    2    1    2    0    0 -0.15818275021E+02 -0.87884661042E+01  0.48192439679E+01  0.72461546157E+02  0.69999968557E+02 0.  0.
         12    1    1    2    0    0  0.15818275021E+02  0.87884661042E+01 -0.48192439679E+01  0.18726453843E+02  0.00000000000E+00 0. -1.
         11    1    3    3    0    0 -0.72700618043E+01  0.13149529988E+01  0.13732892369E+02  0.15594076860E+02  0.51100000000E-03 0.  1.
        -11    1    3    3    0    0  0.20679726449E+01  0.19532344283E+02  0.79095859339E+01  0.21174289455E+02  0.51100000000E-03 0. -1.
         12    1    3    3    0    0 -0.10616185862E+02 -0.29635763386E+02 -0.16823234335E+02  0.35693179842E+02  0.00000000000E+00 0. -1.
</event>
<event>
 7    1  0.3162486E-013  0.7246167E+02  0.7816164E-02  0.1226708E+00
        -11   -1    0    0    0    0  0.00000000000E+00  0.00000000000E+00  0.45593999997E+02  0.45594000000E+02  0.51100000000E-03 0. -1.
         11   -1    0    0    0    0 -0.00000000000E+00 -0.00000000000E+00 -0.45593999997E+02  0.45594000000E+02  0.51100000000E-03 0.  1.
    9900012    2    1    2    0    0  0.78540071888E+01  0.16995551511E+02 -0.37584974343E+00  0.72461669257E+02  0.70000128917E+02 0.  0.
         12    1    1    2    0    0 -0.78540071888E+01 -0.16995551511E+02  0.37584974343E+00  0.18726330743E+02  0.00000000000E+00 0. -1.
         11    1    3    3    0    0  0.21168230051E+02  0.12609692982E+02 -0.48410554542E+01  0.25110438840E+02  0.51100000000E-03 0.  1.
        -11    1    3    3    0    0  0.52432260760E+01 -0.11655673254E+02 -0.12221634315E+02  0.17683735021E+02  0.51100000000E-03 0. -1.
        -12    1    3    3    0    0 -0.18557448938E+02  0.16041531782E+02  0.16686840026E+02  0.29667495396E+02  0.00000000000E+00 0.  1.
</event>
<event>
 7    1  0.3162486E-013  0.7246160E+02  0.7816164E-02  0.1226708E+00
        -11   -1    0    0    0    0  0.00000000000E+00  0.00000000000E+00  0.45593999997E+02  0.45594000000E+02  0.51100000000E-03 0. -1.
         11   -1    0    0    0    0 -0.00000000000E+00 -0.00000000000E+00 -0.45593999997E+02  0.45594000000E+02  0.51100000000E-03 0.  1.
    9900012    2    1    2    0    0  0.21434441035E+01 -0.15180560809E+01 -0.18541286066E+02  0.72461597893E+02  0.70000035952E+02 0.  0.
         12    1    1    2    0    0 -0.21434441035E+01  0.15180560809E+01  0.18541286066E+02  0.18726402107E+02  0.00000000000E+00 0. -1.
         11    1    3    3    0    0  0.16791824699E+01  0.49803059164E+01  0.20855479159E+02  0.21507536168E+02  0.51100000000E-03 0. -1.
        -11    1    3    3    0    0 -0.73854078445E+01 -0.77742353630E+01  0.40350485579E-01  0.10723087845E+02  0.51100000000E-03 0.  1.
        -12    1    3    3    0    0  0.78496694781E+01  0.12758733657E+01 -0.39437115711E+02  0.40230973880E+02  0.00000000000E+00 0.  1.
</event>
<event>
 7    1  0.3162486E-013  0.7246155E+02  0.7816164E-02  0.1226708E+00
        -11   -1    0    0    0    0  0.00000000000E+00  0.00000000000E+00  0.45593999997E+02  0.45594000000E+02  0.51100000000E-03 0. -1.
         11   -1    0    0    0    0 -0.00000000000E+00 -0.00000000000E+00 -0.45593999997E+02  0.45594000000E+02  0.51100000000E-03 0.  1.
    9900012    2    1    2    0    0 -0.18694418030E+02  0.10207425746E+01 -0.39568371998E+00  0.72461554889E+02  0.69999979932E+02 0.  0.
         12    1    1    2    0    0  0.18694418030E+02 -0.10207425746E+01  0.39568371998E+00  0.18726445111E+02  0.00000000000E+00 0. -1.
         11    1    3    3    0    0  0.69290487874E+01  0.26469162339E+01  0.98671775874E+01  0.12344192013E+02  0.51100000000E-03 0. -1.
        -11    1    3    3    0    0  0.10601939256E+02  0.15734911629E+02 -0.48513653647E+01  0.19583776606E+02  0.51100000000E-03 0.  1.
        -12    1    3    3    0    0 -0.36225406074E+02 -0.17361085288E+02 -0.54114959427E+01  0.40533586271E+02  0.00000000000E+00 0.  1.
</event>
<event>
 7    1  0.3162486E-013  0.7246141E+02  0.7816164E-02  0.1226708E+00
        -11   -1    0    0    0    0  0.00000000000E+00  0.00000000000E+00  0.45593999997E+02  0.45594000000E+02  0.51100000000E-03 0.  1.
         11   -1    0    0    0    0 -0.00000000000E+00 -0.00000000000E+00 -0.45593999997E+02  0.45594000000E+02  0.51100000000E-03 0. -1.
    9900012    2    1    2    0    0 -0.80805061823E+01  0.10564004617E+01  0.16860443723E+02  0.72461411292E+02  0.69999792870E+02 0.  0.
         12    1    1    2    0    0  0.80805061823E+01 -0.10564004617E+01 -0.16860443723E+02  0.18726588708E+02  0.00000000000E+00 0. -1.
         11    1    3    3    0    0 -0.96933619954E+01 -0.12754043333E+02  0.43553092549E+01  0.16601072467E+02  0.51100000000E-03 0. -1.
        -11    1    3    3    0    0 -0.18764161857E+02 -0.64257343750E+01  0.17809694998E+02  0.26656501433E+02  0.51100000000E-03 0.  1.
         12    1    3    3    0    0  0.20377017670E+02  0.20236178169E+02 -0.53045605301E+01  0.29203837392E+02  0.00000000000E+00 0. -1.
</event>
<event>
 7    1  0.3162486E-013  0.7246152E+02  0.7816164E-02  0.1226708E+00
        -11   -1    0    0    0    0  0.00000000000E+00  0.00000000000E+00  0.45593999997E+02  0.45594000000E+02  0.51100000000E-03 0. -1.
         11   -1    0    0    0    0 -0.00000000000E+00 -0.00000000000E+00 -0.45593999997E+02  0.45594000000E+02  0.51100000000E-03 0.  1.
    9900012    2    1    2    0    0 -0.94803935491E+01  0.15910883194E+02 -0.27653483241E+01  0.72461515620E+02  0.69999928777E+02 0.  0.
         12    1    1    2    0    0  0.94803935491E+01 -0.15910883194E+02  0.27653483241E+01  0.18726484380E+02  0.00000000000E+00 0. -1.
         11    1    3    3    0    0  0.62013148844E+00  0.12977138275E+02  0.12863216388E+02  0.18282587809E+02  0.51100000000E-03 0. -1.
        -11    1    3    3    0    0 -0.50248913696E+01  0.26365194798E+02 -0.27940199612E+01  0.26984802720E+02  0.51100000000E-03 0.  1.
        -12    1    3    3    0    0 -0.50756336680E+01 -0.23431449879E+02 -0.12834544751E+02  0.27194125092E+02  0.00000000000E+00 0.  1.
</event>
<event>
 7    1  0.3162486E-013  0.7246157E+02  0.7816164E-02  0.1226708E+00
        -11   -1    0    0    0    0  0.00000000000E+00  0.00000000000E+00  0.45593999997E+02  0.45594000000E+02  0.51100000000E-03 0.  1.
         11   -1    0    0    0    0 -0.00000000000E+00 -0.00000000000E+00 -0.45593999997E+02  0.45594000000E+02  0.51100000000E-03 0. -1.
    9900012    2    1    2    0    0  0.21068151035E+00  0.88967664106E+00  0.18704095310E+02  0.72461572348E+02  0.70000002676E+02 0.  0.
         12    1    1    2    0    0 -0.21068151035E+00 -0.88967664106E+00 -0.18704095310E+02  0.18726427652E+02  0.00000000000E+00 0. -1.
         11    1    3    3    0    0  0.19607949917E+02  0.12349927320E+02 -0.12220039005E+01  0.23205294623E+02  0.51100000000E-03 0. -1.
        -11    1    3    3    0    0 -0.40200459309E+00  0.25793649895E+01  0.24967589650E+02  0.25103690259E+02  0.51100000000E-03 0.  1.
         12    1    3    3    0    0 -0.18995263814E+02 -0.14039615668E+02 -0.50414904389E+01  0.24152587466E+02  0.00000000000E+00 0. -1.
</event>
<event>
 7    1  0.3162486E-013  0.7246157E+02  0.7816164E-02  0.1226708E+00
        -11   -1    0    0    0    0  0.00000000000E+00  0.00000000000E+00  0.45593999997E+02  0.45594000000E+02  0.51100000000E-03 0.  1.
         11   -1    0    0    0    0 -0.00000000000E+00 -0.00000000000E+00 -0.45593999997E+02  0.45594000000E+02  0.51100000000E-03 0. -1.
    9900012    2    1    2    0    0  0.18017797106E+02  0.94670490023E+00  0.50141835415E+01  0.72461566829E+02  0.69999995486E+02 0.  0.
         12    1    1    2    0    0 -0.18017797106E+02 -0.94670490023E+00 -0.50141835415E+01  0.18726433171E+02  0.00000000000E+00 0. -1.
         11    1    3    3    0    0  0.45198687524E+01 -0.15286912354E+02  0.13881782077E+02  0.21138182910E+02  0.51100000000E-03 0. -1.
        -11    1    3    3    0    0  0.22314375307E+02 -0.85259223970E+01 -0.73681474962E+01  0.24998245856E+02  0.51100000000E-03 0.  1.
         12    1    3    3    0    0 -0.88164469536E+01  0.24759539651E+02 -0.14994510391E+01  0.26325138063E+02  0.00000000000E+00 0. -1.
</event>
<event>
 7    1  0.3162486E-013  0.7246159E+02  0.7816164E-02  0.1226708E+00
        -11   -1    0    0    0    0  0.00000000000E+00  0.00000000000E+00  0.45593999997E+02  0.45594000000E+02  0.51100000000E-03 0.  1.
         11   -1    0    0    0    0 -0.00000000000E+00 -0.00000000000E+00 -0.45593999997E+02  0.45594000000E+02  0.51100000000E-03 0. -1.
    9900012    2    1    2    0    0 -0.16761838516E+02  0.53220017850E+01 -0.64339384454E+01  0.72461588241E+02  0.70000023379E+02 0.  0.
         12    1    1    2    0    0  0.16761838516E+02 -0.53220017850E+01  0.64339384454E+01  0.18726411759E+02  0.00000000000E+00 0. -1.
         11    1    3    3    0    0 -0.58909825359E+01 -0.14887797061E+02  0.35049025617E+01  0.16390073789E+02  0.51100000000E-03 0. -1.
        -11    1    3    3    0    0 -0.17823104455E+02  0.20646211951E+02  0.14338678648E+02  0.30814393162E+02  0.51100000000E-03 0.  1.
         12    1    3    3    0    0  0.69522484746E+01 -0.43641310479E+00 -0.24277519655E+02  0.25257121290E+02  0.00000000000E+00 0. -1.
</event>
<event>
 7    1  0.3162486E-013  0.7246156E+02  0.7816164E-02  0.1226708E+00
        -11   -1    0    0    0    0  0.00000000000E+00  0.00000000000E+00  0.45593999997E+02  0.45594000000E+02  0.51100000000E-03 0. -1.
         11   -1    0    0    0    0 -0.00000000000E+00 -0.00000000000E+00 -0.45593999997E+02  0.45594000000E+02  0.51100000000E-03 0.  1.
    9900012    2    1    2    0    0 -0.15724021079E+02  0.98883035574E+01 -0.23782860163E+01  0.72461557986E+02  0.69999983966E+02 0.  0.
         12    1    1    2    0    0  0.15724021079E+02 -0.98883035574E+01  0.23782860163E+01  0.18726442014E+02  0.00000000000E+00 0. -1.
         11    1    3    3    0    0 -0.88360883046E+00  0.14435733565E+01 -0.15677778564E+01  0.23070752630E+01  0.51100000000E-03 0. -1.
        -11    1    3    3    0    0 -0.10077260589E+02 -0.65550670205E+01 -0.32565479431E+02  0.34713549738E+02  0.51100000000E-03 0.  1.
         12    1    3    3    0    0 -0.47631516599E+01  0.14999797221E+02  0.31754971271E+02  0.35440932984E+02  0.00000000000E+00 0. -1.
</event>
<event>
 7    1  0.3162486E-013  0.7246157E+02  0.7816164E-02  0.1226708E+00
        -11   -1    0    0    0    0  0.00000000000E+00  0.00000000000E+00  0.45593999997E+02  0.45594000000E+02  0.51100000000E-03 0.  1.
         11   -1    0    0    0    0 -0.00000000000E+00 -0.00000000000E+00 -0.45593999997E+02  0.45594000000E+02  0.51100000000E-03 0. -1.
    9900012    2    1    2    0    0 -0.11106887212E+02  0.55200545148E+01  0.14030150651E+02  0.72461572880E+02  0.70000003368E+02 0.  0.
         12    1    1    2    0    0  0.11106887212E+02 -0.55200545148E+01 -0.14030150651E+02  0.18726427120E+02  0.00000000000E+00 0. -1.
         11    1    3    3    0    0 -0.76278137162E+01 -0.15269328161E+02  0.73861591578E+00  0.17084539160E+02  0.51100000000E-03 0.  1.
        -11    1    3    3    0    0 -0.11818368095E+02  0.35183933465E+02  0.95828356950E+01  0.38332932822E+02  0.51100000000E-03 0. -1.
         12    1    3    3    0    0  0.83392945985E+01 -0.14394550790E+02  0.37086990404E+01  0.17044100898E+02  0.00000000000E+00 0. -1.
</event>
<event>
 7    1  0.3162486E-013  0.7246160E+02  0.7816164E-02  0.1226708E+00
        -11   -1    0    0    0    0  0.00000000000E+00  0.00000000000E+00  0.45593999997E+02  0.45594000000E+02  0.51100000000E-03 0. -1.
         11   -1    0    0    0    0 -0.00000000000E+00 -0.00000000000E+00 -0.45593999997E+02  0.45594000000E+02  0.51100000000E-03 0.  1.
    9900012    2    1    2    0    0  0.13966427735E+02 -0.54361316223E+01 -0.11227887761E+02  0.72461599004E+02  0.70000037399E+02 0.  0.
         12    1    1    2    0    0 -0.13966427735E+02  0.54361316223E+01  0.11227887761E+02  0.18726400996E+02  0.00000000000E+00 0. -1.
         11    1    3    3    0    0  0.15230853278E+02 -0.97463873917E+01  0.47908283195E+01  0.18706228776E+02  0.51100000000E-03 0. -1.
        -11    1    3    3    0    0 -0.15832687868E+02 -0.13318756048E+02  0.64733687095E+01  0.21678740058E+02  0.51100000000E-03 0.  1.
         12    1    3    3    0    0  0.14568262325E+02  0.17629011817E+02 -0.22492084790E+02  0.32076630169E+02  0.00000000000E+00 0. -1.
</event>
<event>
 7    1  0.3162486E-013  0.7246156E+02  0.7816164E-02  0.1226708E+00
        -11   -1    0    0    0    0  0.00000000000E+00  0.00000000000E+00  0.45593999997E+02  0.45594000000E+02  0.51100000000E-03 0. -1.
         11   -1    0    0    0    0 -0.00000000000E+00 -0.00000000000E+00 -0.45593999997E+02  0.45594000000E+02  0.51100000000E-03 0.  1.
    9900012    2    1    2    0    0  0.98900076512E+01  0.15887903409E+02  0.66463766834E+00  0.72461562290E+02  0.69999989573E+02 0.  0.
         12    1    1    2    0    0 -0.98900076512E+01 -0.15887903409E+02 -0.66463766834E+00  0.18726437710E+02  0.00000000000E+00 0. -1.
         11    1    3    3    0    0 -0.34384314387E+01 -0.15044867378E+02 -0.16320784086E+02  0.22461942004E+02  0.51100000000E-03 0. -1.
        -11    1    3    3    0    0  0.83822760596E+01  0.22871245922E+01 -0.78923880350E+01  0.11738112284E+02  0.51100000000E-03 0.  1.
        -12    1    3    3    0    0  0.49461630303E+01  0.28645646195E+02  0.24877809789E+02  0.38261508001E+02  0.00000000000E+00 0.  1.
</event>
<event>
 7    1  0.3162486E-013  0.7246158E+02  0.7816164E-02  0.1226708E+00
        -11   -1    0    0    0    0  0.00000000000E+00  0.00000000000E+00  0.45593999997E+02  0.45594000000E+02  0.51100000000E-03 0.  1.
         11   -1    0    0    0    0 -0.00000000000E+00 -0.00000000000E+00 -0.45593999997E+02  0.45594000000E+02  0.51100000000E-03 0. -1.
    9900012    2    1    2    0    0 -0.61651206123E+01 -0.32416731490E+01  0.17382792342E+02  0.72461584791E+02  0.70000018885E+02 0.  0.
         12    1    1    2    0    0  0.61651206123E+01  0.32416731490E+01 -0.17382792342E+02  0.18726415209E+02  0.00000000000E+00 0. -1.
         11    1    3    3    0    0 -0.11199081707E+01 -0.60322083122E+01  0.11084979030E+01  0.62346210225E+01  0.51100000000E-03 0. -1.
        -11    1    3    3    0    0  0.58899711480E+00 -0.21394030990E+02 -0.15116086095E+02  0.26202052184E+02  0.51100000000E-03 0.  1.
         12    1    3    3    0    0 -0.56342095564E+01  0.24184566153E+02  0.31390380533E+02  0.40024911585E+02  0.00000000000E+00 0. -1.
</event>
<event>
 7    1  0.3162486E-013  0.7246156E+02  0.7816164E-02  0.1226708E+00
        -11   -1    0    0    0    0  0.00000000000E+00  0.00000000000E+00  0.45593999997E+02  0.45594000000E+02  0.51100000000E-03 0. -1.
         11   -1    0    0    0    0 -0.00000000000E+00 -0.00000000000E+00 -0.45593999997E+02  0.45594000000E+02  0.51100000000E-03 0.  1.
    9900012    2    1    2    0    0  0.44630292206E+01  0.39077647317E+01 -0.17762047482E+02  0.72461559180E+02  0.69999985521E+02 0.  0.
         12    1    1    2    0    0 -0.44630292206E+01 -0.39077647317E+01  0.17762047482E+02  0.18726440820E+02  0.00000000000E+00 0. -1.
         11    1    3    3    0    0  0.15110844356E+02 -0.22820752172E+02  0.10655569674E+01  0.27390869989E+02  0.51100000000E-03 0. -1.
        -11    1    3    3    0    0 -0.30186808958E+01 -0.62404158699E+01 -0.48348490373E+01  0.84516856339E+01  0.51100000000E-03 0.  1.
        -12    1    3    3    0    0 -0.76291342394E+01  0.32968932774E+02 -0.13992755413E+02  0.36619003557E+02  0.00000000000E+00 0.  1.
</event>
<event>
 7    1  0.3162486E-013  0.7246157E+02  0.7816164E-02  0.1226708E+00
        -11   -1    0    0    0    0  0.00000000000E+00  0.00000000000E+00  0.45593999997E+02  0.45594000000E+02  0.51100000000E-03 0. -1.
         11   -1    0    0    0    0 -0.00000000000E+00 -0.00000000000E+00 -0.45593999997E+02  0.45594000000E+02  0.51100000000E-03 0.  1.
    9900012    2    1    2    0    0 -0.14206692337E+02  0.11087400758E+02 -0.50910379045E+01  0.72461568688E+02  0.69999997908E+02 0.  0.
         12    1    1    2    0    0  0.14206692337E+02 -0.11087400758E+02  0.50910379045E+01  0.18726431312E+02  0.00000000000E+00 0. -1.
         11    1    3    3    0    0  0.17451487107E+02 -0.17425719568E+02 -0.60050319486E+01  0.25382484388E+02  0.51100000000E-03 0. -1.
        -11    1    3    3    0    0 -0.28167495636E+01  0.69227445376E+01  0.73487819895E+01  0.10481558426E+02  0.51100000000E-03 0.  1.
        -12    1    3    3    0    0 -0.28841429881E+02  0.21590375788E+02 -0.64347879454E+01  0.36597525875E+02  0.00000000000E+00 0.  1.
</event>
<event>
 7    1  0.3162486E-013  0.7246158E+02  0.7816164E-02  0.1226708E+00
        -11   -1    0    0    0    0  0.00000000000E+00  0.00000000000E+00  0.45593999997E+02  0.45594000000E+02  0.51100000000E-03 0. -1.
         11   -1    0    0    0    0 -0.00000000000E+00 -0.00000000000E+00 -0.45593999997E+02  0.45594000000E+02  0.51100000000E-03 0.  1.
    9900012    2    1    2    0    0 -0.68033295074E+01 -0.13180153696E+02 -0.11431398685E+02  0.72461584974E+02  0.70000019122E+02 0.  0.
         12    1    1    2    0    0  0.68033295074E+01  0.13180153696E+02  0.11431398685E+02  0.18726415026E+02  0.00000000000E+00 0. -1.
         11    1    3    3    0    0  0.26119182123E+01 -0.39912614405E+01  0.70771021609E+01  0.85344982214E+01  0.51100000000E-03 0. -1.
        -11    1    3    3    0    0  0.87371339697E+01  0.22453331939E+02 -0.29678178432E+01  0.24275451966E+02  0.51100000000E-03 0.  1.
        -12    1    3    3    0    0 -0.18152381689E+02 -0.31642224195E+02 -0.15540683003E+02  0.39651634786E+02  0.00000000000E+00 0.  1.
</event>
<event>
 7    1  0.3162486E-013  0.7246159E+02  0.7816164E-02  0.1226708E+00
        -11   -1    0    0    0    0  0.00000000000E+00  0.00000000000E+00  0.45593999997E+02  0.45594000000E+02  0.51100000000E-03 0.  1.
         11   -1    0    0    0    0 -0.00000000000E+00 -0.00000000000E+00 -0.45593999997E+02  0.45594000000E+02  0.51100000000E-03 0. -1.
    9900012    2    1    2    0    0 -0.11309546516E+02 -0.93120065973E+01  0.11664434018E+02  0.72461592703E+02  0.70000029192E+02 0.  0.
         12    1    1    2    0    0  0.11309546516E+02  0.93120065973E+01 -0.11664434018E+02  0.18726407297E+02  0.00000000000E+00 0. -1.
         11    1    3    3    0    0  0.22533022941E+01  0.15744948799E+02 -0.69748342389E+01  0.17367472379E+02  0.51100000000E-03 0. -1.
        -11    1    3    3    0    0  0.11842409941E+02 -0.91762660636E+01  0.20134220622E+02  0.25096481276E+02  0.51100000000E-03 0.  1.
         12    1    3    3    0    0 -0.25405258752E+02 -0.15880689333E+02 -0.14949523653E+01  0.29997639049E+02  0.00000000000E+00 0. -1.
</event>
<event>
 7    1  0.3162486E-013  0.7246157E+02  0.7816164E-02  0.1226708E+00
        -11   -1    0    0    0    0  0.00000000000E+00  0.00000000000E+00  0.45593999997E+02  0.45594000000E+02  0.51100000000E-03 0. -1.
         11   -1    0    0    0    0 -0.00000000000E+00 -0.00000000000E+00 -0.45593999997E+02  0.45594000000E+02  0.51100000000E-03 0.  1.
    9900012    2    1    2    0    0 -0.29151849415E+01 -0.16326892707E+02 -0.86956090286E+01  0.72461565607E+02  0.69999993894E+02 0.  0.
         12    1    1    2    0    0  0.29151849415E+01  0.16326892707E+02  0.86956090286E+01  0.18726434393E+02  0.00000000000E+00 0. -1.
         11    1    3    3    0    0 -0.22127468475E+01 -0.14409140035E+01  0.75566990977E+00  0.27465467500E+01  0.51100000000E-03 0. -1.
        -11    1    3    3    0    0 -0.28685709335E+02  0.72334253514E+01  0.70518927765E+01  0.30412522985E+02  0.51100000000E-03 0.  1.
         12    1    3    3    0    0  0.27983271241E+02 -0.22119404055E+02 -0.16503171715E+02  0.39302495871E+02  0.00000000000E+00 0. -1.
</event>
<event>
 7    1  0.3162486E-013  0.7246156E+02  0.7816164E-02  0.1226708E+00
        -11   -1    0    0    0    0  0.00000000000E+00  0.00000000000E+00  0.45593999997E+02  0.45594000000E+02  0.51100000000E-03 0.  1.
         11   -1    0    0    0    0 -0.00000000000E+00 -0.00000000000E+00 -0.45593999997E+02  0.45594000000E+02  0.51100000000E-03 0. -1.
    9900012    2    1    2    0    0  0.89440374670E+01 -0.12393921815E+02 -0.10820102616E+02  0.72461555468E+02  0.69999980687E+02 0.  0.
         12    1    1    2    0    0 -0.89440374670E+01  0.12393921815E+02  0.10820102616E+02  0.18726444532E+02  0.00000000000E+00 0. -1.
         11    1    3    3    0    0 -0.93516873008E+01  0.20721370332E+02  0.10384404072E+02  0.24993300943E+02  0.51100000000E-03 0. -1.
        -11    1    3    3    0    0  0.37751272692E+01  0.19915999256E+01 -0.36552119291E+01  0.56194866910E+01  0.51100000000E-03 0.  1.
        -12    1    3    3    0    0  0.14520597499E+02 -0.35106892073E+02 -0.17549294759E+02  0.41848767835E+02  0.00000000000E+00 0.  1.
</event>
<event>
 7    1  0.3162486E-013  0.7246160E+02  0.7816164E-02  0.1226708E+00
        -11   -1    0    0    0    0  0.00000000000E+00  0.00000000000E+00  0.45593999997E+02  0.45594000000E+02  0.51100000000E-03 0. -1.
         11   -1    0    0    0    0 -0.00000000000E+00 -0.00000000000E+00 -0.45593999997E+02  0.45594000000E+02  0.51100000000E-03 0.  1.
    9900012    2    1    2    0    0 -0.36401859766E+01  0.10638626067E+02 -0.14974869618E+02  0.72461600490E+02  0.70000039335E+02 0.  0.
         12    1    1    2    0    0  0.36401859766E+01 -0.10638626067E+02  0.14974869618E+02  0.18726399510E+02  0.00000000000E+00 0. -1.
         11    1    3    3    0    0 -0.13282010349E+02  0.64963586057E+01  0.89717851532E+01  0.17294721829E+02  0.51100000000E-03 0. -1.
        -11    1    3    3    0    0  0.99980044050E+01  0.88734324643E+00  0.13918624173E+02  0.17160290477E+02  0.51100000000E-03 0.  1.
        -12    1    3    3    0    0 -0.35618003242E+00  0.32549242153E+01 -0.37865278944E+02  0.38006588184E+02  0.00000000000E+00 0.  1.
</event>
<event>
 7    1  0.3162486E-013  0.7246149E+02  0.7816164E-02  0.1226708E+00
        -11   -1    0    0    0    0  0.00000000000E+00  0.00000000000E+00  0.45593999997E+02  0.45594000000E+02  0.51100000000E-03 0. -1.
         11   -1    0    0    0    0 -0.00000000000E+00 -0.00000000000E+00 -0.45593999997E+02  0.45594000000E+02  0.51100000000E-03 0.  1.
    9900012    2    1    2    0    0 -0.15845152477E+02 -0.26158673298E+01  0.96317538928E+01  0.72461486657E+02  0.69999891047E+02 0.  0.
         12    1    1    2    0    0  0.15845152477E+02  0.26158673298E+01 -0.96317538928E+01  0.18726513343E+02  0.00000000000E+00 0. -1.
         11    1    3    3    0    0 -0.19570645877E+02  0.19722337002E+02  0.17405337211E+02  0.32786072052E+02  0.51100000000E-03 0. -1.
        -11    1    3    3    0    0 -0.24074600704E+01  0.74994039017E+01  0.10882195717E+01  0.79511725531E+01  0.51100000000E-03 0.  1.
        -12    1    3    3    0    0  0.61329534706E+01 -0.29837608233E+02 -0.88618028902E+01  0.31724242053E+02  0.00000000000E+00 0.  1.
</event>
<event>
 7    1  0.3162486E-013  0.7246154E+02  0.7816164E-02  0.1226708E+00
        -11   -1    0    0    0    0  0.00000000000E+00  0.00000000000E+00  0.45593999997E+02  0.45594000000E+02  0.51100000000E-03 0.  1.
         11   -1    0    0    0    0 -0.00000000000E+00 -0.00000000000E+00 -0.45593999997E+02  0.45594000000E+02  0.51100000000E-03 0. -1.
    9900012    2    1    2    0    0 -0.58213753899E+01 -0.29670832103E+01  0.17549600943E+02  0.72461535105E+02  0.69999954159E+02 0.  0.
         12    1    1    2    0    0  0.58213753899E+01  0.29670832103E+01 -0.17549600943E+02  0.18726464895E+02  0.00000000000E+00 0. -1.
         11    1    3    3    0    0 -0.25156469743E+02  0.10790755488E+01 -0.26350332546E+01  0.25317104386E+02  0.51100000000E-03 0. -1.
        -11    1    3    3    0    0 -0.80592971155E+01  0.74478451267E+01  0.12143820296E+02  0.16367499463E+02  0.51100000000E-03 0.  1.
         12    1    3    3    0    0  0.27394391469E+02 -0.11494003886E+02  0.80408139020E+01  0.30776931255E+02  0.00000000000E+00 0. -1.
</event>
<event>
 7    1  0.3162486E-013  0.7246170E+02  0.7816164E-02  0.1226708E+00
        -11   -1    0    0    0    0  0.00000000000E+00  0.00000000000E+00  0.45593999997E+02  0.45594000000E+02  0.51100000000E-03 0. -1.
         11   -1    0    0    0    0 -0.00000000000E+00 -0.00000000000E+00 -0.45593999997E+02  0.45594000000E+02  0.51100000000E-03 0.  1.
    9900012    2    1    2    0    0 -0.82923158833E+01  0.16690668762E+02 -0.18257763003E+01  0.72461698028E+02  0.70000166397E+02 0.  0.
         12    1    1    2    0    0  0.82923158833E+01 -0.16690668762E+02  0.18257763003E+01  0.18726301972E+02  0.00000000000E+00 0. -1.
         11    1    3    3    0    0  0.12782085428E+02  0.18968529663E+02 -0.60608010708E+01  0.23662631623E+02  0.51100000000E-03 0. -1.
        -11    1    3    3    0    0  0.13672813861E+02 -0.21664805390E+01  0.19019467274E+01  0.13973434739E+02  0.51100000000E-03 0.  1.
        -12    1    3    3    0    0 -0.34747215172E+02 -0.11138036171E+00  0.23330780431E+01  0.34825631666E+02  0.00000000000E+00 0.  1.
</event>
<event>
 7    1  0.3162486E-013  0.7246159E+02  0.7816164E-02  0.1226708E+00
        -11   -1    0    0    0    0  0.00000000000E+00  0.00000000000E+00  0.45593999997E+02  0.45594000000E+02  0.51100000000E-03 0. -1.
         11   -1    0    0    0    0 -0.00000000000E+00 -0.00000000000E+00 -0.45593999997E+02  0.45594000000E+02  0.51100000000E-03 0.  1.
    9900012    2    1    2    0    0 -0.13549772228E+02  0.12444186379E+02 -0.34963236099E+01  0.72461591352E+02  0.70000027431E+02 0.  0.
         12    1    1    2    0    0  0.13549772228E+02 -0.12444186379E+02  0.34963236099E+01  0.18726408648E+02  0.00000000000E+00 0. -1.
         11    1    3    3    0    0 -0.62985575676E+01  0.17375549603E+02 -0.30704365518E+01  0.18735237717E+02  0.51100000000E-03 0. -1.
        -11    1    3    3    0    0 -0.12833630827E+01  0.22148475008E+02 -0.10074662754E+02  0.24365976193E+02  0.51100000000E-03 0.  1.
         12    1    3    3    0    0 -0.59678515777E+01 -0.27079838231E+02  0.96487756959E+01  0.29360377442E+02  0.00000000000E+00 0. -1.
</event>
<event>
 7    1  0.3162486E-013  0.7246157E+02  0.7816164E-02  0.1226708E+00
        -11   -1    0    0    0    0  0.00000000000E+00  0.00000000000E+00  0.45593999997E+02  0.45594000000E+02  0.51100000000E-03 0. -1.
         11   -1    0    0    0    0 -0.00000000000E+00 -0.00000000000E+00 -0.45593999997E+02  0.45594000000E+02  0.51100000000E-03 0.  1.
    9900012    2    1    2    0    0 -0.12047191885E+02  0.13235476220E+02 -0.55105661286E+01  0.72461574763E+02  0.70000005822E+02 0.  0.
         12    1    1    2    0    0  0.12047191885E+02 -0.13235476220E+02  0.55105661286E+01  0.18726425237E+02  0.00000000000E+00 0. -1.
         11    1    3    3    0    0  0.36866287157E+01 -0.16828398554E+02 -0.10230771311E+02  0.20036339762E+02  0.51100000000E-03 0. -1.
        -11    1    3    3    0    0  0.26969308048E+01 -0.75985353848E+01  0.66486256665E+01  0.10450617172E+02  0.51100000000E-03 0.  1.
        -12    1    3    3    0    0 -0.18430751405E+02  0.37662410159E+02 -0.19284204839E+01  0.41974617829E+02  0.00000000000E+00 0.  1.
</event>
<event>
 7    1  0.3162486E-013  0.7246158E+02  0.7816164E-02  0.1226708E+00
        -11   -1    0    0    0    0  0.00000000000E+00  0.00000000000E+00  0.45593999997E+02  0.45594000000E+02  0.51100000000E-03 0. -1.
         11   -1    0    0    0    0 -0.00000000000E+00 -0.00000000000E+00 -0.45593999997E+02  0.45594000000E+02  0.51100000000E-03 0.  1.
    9900012    2    1    2    0    0  0.18159281609E+01 -0.20710627786E+01 -0.18522743771E+02  0.72461576611E+02  0.70000008229E+02 0.  0.
         12    1    1    2    0    0 -0.18159281609E+01  0.20710627786E+01  0.18522743771E+02  0.18726423389E+02  0.00000000000E+00 0. -1.
         11    1    3    3    0    0 -0.36151522138E+01 -0.83999064953E+01 -0.10923237576E+02  0.14245872176E+02  0.51100000000E-03 0. -1.
        -11    1    3    3    0    0 -0.19322406474E+02 -0.90533626328E+01  0.10631042018E+02  0.23839836861E+02  0.51100000000E-03 0.  1.
        -12    1    3    3    0    0  0.24753486849E+02  0.15382206350E+02 -0.18230548213E+02  0.34375867575E+02  0.00000000000E+00 0.  1.
</event>
<event>
 7    1  0.3162486E-013  0.7246215E+02  0.7816164E-02  0.1226706E+00
        -11   -1    0    0    0    0  0.00000000000E+00  0.00000000000E+00  0.45593999997E+02  0.45594000000E+02  0.51100000000E-03 0. -1.
         11   -1    0    0    0    0 -0.00000000000E+00 -0.00000000000E+00 -0.45593999997E+02  0.45594000000E+02  0.51100000000E-03 0.  1.
    9900012    2    1    2    0    0 -0.36524685846E+01 -0.78247148474E+01 -0.16615981422E+02  0.72462148142E+02  0.70000752750E+02 0.  0.
         12    1    1    2    0    0  0.36524685846E+01  0.78247148474E+01  0.16615981422E+02  0.18725851858E+02  0.00000000000E+00 0. -1.
         11    1    3    3    0    0  0.70223173309E+00 -0.11243308849E+02 -0.31943757014E+01  0.11709362052E+02  0.51100000000E-03 0. -1.
        -11    1    3    3    0    0 -0.35083666007E+00 -0.23249180834E+02 -0.22443932336E+02  0.32316831447E+02  0.51100000000E-03 0.  1.
         12    1    3    3    0    0 -0.40038636576E+01  0.26667774836E+02  0.90223266160E+01  0.28435954643E+02  0.00000000000E+00 0. -1.
</event>
<event>
 7    1  0.3162486E-013  0.7246151E+02  0.7816164E-02  0.1226708E+00
        -11   -1    0    0    0    0  0.00000000000E+00  0.00000000000E+00  0.45593999997E+02  0.45594000000E+02  0.51100000000E-03 0.  1.
         11   -1    0    0    0    0 -0.00000000000E+00 -0.00000000000E+00 -0.45593999997E+02  0.45594000000E+02  0.51100000000E-03 0. -1.
    9900012    2    1    2    0    0  0.60287692535E+01 -0.16525111958E+02  0.64230907625E+01  0.72461508634E+02  0.69999919676E+02 0.  0.
         12    1    1    2    0    0 -0.60287692535E+01  0.16525111958E+02 -0.64230907625E+01  0.18726491366E+02  0.00000000000E+00 0. -1.
         11    1    3    3    0    0  0.67986285020E+01  0.45988484855E+00  0.18854381612E+01  0.70701994953E+01  0.51100000000E-03 0. -1.
        -11    1    3    3    0    0  0.28264139288E+02  0.89195075548E+00  0.11610820878E+02  0.30569074365E+02  0.51100000000E-03 0.  1.
         12    1    3    3    0    0 -0.29033998536E+02 -0.17876947562E+02 -0.70731682769E+01  0.34822234773E+02  0.00000000000E+00 0. -1.
</event>
<event>
 7    1  0.3162486E-013  0.7246164E+02  0.7816164E-02  0.1226708E+00
        -11   -1    0    0    0    0  0.00000000000E+00  0.00000000000E+00  0.45593999997E+02  0.45594000000E+02  0.51100000000E-03 0.  1.
         11   -1    0    0    0    0 -0.00000000000E+00 -0.00000000000E+00 -0.45593999997E+02  0.45594000000E+02  0.51100000000E-03 0. -1.
    9900012    2    1    2    0    0 -0.74767246113E+01 -0.11891130995E+02  0.12384517031E+02  0.72461637049E+02  0.70000086961E+02 0.  0.
         12    1    1    2    0    0  0.74767246113E+01  0.11891130995E+02 -0.12384517031E+02  0.18726362951E+02  0.00000000000E+00 0. -1.
         11    1    3    3    0    0 -0.19978639258E+02  0.50418131033E+01 -0.87982384682E+01  0.22404796504E+02  0.51100000000E-03 0. -1.
        -11    1    3    3    0    0 -0.11161920262E+02  0.57645768884E+01  0.60662662404E+01  0.13950569773E+02  0.51100000000E-03 0.  1.
         12    1    3    3    0    0  0.23663834909E+02 -0.22697520987E+02  0.15116489259E+02  0.36106270772E+02  0.00000000000E+00 0. -1.
</event>
<event>
 7    1  0.3162486E-013  0.7246164E+02  0.7816164E-02  0.1226708E+00
        -11   -1    0    0    0    0  0.00000000000E+00  0.00000000000E+00  0.45593999997E+02  0.45594000000E+02  0.51100000000E-03 0. -1.
         11   -1    0    0    0    0 -0.00000000000E+00 -0.00000000000E+00 -0.45593999997E+02  0.45594000000E+02  0.51100000000E-03 0.  1.
    9900012    2    1    2    0    0 -0.16330324785E+02 -0.81353682738E+01  0.42205145797E+01  0.72461642430E+02  0.70000093970E+02 0.  0.
         12    1    1    2    0    0  0.16330324785E+02  0.81353682738E+01 -0.42205145797E+01  0.18726357570E+02  0.00000000000E+00 0. -1.
         11    1    3    3    0    0 -0.15766076055E+02  0.33967234654E+00  0.82732548180E+01  0.17808180059E+02  0.51100000000E-03 0. -1.
        -11    1    3    3    0    0 -0.23227319113E+02 -0.16929743323E+02 -0.86834246602E+01  0.30025429660E+02  0.51100000000E-03 0.  1.
         12    1    3    3    0    0  0.22663070383E+02  0.84547027029E+01  0.46306844219E+01  0.24628032711E+02  0.00000000000E+00 0. -1.
</event>
<event>
 7    1  0.3162486E-013  0.7246144E+02  0.7816164E-02  0.1226708E+00
        -11   -1    0    0    0    0  0.00000000000E+00  0.00000000000E+00  0.45593999997E+02  0.45594000000E+02  0.51100000000E-03 0.  1.
         11   -1    0    0    0    0 -0.00000000000E+00 -0.00000000000E+00 -0.45593999997E+02  0.45594000000E+02  0.51100000000E-03 0. -1.
    9900012    2    1    2    0    0  0.15333609144E+02  0.21817825572E+00  0.10747874215E+02  0.72461442087E+02  0.69999832986E+02 0.  0.
         12    1    1    2    0    0 -0.15333609144E+02 -0.21817825572E+00 -0.10747874215E+02  0.18726557913E+02  0.00000000000E+00 0. -1.
         11    1    3    3    0    0  0.14663348319E+01 -0.21412317801E+02 -0.39484293730E+01  0.21822639305E+02  0.51100000000E-03 0. -1.
        -11    1    3    3    0    0  0.10999858906E+02 -0.58992472528E+01  0.18892943302E+02  0.22643792107E+02  0.51100000000E-03 0.  1.
         12    1    3    3    0    0  0.28674154063E+01  0.27529743310E+02 -0.41966397145E+01  0.27995010675E+02  0.00000000000E+00 0. -1.
</event>
<event>
 7    1  0.3162486E-013  0.7246158E+02  0.7816164E-02  0.1226708E+00
        -11   -1    0    0    0    0  0.00000000000E+00  0.00000000000E+00  0.45593999997E+02  0.45594000000E+02  0.51100000000E-03 0. -1.
         11   -1    0    0    0    0 -0.00000000000E+00 -0.00000000000E+00 -0.45593999997E+02  0.45594000000E+02  0.51100000000E-03 0.  1.
    9900012    2    1    2    0    0 -0.22467105302E+01  0.11091381157E+02 -0.14920204572E+02  0.72461576192E+02  0.70000007682E+02 0.  0.
         12    1    1    2    0    0  0.22467105302E+01 -0.11091381157E+02  0.14920204572E+02  0.18726423808E+02  0.00000000000E+00 0. -1.
         11    1    3    3    0    0 -0.20696282548E+02 -0.73523488209E+01 -0.69624164660E+01  0.23040581325E+02  0.51100000000E-03 0. -1.
        -11    1    3    3    0    0  0.46120103212E+01 -0.10428124527E+02 -0.12685853234E+02  0.17057177166E+02  0.51100000000E-03 0.  1.
        -12    1    3    3    0    0  0.13837561697E+02  0.28871854505E+02  0.47280651278E+01  0.32363817700E+02  0.00000000000E+00 0.  1.
</event>
<event>
 7    1  0.3162486E-013  0.7246156E+02  0.7816164E-02  0.1226708E+00
        -11   -1    0    0    0    0  0.00000000000E+00  0.00000000000E+00  0.45593999997E+02  0.45594000000E+02  0.51100000000E-03 0. -1.
         11   -1    0    0    0    0 -0.00000000000E+00 -0.00000000000E+00 -0.45593999997E+02  0.45594000000E+02  0.51100000000E-03 0.  1.
    9900012    2    1    2    0    0  0.13857556714E+02 -0.53990089764E+01 -0.11379731414E+02  0.72461562457E+02  0.69999989791E+02 0.  0.
         12    1    1    2    0    0 -0.13857556714E+02  0.53990089764E+01  0.11379731414E+02  0.18726437543E+02  0.00000000000E+00 0. -1.
         11    1    3    3    0    0 -0.10374158881E+02  0.93283928790E+01  0.21910413220E+01  0.14122420066E+02  0.51100000000E-03 0. -1.
        -11    1    3    3    0    0  0.44601823793E+01 -0.29768252397E+00  0.17911591829E+02  0.18460957825E+02  0.51100000000E-03 0.  1.
        -12    1    3    3    0    0  0.19771533215E+02 -0.14429719331E+02 -0.31482364564E+02  0.39878184565E+02  0.00000000000E+00 0.  1.
</event>
<event>
 7    1  0.3162486E-013  0.7246154E+02  0.7816164E-02  0.1226708E+00
        -11   -1    0    0    0    0  0.00000000000E+00  0.00000000000E+00  0.45593999997E+02  0.45594000000E+02  0.51100000000E-03 0. -1.
         11   -1    0    0    0    0 -0.00000000000E+00 -0.00000000000E+00 -0.45593999997E+02  0.45594000000E+02  0.51100000000E-03 0.  1.
    9900012    2    1    2    0    0  0.10205665800E+01 -0.21831339550E+00 -0.18697353512E+02  0.72461541573E+02  0.69999962585E+02 0.  0.
         12    1    1    2    0    0 -0.10205665800E+01  0.21831339550E+00  0.18697353512E+02  0.18726458427E+02  0.00000000000E+00 0. -1.
         11    1    3    3    0    0  0.26318592723E+02  0.37036493502E+01 -0.16498831268E+02  0.31282531466E+02  0.51100000000E-03 0. -1.
        -11    1    3    3    0    0  0.64006467840E+01  0.43979369150E+01 -0.31803873932E+01  0.83919599972E+01  0.51100000000E-03 0.  1.
        -12    1    3    3    0    0 -0.31698672927E+02 -0.83198996607E+01  0.98186514943E+00  0.32787050110E+02  0.00000000000E+00 0.  1.
</event>
<event>
 7    1  0.3162486E-013  0.7246150E+02  0.7816164E-02  0.1226708E+00
        -11   -1    0    0    0    0  0.00000000000E+00  0.00000000000E+00  0.45593999997E+02  0.45594000000E+02  0.51100000000E-03 0.  1.
         11   -1    0    0    0    0 -0.00000000000E+00 -0.00000000000E+00 -0.45593999997E+02  0.45594000000E+02  0.51100000000E-03 0. -1.
    9900012    2    1    2    0    0 -0.11896503291E+01 -0.15002410107E+02  0.11144241203E+02  0.72461503026E+02  0.69999912371E+02 0.  0.
         12    1    1    2    0    0  0.11896503291E+01  0.15002410107E+02 -0.11144241203E+02  0.18726496974E+02  0.00000000000E+00 0. -1.
         11    1    3    3    0    0 -0.29074158539E+02  0.35484965842E+00  0.21433210115E+01  0.29155212883E+02  0.51100000000E-03 0. -1.
        -11    1    3    3    0    0  0.21366198911E+02  0.40635958400E+01  0.29673423626E+01  0.21950680810E+02  0.51100000000E-03 0.  1.
        -12    1    3    3    0    0  0.65183092985E+01 -0.19420855606E+02  0.60335778285E+01  0.21355609333E+02  0.00000000000E+00 0.  1.
</event>
<event>
 7    1  0.3162486E-013  0.7246160E+02  0.7816164E-02  0.1226708E+00
        -11   -1    0    0    0    0  0.00000000000E+00  0.00000000000E+00  0.45593999997E+02  0.45594000000E+02  0.51100000000E-03 0.  1.
         11   -1    0    0    0    0 -0.00000000000E+00 -0.00000000000E+00 -0.45593999997E+02  0.45594000000E+02  0.51100000000E-03 0. -1.
    9900012    2    1    2    0    0  0.10592935252E+01 -0.15721660336E+02  0.10118560266E+02  0.72461602366E+02  0.70000041779E+02 0.  0.
         12    1    1    2    0    0 -0.10592935252E+01  0.15721660336E+02 -0.10118560266E+02  0.18726397634E+02  0.00000000000E+00 0. -1.
         11    1    3    3    0    0  0.12192897719E+01  0.24828148436E+01 -0.35502461027E+01  0.45005871557E+01  0.51100000000E-03 0. -1.
        -11    1    3    3    0    0 -0.29376835976E+02 -0.18752222241E+02 -0.17983129670E+01  0.34898112567E+02  0.51100000000E-03 0.  1.
         12    1    3    3    0    0  0.29216839730E+02  0.54774706160E+00  0.15467119336E+02  0.33062902643E+02  0.00000000000E+00 0. -1.
</event>
<event>
 7    1  0.3162486E-013  0.7246156E+02  0.7816164E-02  0.1226708E+00
        -11   -1    0    0    0    0  0.00000000000E+00  0.00000000000E+00  0.45593999997E+02  0.45594000000E+02  0.51100000000E-03 0.  1.
         11   -1    0    0    0    0 -0.00000000000E+00 -0.00000000000E+00 -0.45593999997E+02  0.45594000000E+02  0.51100000000E-03 0. -1.
    9900012    2    1    2    0    0 -0.54887057086E+01 -0.41544759560E+01  0.17415334023E+02  0.72461563608E+02  0.69999991289E+02 0.  0.
         12    1    1    2    0    0  0.54887057086E+01  0.41544759560E+01 -0.17415334023E+02  0.18726436392E+02  0.00000000000E+00 0. -1.
         11    1    3    3    0    0  0.18059921217E+02 -0.20027720779E+02  0.13673828029E+02  0.30236466843E+02  0.51100000000E-03 0. -1.
        -11    1    3    3    0    0  0.55926387729E+01 -0.12576323291E+01  0.60606192111E+01  0.83420832531E+01  0.51100000000E-03 0.  1.
        -12    1    3    3    0    0 -0.29141265698E+02  0.17130877152E+02 -0.23191132168E+01  0.33883013511E+02  0.00000000000E+00 0.  1.
</event>
<event>
 7    1  0.3162486E-013  0.7246158E+02  0.7816164E-02  0.1226708E+00
        -11   -1    0    0    0    0  0.00000000000E+00  0.00000000000E+00  0.45593999997E+02  0.45594000000E+02  0.51100000000E-03 0. -1.
         11   -1    0    0    0    0 -0.00000000000E+00 -0.00000000000E+00 -0.45593999997E+02  0.45594000000E+02  0.51100000000E-03 0.  1.
    9900012    2    1    2    0    0  0.11688952915E+02 -0.10637691925E+01 -0.14591624959E+02  0.72461581654E+02  0.70000014798E+02 0.  0.
         12    1    1    2    0    0 -0.11688952915E+02  0.10637691925E+01  0.14591624959E+02  0.18726418346E+02  0.00000000000E+00 0. -1.
         11    1    3    3    0    0 -0.10630398572E+02  0.11389157151E+02 -0.55838054713E+01  0.16549838616E+02  0.51100000000E-03 0. -1.
        -11    1    3    3    0    0  0.18942629661E+02 -0.20006344688E+01 -0.28063261844E+02  0.33917140539E+02  0.51100000000E-03 0.  1.
         12    1    3    3    0    0  0.33767218257E+01 -0.10452291875E+02  0.19055442356E+02  0.21994602499E+02  0.00000000000E+00 0. -1.
</event>
<event>
 7    1  0.3162486E-013  0.7246154E+02  0.7816164E-02  0.1226708E+00
        -11   -1    0    0    0    0  0.00000000000E+00  0.00000000000E+00  0.45593999997E+02  0.45594000000E+02  0.51100000000E-03 0. -1.
         11   -1    0    0    0    0 -0.00000000000E+00 -0.00000000000E+00 -0.45593999997E+02  0.45594000000E+02  0.51100000000E-03 0.  1.
    9900012    2    1    2    0    0 -0.41340477730E+01 -0.13135297634E+02  0.12690697803E+02  0.72461542629E+02  0.69999963961E+02 0.  0.
         12    1    1    2    0    0  0.41340477730E+01  0.13135297634E+02 -0.12690697803E+02  0.18726457371E+02  0.00000000000E+00 0. -1.
         11    1    3    3    0    0  0.71997860687E+01  0.10372171638E+02  0.34042033600E+02  0.36308110881E+02  0.51100000000E-03 0. -1.
        -11    1    3    3    0    0 -0.70938514423E+00  0.90130081619E+00  0.89987029478E+00  0.14578536458E+01  0.51100000000E-03 0.  1.
        -12    1    3    3    0    0 -0.10624448697E+02 -0.24408770088E+02 -0.22251206091E+02  0.34695578102E+02  0.00000000000E+00 0.  1.
</event>
<event>
 7    1  0.3162486E-013  0.7246157E+02  0.7816164E-02  0.1226708E+00
        -11   -1    0    0    0    0  0.00000000000E+00  0.00000000000E+00  0.45593999997E+02  0.45594000000E+02  0.51100000000E-03 0.  1.
         11   -1    0    0    0    0 -0.00000000000E+00 -0.00000000000E+00 -0.45593999997E+02  0.45594000000E+02  0.51100000000E-03 0. -1.
    9900012    2    1    2    0    0  0.12974051998E+02  0.96638643487E+01  0.94320122305E+01  0.72461570706E+02  0.70000000536E+02 0.  0.
         12    1    1    2    0    0 -0.12974051998E+02 -0.96638643487E+01 -0.94320122305E+01  0.18726429294E+02  0.00000000000E+00 0. -1.
         11    1    3    3    0    0  0.18500901737E+02 -0.17149396646E+02 -0.12871619164E+02  0.28320730050E+02  0.51100000000E-03 0. -1.
        -11    1    3    3    0    0 -0.59636654160E+01 -0.39706981524E+01  0.27793056107E+01  0.76848089729E+01  0.51100000000E-03 0.  1.
        -12    1    3    3    0    0  0.43681567659E+00  0.30783959147E+02  0.19524325784E+02  0.36456031682E+02  0.00000000000E+00 0.  1.
</event>
<event>
 7    1  0.3162486E-013  0.7246154E+02  0.7816164E-02  0.1226708E+00
        -11   -1    0    0    0    0  0.00000000000E+00  0.00000000000E+00  0.45593999997E+02  0.45594000000E+02  0.51100000000E-03 0. -1.
         11   -1    0    0    0    0 -0.00000000000E+00 -0.00000000000E+00 -0.45593999997E+02  0.45594000000E+02  0.51100000000E-03 0.  1.
    9900012    2    1    2    0    0  0.10992665368E+02 -0.14614625388E+02 -0.40316463159E+01  0.72461544405E+02  0.69999966275E+02 0.  0.
         12    1    1    2    0    0 -0.10992665368E+02  0.14614625388E+02  0.40316463159E+01  0.18726455595E+02  0.00000000000E+00 0. -1.
         11    1    3    3    0    0  0.26224650398E+02 -0.26270977195E+01 -0.71829467513E+01  0.27317186078E+02  0.51100000000E-03 0. -1.
        -11    1    3    3    0    0  0.11914530053E+02  0.21272513919E+01 -0.55783595206E+01  0.13326639489E+02  0.51100000000E-03 0.  1.
        -12    1    3    3    0    0 -0.27146515083E+02 -0.14114779060E+02  0.87296599560E+01  0.31817718838E+02  0.00000000000E+00 0.  1.
</event>
<event>
 7    1  0.3162486E-013  0.7246157E+02  0.7816164E-02  0.1226708E+00
        -11   -1    0    0    0    0  0.00000000000E+00  0.00000000000E+00  0.45593999997E+02  0.45594000000E+02  0.51100000000E-03 0. -1.
         11   -1    0    0    0    0 -0.00000000000E+00 -0.00000000000E+00 -0.45593999997E+02  0.45594000000E+02  0.51100000000E-03 0.  1.
    9900012    2    1    2    0    0 -0.52017621659E+01  0.13385604902E+02 -0.12018585131E+02  0.72461571169E+02  0.70000001139E+02 0.  0.
         12    1    1    2    0    0  0.52017621659E+01 -0.13385604902E+02  0.12018585131E+02  0.18726428831E+02  0.00000000000E+00 0. -1.
         11    1    3    3    0    0 -0.66092743786E+01  0.30183192273E+02 -0.25061682840E+02  0.39784363142E+02  0.51100000000E-03 0. -1.
        -11    1    3    3    0    0  0.34077428351E+01  0.50192242508E+01  0.82672254938E+01  0.10254381548E+02  0.51100000000E-03 0.  1.
        -12    1    3    3    0    0 -0.20002306224E+01 -0.21816811621E+02  0.47758722153E+01  0.22422826478E+02  0.00000000000E+00 0.  1.
</event>
<event>
 7    1  0.3162486E-013  0.7246157E+02  0.7816164E-02  0.1226708E+00
        -11   -1    0    0    0    0  0.00000000000E+00  0.00000000000E+00  0.45593999997E+02  0.45594000000E+02  0.51100000000E-03 0.  1.
         11   -1    0    0    0    0 -0.00000000000E+00 -0.00000000000E+00 -0.45593999997E+02  0.45594000000E+02  0.51100000000E-03 0. -1.
    9900012    2    1    2    0    0 -0.10702772019E+02 -0.12763264815E+02  0.85573843585E+01  0.72461572559E+02  0.70000002951E+02 0.  0.
         12    1    1    2    0    0  0.10702772019E+02  0.12763264815E+02 -0.85573843585E+01  0.18726427441E+02  0.00000000000E+00 0. -1.
         11    1    3    3    0    0 -0.32968843659E+02  0.41921773414E+01  0.28207872930E+01  0.33353798049E+02  0.51100000000E-03 0. -1.
        -11    1    3    3    0    0 -0.59373575700E+01 -0.38351626400E+00  0.39617225955E+00  0.59629063684E+01  0.51100000000E-03 0.  1.
        -12    1    3    3    0    0  0.28203429210E+02 -0.16571925893E+02  0.53404248059E+01  0.33144868142E+02  0.00000000000E+00 0.  1.
</event>
<event>
 7    1  0.3162486E-013  0.7246162E+02  0.7816164E-02  0.1226708E+00
        -11   -1    0    0    0    0  0.00000000000E+00  0.00000000000E+00  0.45593999997E+02  0.45594000000E+02  0.51100000000E-03 0.  1.
         11   -1    0    0    0    0 -0.00000000000E+00 -0.00000000000E+00 -0.45593999997E+02  0.45594000000E+02  0.51100000000E-03 0. -1.
    9900012    2    1    2    0    0  0.13032259455E+02 -0.89737644043E+01  0.10015436087E+02  0.72461623039E+02  0.70000068709E+02 0.  0.
         12    1    1    2    0    0 -0.13032259455E+02  0.89737644043E+01 -0.10015436087E+02  0.18726376961E+02  0.00000000000E+00 0. -1.
         11    1    3    3    0    0  0.14417185116E+01 -0.74502386570E+01  0.42434169807E+01  0.86943197690E+01  0.51100000000E-03 0. -1.
        -11    1    3    3    0    0 -0.69290092279E+01 -0.29267884910E+02  0.42436145512E+01  0.30374800752E+02  0.51100000000E-03 0.  1.
         12    1    3    3    0    0  0.18519550171E+02  0.27744359163E+02  0.15284045550E+01  0.33392502518E+02  0.00000000000E+00 0. -1.
</event>
<event>
 7    1  0.3162486E-013  0.7246163E+02  0.7816164E-02  0.1226708E+00
        -11   -1    0    0    0    0  0.00000000000E+00  0.00000000000E+00  0.45593999997E+02  0.45594000000E+02  0.51100000000E-03 0.  1.
         11   -1    0    0    0    0 -0.00000000000E+00 -0.00000000000E+00 -0.45593999997E+02  0.45594000000E+02  0.51100000000E-03 0. -1.
    9900012    2    1    2    0    0 -0.69773782757E+01 -0.14705004890E+02  0.92604568751E+01  0.72461627208E+02  0.70000074140E+02 0.  0.
         12    1    1    2    0    0  0.69773782757E+01  0.14705004890E+02 -0.92604568751E+01  0.18726372792E+02  0.00000000000E+00 0. -1.
         11    1    3    3    0    0 -0.12106816852E+02  0.65816595874E+01 -0.15413413954E+02  0.20675265106E+02  0.51100000000E-03 0. -1.
        -11    1    3    3    0    0  0.10761056802E+02  0.71779626696E+01  0.17736189460E+02  0.21952127651E+02  0.51100000000E-03 0.  1.
        -12    1    3    3    0    0 -0.56316182255E+01 -0.28464627147E+02  0.69376813692E+01  0.29834234450E+02  0.00000000000E+00 0.  1.
</event>
<event>
 7    1  0.3162486E-013  0.7246155E+02  0.7816164E-02  0.1226708E+00
        -11   -1    0    0    0    0  0.00000000000E+00  0.00000000000E+00  0.45593999997E+02  0.45594000000E+02  0.51100000000E-03 0.  1.
         11   -1    0    0    0    0 -0.00000000000E+00 -0.00000000000E+00 -0.45593999997E+02  0.45594000000E+02  0.51100000000E-03 0. -1.
    9900012    2    1    2    0    0  0.40394444726E+01 -0.13267291711E+02  0.12583390035E+02  0.72461552238E+02  0.69999976478E+02 0.  0.
         12    1    1    2    0    0 -0.40394444726E+01  0.13267291711E+02 -0.12583390035E+02  0.18726447762E+02  0.00000000000E+00 0. -1.
         11    1    3    3    0    0  0.10616974072E+02 -0.15406311989E+02  0.35642500793E+01  0.19046744247E+02  0.51100000000E-03 0. -1.
        -11    1    3    3    0    0  0.98516738103E+01  0.81029128918E+01 -0.17499034138E+02  0.21654765531E+02  0.51100000000E-03 0.  1.
         12    1    3    3    0    0 -0.16429203409E+02 -0.59638926142E+01  0.26518174094E+02  0.31760042460E+02  0.00000000000E+00 0. -1.
</event>
<event>
 7    1  0.3162486E-013  0.7246162E+02  0.7816164E-02  0.1226708E+00
        -11   -1    0    0    0    0  0.00000000000E+00  0.00000000000E+00  0.45593999997E+02  0.45594000000E+02  0.51100000000E-03 0.  1.
         11   -1    0    0    0    0 -0.00000000000E+00 -0.00000000000E+00 -0.45593999997E+02  0.45594000000E+02  0.51100000000E-03 0. -1.
    9900012    2    1    2    0    0  0.69118248878E+01 -0.12655038889E+02  0.11947971553E+02  0.72461618695E+02  0.70000063051E+02 0.  0.
         12    1    1    2    0    0 -0.69118248878E+01  0.12655038889E+02 -0.11947971553E+02  0.18726381305E+02  0.00000000000E+00 0. -1.
         11    1    3    3    0    0 -0.47696690749E+01 -0.12112873480E+02  0.60008813817E+01  0.14334644210E+02  0.51100000000E-03 0. -1.
        -11    1    3    3    0    0  0.15158550298E+02  0.42227082344E+01  0.29722409762E+02  0.33630857175E+02  0.51100000000E-03 0.  1.
         12    1    3    3    0    0 -0.34770563352E+01 -0.47648736436E+01 -0.23775319591E+02  0.24496117310E+02  0.00000000000E+00 0. -1.
</event>
<event>
 7    1  0.3162486E-013  0.7246156E+02  0.7816164E-02  0.1226708E+00
        -11   -1    0    0    0    0  0.00000000000E+00  0.00000000000E+00  0.45593999997E+02  0.45594000000E+02  0.51100000000E-03 0.  1.
         11   -1    0    0    0    0 -0.00000000000E+00 -0.00000000000E+00 -0.45593999997E+02  0.45594000000E+02  0.51100000000E-03 0. -1.
    9900012    2    1    2    0    0  0.10795647720E+02 -0.12348004369E+02  0.90366032840E+01  0.72461563593E+02  0.69999991271E+02 0.  0.
         12    1    1    2    0    0 -0.10795647720E+02  0.12348004369E+02 -0.90366032840E+01  0.18726436407E+02  0.00000000000E+00 0. -1.
         11    1    3    3    0    0  0.13771036357E+01 -0.30766190155E+01 -0.13630898155E+02  0.14041487947E+02  0.51100000000E-03 0. -1.
        -11    1    3    3    0    0 -0.21113850959E+02 -0.41866359828E+00  0.38131568036E+01  0.21459500148E+02  0.51100000000E-03 0.  1.
        -12    1    3    3    0    0  0.30532395043E+02 -0.88527217548E+01  0.18854344636E+02  0.36960575498E+02  0.00000000000E+00 0.  1.
</event>
<event>
 7    1  0.3162486E-013  0.7246165E+02  0.7816164E-02  0.1226708E+00
        -11   -1    0    0    0    0  0.00000000000E+00  0.00000000000E+00  0.45593999997E+02  0.45594000000E+02  0.51100000000E-03 0.  1.
         11   -1    0    0    0    0 -0.00000000000E+00 -0.00000000000E+00 -0.45593999997E+02  0.45594000000E+02  0.51100000000E-03 0. -1.
    9900012    2    1    2    0    0  0.87655474599E+01  0.14742285708E+02 -0.75170706398E+01  0.72461650618E+02  0.70000104637E+02 0.  0.
         12    1    1    2    0    0 -0.87655474599E+01 -0.14742285708E+02  0.75170706398E+01  0.18726349382E+02  0.00000000000E+00 0. -1.
         11    1    3    3    0    0 -0.14379742500E+02  0.16680158135E+02  0.72940458759E+01  0.23199305491E+02  0.51100000000E-03 0. -1.
        -11    1    3    3    0    0  0.30547182366E+02  0.64658692487E+01 -0.67942797994E+00  0.31231385468E+02  0.51100000000E-03 0.  1.
         12    1    3    3    0    0 -0.74018924058E+01 -0.84037416758E+01 -0.14131688536E+02  0.18030959659E+02  0.00000000000E+00 0. -1.
</event>
<event>
 7    1  0.3162486E-013  0.7246160E+02  0.7816164E-02  0.1226708E+00
        -11   -1    0    0    0    0  0.00000000000E+00  0.00000000000E+00  0.45593999997E+02  0.45594000000E+02  0.51100000000E-03 0. -1.
         11   -1    0    0    0    0 -0.00000000000E+00 -0.00000000000E+00 -0.45593999997E+02  0.45594000000E+02  0.51100000000E-03 0.  1.
    9900012    2    1    2    0    0  0.13981651352E+02 -0.45567019588E+01 -0.11594302243E+02  0.72461602808E+02  0.70000042356E+02 0.  0.
         12    1    1    2    0    0 -0.13981651352E+02  0.45567019588E+01  0.11594302243E+02  0.18726397192E+02  0.00000000000E+00 0. -1.
         11    1    3    3    0    0  0.69723084767E+01 -0.24201642475E+01  0.97739293174E+01  0.12247447695E+02  0.51100000000E-03 0. -1.
        -11    1    3    3    0    0  0.17549593562E+02  0.21323106218E+02 -0.13966249325E+01  0.27651648313E+02  0.51100000000E-03 0.  1.
         12    1    3    3    0    0 -0.10540250686E+02 -0.23459643929E+02 -0.19971606628E+02  0.32562506800E+02  0.00000000000E+00 0. -1.
</event>
<event>
 7    1  0.3162486E-013  0.7246177E+02  0.7816164E-02  0.1226707E+00
        -11   -1    0    0    0    0  0.00000000000E+00  0.00000000000E+00  0.45593999997E+02  0.45594000000E+02  0.51100000000E-03 0. -1.
         11   -1    0    0    0    0 -0.00000000000E+00 -0.00000000000E+00 -0.45593999997E+02  0.45594000000E+02  0.51100000000E-03 0.  1.
    9900012    2    1    2    0    0 -0.13565528020E+02  0.11572123171E+02 -0.57213690766E+01  0.72461771088E+02  0.70000261571E+02 0.  0.
         12    1    1    2    0    0  0.13565528020E+02 -0.11572123171E+02  0.57213690766E+01  0.18726228912E+02  0.00000000000E+00 0. -1.
         11    1    3    3    0    0 -0.22954995784E+02  0.17057344568E+02 -0.32764835876E+00  0.28600562737E+02  0.51100000000E-03 0. -1.
        -11    1    3    3    0    0  0.46494087699E+01  0.18076908348E+02 -0.65973950500E+01  0.19796899733E+02  0.51100000000E-03 0.  1.
         12    1    3    3    0    0  0.47400589938E+01 -0.23562129745E+02  0.12036743321E+01  0.24064308618E+02  0.00000000000E+00 0. -1.
</event>
<event>
 7    1  0.3162486E-013  0.7246129E+02  0.7816164E-02  0.1226709E+00
        -11   -1    0    0    0    0  0.00000000000E+00  0.00000000000E+00  0.45593999997E+02  0.45594000000E+02  0.51100000000E-03 0. -1.
         11   -1    0    0    0    0 -0.00000000000E+00 -0.00000000000E+00 -0.45593999997E+02  0.45594000000E+02  0.51100000000E-03 0.  1.
    9900012    2    1    2    0    0  0.87916425895E+01  0.15915191538E+02 -0.44836647562E+01  0.72461293115E+02  0.69999638921E+02 0.  0.
         12    1    1    2    0    0 -0.87916425895E+01 -0.15915191538E+02  0.44836647562E+01  0.18726706885E+02  0.00000000000E+00 0. -1.
         11    1    3    3    0    0 -0.27908734848E+01 -0.10802610949E+01  0.12649745168E+02  0.12998922722E+02  0.51100000000E-03 0. -1.
        -11    1    3    3    0    0 -0.18433295666E+02 -0.45735292594E+01 -0.68115241064E+00  0.19004408116E+02  0.51100000000E-03 0.  1.
        -12    1    3    3    0    0  0.30015811740E+02  0.21568981892E+02 -0.16452257514E+02  0.40457962277E+02  0.00000000000E+00 0.  1.
</event>
<event>
 7    1  0.3162486E-013  0.7246154E+02  0.7816164E-02  0.1226708E+00
        -11   -1    0    0    0    0  0.00000000000E+00  0.00000000000E+00  0.45593999997E+02  0.45594000000E+02  0.51100000000E-03 0.  1.
         11   -1    0    0    0    0 -0.00000000000E+00 -0.00000000000E+00 -0.45593999997E+02  0.45594000000E+02  0.51100000000E-03 0. -1.
    9900012    2    1    2    0    0  0.77370072694E+01 -0.48717896927E+01  0.16342731163E+02  0.72461535353E+02  0.69999954482E+02 0.  0.
         12    1    1    2    0    0 -0.77370072694E+01  0.48717896927E+01 -0.16342731163E+02  0.18726464647E+02  0.00000000000E+00 0. -1.
         11    1    3    3    0    0 -0.82006900770E+01 -0.83530993804E+01 -0.52778520462E+01  0.12840611725E+02  0.51100000000E-03 0.  1.
        -11    1    3    3    0    0 -0.15189590760E+02  0.15944074700E+02  0.91731028053E+01  0.23855460608E+02  0.51100000000E-03 0. -1.
        -12    1    3    3    0    0  0.31127288106E+02 -0.12462765013E+02  0.12447480404E+02  0.35765463020E+02  0.00000000000E+00 0.  1.
</event>
<event>
 7    1  0.3162486E-013  0.7246142E+02  0.7816164E-02  0.1226708E+00
        -11   -1    0    0    0    0  0.00000000000E+00  0.00000000000E+00  0.45593999997E+02  0.45594000000E+02  0.51100000000E-03 0.  1.
         11   -1    0    0    0    0 -0.00000000000E+00 -0.00000000000E+00 -0.45593999997E+02  0.45594000000E+02  0.51100000000E-03 0. -1.
    9900012    2    1    2    0    0  0.10509050947E+02  0.65349898608E+01  0.14054838462E+02  0.72461421869E+02  0.69999806649E+02 0.  0.
         12    1    1    2    0    0 -0.10509050947E+02 -0.65349898608E+01 -0.14054838462E+02  0.18726578131E+02  0.00000000000E+00 0. -1.
         11    1    3    3    0    0  0.10053347082E+02 -0.22551524495E+02  0.76294732238E+01  0.25842792158E+02  0.51100000000E-03 0. -1.
        -11    1    3    3    0    0  0.20468565544E+01 -0.82759877912E+01  0.31127273850E+01  0.90758287615E+01  0.51100000000E-03 0.  1.
         12    1    3    3    0    0 -0.15911526899E+01  0.37362502147E+02  0.33126378534E+01  0.37542800949E+02  0.00000000000E+00 0. -1.
</event>
<event>
 7    1  0.3162486E-013  0.7246158E+02  0.7816164E-02  0.1226708E+00
        -11   -1    0    0    0    0  0.00000000000E+00  0.00000000000E+00  0.45593999997E+02  0.45594000000E+02  0.51100000000E-03 0.  1.
         11   -1    0    0    0    0 -0.00000000000E+00 -0.00000000000E+00 -0.45593999997E+02  0.45594000000E+02  0.51100000000E-03 0. -1.
    9900012    2    1    2    0    0 -0.63378348205E+01  0.97785049535E+01  0.14659174979E+02  0.72461582286E+02  0.70000015621E+02 0.  0.
         12    1    1    2    0    0  0.63378348205E+01 -0.97785049535E+01 -0.14659174979E+02  0.18726417714E+02  0.00000000000E+00 0. -1.
         11    1    3    3    0    0 -0.35829907582E+01 -0.16768071666E+02  0.35405530742E+01  0.17508328490E+02  0.51100000000E-03 0. -1.
        -11    1    3    3    0    0 -0.18068593206E+01 -0.13348749072E+02  0.59036049101E+01  0.14707358485E+02  0.51100000000E-03 0.  1.
        -12    1    3    3    0    0 -0.94798474163E+00  0.39895325692E+02  0.52150169948E+01  0.40245895311E+02  0.00000000000E+00 0.  1.
</event>
<event>
 7    1  0.3162486E-013  0.7246158E+02  0.7816164E-02  0.1226708E+00
        -11   -1    0    0    0    0  0.00000000000E+00  0.00000000000E+00  0.45593999997E+02  0.45594000000E+02  0.51100000000E-03 0.  1.
         11   -1    0    0    0    0 -0.00000000000E+00 -0.00000000000E+00 -0.45593999997E+02  0.45594000000E+02  0.51100000000E-03 0. -1.
    9900012    2    1    2    0    0 -0.15240901112E+02  0.64058203386E+01 -0.87954065460E+01  0.72461580769E+02  0.70000013645E+02 0.  0.
         12    1    1    2    0    0  0.15240901112E+02 -0.64058203386E+01  0.87954065460E+01  0.18726419231E+02  0.00000000000E+00 0. -1.
         11    1    3    3    0    0  0.75186010067E+01 -0.74604600159E+01  0.21152940805E+01  0.10801032083E+02  0.51100000000E-03 0. -1.
        -11    1    3    3    0    0  0.13046166019E+02  0.19935533511E+02 -0.83812580895E+01  0.25256156311E+02  0.51100000000E-03 0.  1.
         12    1    3    3    0    0 -0.35805668137E+02 -0.60692531569E+01 -0.25294425369E+01  0.36404392375E+02  0.00000000000E+00 0. -1.
</event>
<event>
 7    1  0.3162486E-013  0.7246158E+02  0.7816164E-02  0.1226708E+00
        -11   -1    0    0    0    0  0.00000000000E+00  0.00000000000E+00  0.45593999997E+02  0.45594000000E+02  0.51100000000E-03 0.  1.
         11   -1    0    0    0    0 -0.00000000000E+00 -0.00000000000E+00 -0.45593999997E+02  0.45594000000E+02  0.51100000000E-03 0. -1.
    9900012    2    1    2    0    0  0.15035290682E+02 -0.40275198518E+01  0.10411425374E+02  0.72461583889E+02  0.70000017709E+02 0.  0.
         12    1    1    2    0    0 -0.15035290682E+02  0.40275198518E+01 -0.10411425374E+02  0.18726416111E+02  0.00000000000E+00 0. -1.
         11    1    3    3    0    0  0.92929462901E+01  0.15778418027E+02  0.65503277017E+01  0.19447984972E+02  0.51100000000E-03 0. -1.
        -11    1    3    3    0    0 -0.10932713994E+01 -0.15516799612E+02  0.25527318946E+02  0.29893315731E+02  0.51100000000E-03 0.  1.
         12    1    3    3    0    0  0.68356157914E+01 -0.42891382667E+01 -0.21666221274E+02  0.23120283186E+02  0.00000000000E+00 0. -1.
</event>
<event>
 7    1  0.3162486E-013  0.7246155E+02  0.7816164E-02  0.1226708E+00
        -11   -1    0    0    0    0  0.00000000000E+00  0.00000000000E+00  0.45593999997E+02  0.45594000000E+02  0.51100000000E-03 0.  1.
         11   -1    0    0    0    0 -0.00000000000E+00 -0.00000000000E+00 -0.45593999997E+02  0.45594000000E+02  0.51100000000E-03 0. -1.
    9900012    2    1    2    0    0 -0.16979235100E+02  0.67307509039E+01  0.41330862726E+01  0.72461552541E+02  0.69999976873E+02 0.  0.
         12    1    1    2    0    0  0.16979235100E+02 -0.67307509039E+01 -0.41330862726E+01  0.18726447459E+02  0.00000000000E+00 0. -1.
         11    1    3    3    0    0 -0.16142565561E+02 -0.10318738067E+02  0.92427544900E+01  0.21271748612E+02  0.51100000000E-03 0. -1.
        -11    1    3    3    0    0 -0.17736725427E+02 -0.77555452644E+01  0.41119999705E+01  0.19790110036E+02  0.51100000000E-03 0.  1.
         12    1    3    3    0    0  0.16900055888E+02  0.24805034235E+02 -0.92216681879E+01  0.31399693893E+02  0.00000000000E+00 0. -1.
</event>
<event>
 7    1  0.3162486E-013  0.7246158E+02  0.7816164E-02  0.1226708E+00
        -11   -1    0    0    0    0  0.00000000000E+00  0.00000000000E+00  0.45593999997E+02  0.45594000000E+02  0.51100000000E-03 0. -1.
         11   -1    0    0    0    0 -0.00000000000E+00 -0.00000000000E+00 -0.45593999997E+02  0.45594000000E+02  0.51100000000E-03 0.  1.
    9900012    2    1    2    0    0 -0.62529135706E+01 -0.15045410420E+02  0.92312159208E+01  0.72461584160E+02  0.70000018063E+02 0.  0.
         12    1    1    2    0    0  0.62529135706E+01  0.15045410420E+02 -0.92312159208E+01  0.18726415840E+02  0.00000000000E+00 0. -1.
         11    1    3    3    0    0  0.45298222371E+00  0.12036018373E+02  0.73259380076E+01  0.14097528121E+02  0.51100000000E-03 0. -1.
        -11    1    3    3    0    0 -0.18950698614E+02 -0.19700397755E+02  0.21027705338E+02  0.34487665066E+02  0.51100000000E-03 0.  1.
        -12    1    3    3    0    0  0.12244802820E+02 -0.73810310375E+01 -0.19122427425E+02  0.23876390973E+02  0.00000000000E+00 0.  1.
</event>
<event>
 7    1  0.3162486E-013  0.7246134E+02  0.7816164E-02  0.1226709E+00
        -11   -1    0    0    0    0  0.00000000000E+00  0.00000000000E+00  0.45593999997E+02  0.45594000000E+02  0.51100000000E-03 0.  1.
         11   -1    0    0    0    0 -0.00000000000E+00 -0.00000000000E+00 -0.45593999997E+02  0.45594000000E+02  0.51100000000E-03 0. -1.
    9900012    2    1    2    0    0  0.16403908579E+01 -0.14717344989E+02  0.11462844467E+02  0.72461336417E+02  0.69999695330E+02 0.  0.
         12    1    1    2    0    0 -0.16403908579E+01  0.14717344989E+02 -0.11462844467E+02  0.18726663583E+02  0.00000000000E+00 0. -1.
         11    1    3    3    0    0  0.10838973943E+02 -0.12812766003E+01 -0.84947240084E+01  0.13830595147E+02  0.51100000000E-03 0. -1.
        -11    1    3    3    0    0  0.21369302799E+02  0.79819626726E+00  0.86192830321E+01  0.23055937623E+02  0.51100000000E-03 0.  1.
         12    1    3    3    0    0 -0.30567885885E+02 -0.14234264656E+02  0.11338285443E+02  0.35574803647E+02  0.00000000000E+00 0. -1.
</event>
<event>
 7    1  0.3162486E-013  0.7246160E+02  0.7816164E-02  0.1226708E+00
        -11   -1    0    0    0    0  0.00000000000E+00  0.00000000000E+00  0.45593999997E+02  0.45594000000E+02  0.51100000000E-03 0.  1.
         11   -1    0    0    0    0 -0.00000000000E+00 -0.00000000000E+00 -0.45593999997E+02  0.45594000000E+02  0.51100000000E-03 0. -1.
    9900012    2    1    2    0    0  0.16507659500E+02  0.44212634437E+01 -0.76568710941E+01  0.72461599717E+02  0.70000038329E+02 0.  0.
         12    1    1    2    0    0 -0.16507659500E+02 -0.44212634437E+01  0.76568710941E+01  0.18726400283E+02  0.00000000000E+00 0. -1.
         11    1    3    3    0    0 -0.81212518371E+01  0.24401954506E+01 -0.14497999418E+02  0.16795870701E+02  0.51100000000E-03 0. -1.
        -11    1    3    3    0    0  0.11881683260E+02 -0.90954640781E+00 -0.21429384786E+02  0.24519792094E+02  0.51100000000E-03 0.  1.
         12    1    3    3    0    0  0.12747228076E+02  0.28906144009E+01  0.28270513110E+02  0.31145936922E+02  0.00000000000E+00 0. -1.
</event>
<event>
 7    1  0.3162486E-013  0.7246160E+02  0.7816164E-02  0.1226708E+00
        -11   -1    0    0    0    0  0.00000000000E+00  0.00000000000E+00  0.45593999997E+02  0.45594000000E+02  0.51100000000E-03 0.  1.
         11   -1    0    0    0    0 -0.00000000000E+00 -0.00000000000E+00 -0.45593999997E+02  0.45594000000E+02  0.51100000000E-03 0. -1.
    9900012    2    1    2    0    0 -0.97705146398E+00 -0.16867990833E+02  0.80743055926E+01  0.72461597380E+02  0.70000035284E+02 0.  0.
         12    1    1    2    0    0  0.97705146398E+00  0.16867990833E+02 -0.80743055926E+01  0.18726402620E+02  0.00000000000E+00 0. -1.
         11    1    3    3    0    0 -0.49827070306E+01 -0.41854324829E+02  0.22103922111E+01  0.42207792056E+02  0.51100000000E-03 0. -1.
        -11    1    3    3    0    0  0.17983790787E+01 -0.62917731370E+00 -0.25665826557E+01  0.31964633883E+01  0.51100000000E-03 0.  1.
        -12    1    3    3    0    0  0.22072764879E+01  0.25615511310E+02  0.84304960372E+01  0.27057341935E+02  0.00000000000E+00 0.  1.
</event>
<event>
 7    1  0.3162486E-013  0.7246157E+02  0.7816164E-02  0.1226708E+00
        -11   -1    0    0    0    0  0.00000000000E+00  0.00000000000E+00  0.45593999997E+02  0.45594000000E+02  0.51100000000E-03 0.  1.
         11   -1    0    0    0    0 -0.00000000000E+00 -0.00000000000E+00 -0.45593999997E+02  0.45594000000E+02  0.51100000000E-03 0. -1.
    9900012    2    1    2    0    0 -0.12330007630E+02  0.14060543489E+02 -0.97522255279E+00  0.72461574009E+02  0.70000004840E+02 0.  0.
         12    1    1    2    0    0  0.12330007630E+02 -0.14060543489E+02  0.97522255279E+00  0.18726425991E+02  0.00000000000E+00 0. -1.
         11    1    3    3    0    0 -0.25276913335E+02  0.23605810301E+01 -0.76394952412E+00  0.25398391872E+02  0.51100000000E-03 0. -1.
        -11    1    3    3    0    0 -0.49079307391E+01  0.22742294657E+02 -0.81012744808E+01  0.24635957438E+02  0.51100000000E-03 0.  1.
        -12    1    3    3    0    0  0.17854836444E+02 -0.11042332198E+02  0.78900014522E+01  0.22427224700E+02  0.00000000000E+00 0.  1.
</event>
<event>
 7    1  0.3162486E-013  0.7246158E+02  0.7816164E-02  0.1226708E+00
        -11   -1    0    0    0    0  0.00000000000E+00  0.00000000000E+00  0.45593999997E+02  0.45594000000E+02  0.51100000000E-03 0.  1.
         11   -1    0    0    0    0 -0.00000000000E+00 -0.00000000000E+00 -0.45593999997E+02  0.45594000000E+02  0.51100000000E-03 0. -1.
    9900012    2    1    2    0    0 -0.10646393633E+02 -0.11656129102E+02  0.10073113721E+02  0.72461583817E+02  0.70000017616E+02 0.  0.
         12    1    1    2    0    0  0.10646393633E+02  0.11656129102E+02 -0.10073113721E+02  0.18726416183E+02  0.00000000000E+00 0. -1.
         11    1    3    3    0    0 -0.19492617945E+02 -0.29809060383E+02  0.71892287285E+00  0.35623855569E+02  0.51100000000E-03 0.  1.
        -11    1    3    3    0    0  0.76702667026E+01 -0.22150052158E+01  0.13813062556E+02  0.15954307783E+02  0.51100000000E-03 0. -1.
         12    1    3    3    0    0  0.11759576102E+01  0.20367936496E+02 -0.44588717075E+01  0.20883420465E+02  0.00000000000E+00 0. -1.
</event>
<event>
 7    1  0.3162486E-013  0.7246157E+02  0.7816164E-02  0.1226708E+00
        -11   -1    0    0    0    0  0.00000000000E+00  0.00000000000E+00  0.45593999997E+02  0.45594000000E+02  0.51100000000E-03 0. -1.
         11   -1    0    0    0    0 -0.00000000000E+00 -0.00000000000E+00 -0.45593999997E+02  0.45594000000E+02  0.51100000000E-03 0.  1.
    9900012    2    1    2    0    0  0.24290273465E+01  0.35136729743E+01 -0.18232744724E+02  0.72461573438E+02  0.70000004095E+02 0.  0.
         12    1    1    2    0    0 -0.24290273465E+01 -0.35136729743E+01  0.18232744724E+02  0.18726426562E+02  0.00000000000E+00 0. -1.
         11    1    3    3    0    0  0.17271613321E+01  0.11187004109E+01 -0.78282025547E+01  0.80941542100E+01  0.51100000000E-03 0. -1.
        -11    1    3    3    0    0  0.25333208605E+02  0.87628801783E+01 -0.23594104324E+02  0.35710520668E+02  0.51100000000E-03 0.  1.
         12    1    3    3    0    0 -0.24631342591E+02 -0.63679076149E+01  0.13189562155E+02  0.28656898560E+02  0.00000000000E+00 0. -1.
</event>
<event>
 7    1  0.3162486E-013  0.7246159E+02  0.7816164E-02  0.1226708E+00
        -11   -1    0    0    0    0  0.00000000000E+00  0.00000000000E+00  0.45593999997E+02  0.45594000000E+02  0.51100000000E-03 0.  1.
         11   -1    0    0    0    0 -0.00000000000E+00 -0.00000000000E+00 -0.45593999997E+02  0.45594000000E+02  0.51100000000E-03 0. -1.
    9900012    2    1    2    0    0 -0.18392909808E+02 -0.35169368562E+01  0.10258319570E+00  0.72461588188E+02  0.70000023309E+02 0.  0.
         12    1    1    2    0    0  0.18392909808E+02  0.35169368562E+01 -0.10258319570E+00  0.18726411812E+02  0.00000000000E+00 0. -1.
         11    1    3    3    0    0 -0.62876977367E+01 -0.21913339869E+02 -0.11986892239E+01  0.22829070572E+02  0.51100000000E-03 0. -1.
        -11    1    3    3    0    0 -0.86162525492E+01 -0.25605761885E+01  0.19619343784E+02  0.21580431163E+02  0.51100000000E-03 0.  1.
         12    1    3    3    0    0 -0.34889595222E+01  0.20956979202E+02 -0.18318071365E+02  0.28052086452E+02  0.00000000000E+00 0. -1.
</event>
<event>
 7    1  0.3162486E-013  0.7246163E+02  0.7816164E-02  0.1226708E+00
        -11   -1    0    0    0    0  0.00000000000E+00  0.00000000000E+00  0.45593999997E+02  0.45594000000E+02  0.51100000000E-03 0. -1.
         11   -1    0    0    0    0 -0.00000000000E+00 -0.00000000000E+00 -0.45593999997E+02  0.45594000000E+02  0.51100000000E-03 0.  1.
    9900012    2    1    2    0    0  0.44583507239E+00  0.33508525196E+01 -0.18418737645E+02  0.72461631480E+02  0.70000079706E+02 0.  0.
         12    1    1    2    0    0 -0.44583507239E+00 -0.33508525196E+01  0.18418737645E+02  0.18726368520E+02  0.00000000000E+00 0. -1.
         11    1    3    3    0    0  0.89661538426E-01 -0.26583855922E+02 -0.21436849253E+01  0.26670298465E+02  0.51100000000E-03 0. -1.
        -11    1    3    3    0    0 -0.86658719809E+01 -0.18156707284E+01  0.29360281290E+00  0.88589051387E+01  0.51100000000E-03 0.  1.
        -12    1    3    3    0    0  0.90220455149E+01  0.31750379170E+02 -0.16568655532E+02  0.36932427877E+02  0.00000000000E+00 0.  1.
</event>
<event>
 7    1  0.3162486E-013  0.7246157E+02  0.7816164E-02  0.1226708E+00
        -11   -1    0    0    0    0  0.00000000000E+00  0.00000000000E+00  0.45593999997E+02  0.45594000000E+02  0.51100000000E-03 0.  1.
         11   -1    0    0    0    0 -0.00000000000E+00 -0.00000000000E+00 -0.45593999997E+02  0.45594000000E+02  0.51100000000E-03 0. -1.
    9900012    2    1    2    0    0 -0.14424582979E+02  0.38912750691E+01  0.11290194756E+02  0.72461571793E+02  0.70000001952E+02 0.  0.
         12    1    1    2    0    0  0.14424582979E+02 -0.38912750691E+01 -0.11290194756E+02  0.18726428207E+02  0.00000000000E+00 0. -1.
         11    1    3    3    0    0 -0.14348323260E+02 -0.20930634881E+02 -0.13019275443E+02  0.28521349727E+02  0.51100000000E-03 0. -1.
        -11    1    3    3    0    0 -0.57629390828E+01  0.19401806091E+01 -0.38624294828E+01  0.72037580081E+01  0.51100000000E-03 0.  1.
        -12    1    3    3    0    0  0.56866793635E+01  0.22881729341E+02  0.28171899682E+02  0.36736464058E+02  0.00000000000E+00 0.  1.
</event>
<event>
 7    1  0.3162486E-013  0.7246149E+02  0.7816164E-02  0.1226708E+00
        -11   -1    0    0    0    0  0.00000000000E+00  0.00000000000E+00  0.45593999997E+02  0.45594000000E+02  0.51100000000E-03 0.  1.
         11   -1    0    0    0    0 -0.00000000000E+00 -0.00000000000E+00 -0.45593999997E+02  0.45594000000E+02  0.51100000000E-03 0. -1.
    9900012    2    1    2    0    0  0.90406902746E+01 -0.32923292683E+01  0.16065763434E+02  0.72461487581E+02  0.69999892251E+02 0.  0.
         12    1    1    2    0    0 -0.90406902746E+01  0.32923292683E+01 -0.16065763434E+02  0.18726512419E+02  0.00000000000E+00 0. -1.
         11    1    3    3    0    0 -0.88389005122E+01  0.25861316179E+01  0.19558390406E+02  0.21618160758E+02  0.51100000000E-03 0. -1.
        -11    1    3    3    0    0  0.21446171962E+02  0.17052198295E+02 -0.16572215686E+00  0.27399693841E+02  0.51100000000E-03 0.  1.
         12    1    3    3    0    0 -0.35665811747E+01 -0.22930659181E+02 -0.33269048155E+01  0.23443632982E+02  0.00000000000E+00 0. -1.
</event>
<event>
 7    1  0.3162486E-013  0.7246150E+02  0.7816164E-02  0.1226708E+00
        -11   -1    0    0    0    0  0.00000000000E+00  0.00000000000E+00  0.45593999997E+02  0.45594000000E+02  0.51100000000E-03 0.  1.
         11   -1    0    0    0    0 -0.00000000000E+00 -0.00000000000E+00 -0.45593999997E+02  0.45594000000E+02  0.51100000000E-03 0. -1.
    9900012    2    1    2    0    0 -0.51273150639E+01  0.92428982243E+01  0.15458371179E+02  0.72461500945E+02  0.69999909659E+02 0.  0.
         12    1    1    2    0    0  0.51273150639E+01 -0.92428982243E+01 -0.15458371179E+02  0.18726499055E+02  0.00000000000E+00 0. -1.
         11    1    3    3    0    0 -0.80392589474E+01 -0.11486498290E+02  0.51699962976E+01  0.14943165306E+02  0.51100000000E-03 0. -1.
        -11    1    3    3    0    0 -0.11084222009E+02 -0.14646734005E+02  0.55005822054E+01  0.19174024080E+02  0.51100000000E-03 0.  1.
        -12    1    3    3    0    0  0.13996165892E+02  0.35376130520E+02  0.47877926761E+01  0.38344311559E+02  0.00000000000E+00 0.  1.
</event>
<event>
 7    1  0.3162486E-013  0.7246154E+02  0.7816164E-02  0.1226708E+00
        -11   -1    0    0    0    0  0.00000000000E+00  0.00000000000E+00  0.45593999997E+02  0.45594000000E+02  0.51100000000E-03 0. -1.
         11   -1    0    0    0    0 -0.00000000000E+00 -0.00000000000E+00 -0.45593999997E+02  0.45594000000E+02  0.51100000000E-03 0.  1.
    9900012    2    1    2    0    0  0.87845069637E+01 -0.16043165076E+02 -0.40161663128E+01  0.72461540108E+02  0.69999960676E+02 0.  0.
         12    1    1    2    0    0 -0.87845069637E+01  0.16043165076E+02  0.40161663128E+01  0.18726459892E+02  0.00000000000E+00 0. -1.
         11    1    3    3    0    0  0.22989026658E+02  0.66823671340E+01 -0.92606486517E+01  0.25669222640E+02  0.51100000000E-03 0. -1.
        -11    1    3    3    0    0 -0.25584470392E+01  0.55336074018E+01 -0.10702795703E+02  0.12317317007E+02  0.51100000000E-03 0.  1.
        -12    1    3    3    0    0 -0.11646072655E+02 -0.28259139611E+02  0.15947278042E+02  0.34475000461E+02  0.00000000000E+00 0.  1.
</event>
<event>
 7    1  0.3162486E-013  0.7246158E+02  0.7816164E-02  0.1226708E+00
        -11   -1    0    0    0    0  0.00000000000E+00  0.00000000000E+00  0.45593999997E+02  0.45594000000E+02  0.51100000000E-03 0.  1.
         11   -1    0    0    0    0 -0.00000000000E+00 -0.00000000000E+00 -0.45593999997E+02  0.45594000000E+02  0.51100000000E-03 0. -1.
    9900012    2    1    2    0    0  0.11214133053E+02 -0.10095508909E+02  0.11090666050E+02  0.72461576057E+02  0.70000007507E+02 0.  0.
         12    1    1    2    0    0 -0.11214133053E+02  0.10095508909E+02 -0.11090666050E+02  0.18726423943E+02  0.00000000000E+00 0. -1.
         11    1    3    3    0    0  0.17408003888E+01  0.35924611923E+01 -0.21229625032E+00  0.39976534831E+01  0.51100000000E-03 0. -1.
        -11    1    3    3    0    0 -0.18175123020E+02 -0.13012163759E+01  0.28349971604E+02  0.33700877601E+02  0.51100000000E-03 0.  1.
        -12    1    3    3    0    0  0.27648455685E+02 -0.12386753725E+02 -0.17047009304E+02  0.34763044973E+02  0.00000000000E+00 0.  1.
</event>
<event>
 7    1  0.3162486E-013  0.7246155E+02  0.7816164E-02  0.1226708E+00
        -11   -1    0    0    0    0  0.00000000000E+00  0.00000000000E+00  0.45593999997E+02  0.45594000000E+02  0.51100000000E-03 0. -1.
         11   -1    0    0    0    0 -0.00000000000E+00 -0.00000000000E+00 -0.45593999997E+02  0.45594000000E+02  0.51100000000E-03 0.  1.
    9900012    2    1    2    0    0  0.90519561075E+01  0.82599066223E+01 -0.14160361946E+02  0.72461553001E+02  0.69999977472E+02 0.  0.
         12    1    1    2    0    0 -0.90519561075E+01 -0.82599066223E+01  0.14160361946E+02  0.18726446999E+02  0.00000000000E+00 0. -1.
         11    1    3    3    0    0  0.24210874432E+02  0.14922088954E+02 -0.30901264337E+02  0.41996706030E+02  0.51100000000E-03 0. -1.
        -11    1    3    3    0    0 -0.25318304511E+00  0.59083252770E+01  0.31840676600E+01  0.67164496840E+01  0.51100000000E-03 0.  1.
         12    1    3    3    0    0 -0.14905735279E+02 -0.12570507609E+02  0.13556834731E+02  0.23748397286E+02  0.00000000000E+00 0. -1.
</event>
<event>
 7    1  0.3162486E-013  0.7246160E+02  0.7816164E-02  0.1226708E+00
        -11   -1    0    0    0    0  0.00000000000E+00  0.00000000000E+00  0.45593999997E+02  0.45594000000E+02  0.51100000000E-03 0. -1.
         11   -1    0    0    0    0 -0.00000000000E+00 -0.00000000000E+00 -0.45593999997E+02  0.45594000000E+02  0.51100000000E-03 0.  1.
    9900012    2    1    2    0    0 -0.46032925430E+01  0.12672320840E+02 -0.12996159438E+02  0.72461596772E+02  0.70000034492E+02 0.  0.
         12    1    1    2    0    0  0.46032925430E+01 -0.12672320840E+02  0.12996159438E+02  0.18726403228E+02  0.00000000000E+00 0. -1.
         11    1    3    3    0    0 -0.21686707759E+02 -0.36018783769E+01  0.10917989987E+02  0.24545658005E+02  0.51100000000E-03 0. -1.
        -11    1    3    3    0    0 -0.93744028877E+01  0.57512853303E+01 -0.42867692994E+00  0.11006383449E+02  0.51100000000E-03 0.  1.
        -12    1    3    3    0    0  0.26457818104E+02  0.10522913887E+02 -0.23485472495E+02  0.36909555318E+02  0.00000000000E+00 0.  1.
</event>
<event>
 7    1  0.3162486E-013  0.7246154E+02  0.7816164E-02  0.1226708E+00
        -11   -1    0    0    0    0  0.00000000000E+00  0.00000000000E+00  0.45593999997E+02  0.45594000000E+02  0.51100000000E-03 0.  1.
         11   -1    0    0    0    0 -0.00000000000E+00 -0.00000000000E+00 -0.45593999997E+02  0.45594000000E+02  0.51100000000E-03 0. -1.
    9900012    2    1    2    0    0  0.22802082303E+01 -0.18173984473E+02  0.38970775925E+01  0.72461540779E+02  0.69999961551E+02 0.  0.
         12    1    1    2    0    0 -0.22802082303E+01  0.18173984473E+02 -0.38970775925E+01  0.18726459221E+02  0.00000000000E+00 0. -1.
         11    1    3    3    0    0 -0.13259571236E+02 -0.29027685275E+01 -0.10910278300E+02  0.17414834692E+02  0.51100000000E-03 0. -1.
        -11    1    3    3    0    0 -0.14408036198E+02  0.65887278969E+01  0.29162832000E+01  0.16109238044E+02  0.51100000000E-03 0.  1.
        -12    1    3    3    0    0  0.29947815665E+02 -0.21859943842E+02  0.11891072693E+02  0.38937468044E+02  0.00000000000E+00 0.  1.
</event>
<event>
 7    1  0.3162486E-013  0.7246157E+02  0.7816164E-02  0.1226708E+00
        -11   -1    0    0    0    0  0.00000000000E+00  0.00000000000E+00  0.45593999997E+02  0.45594000000E+02  0.51100000000E-03 0.  1.
         11   -1    0    0    0    0 -0.00000000000E+00 -0.00000000000E+00 -0.45593999997E+02  0.45594000000E+02  0.51100000000E-03 0. -1.
    9900012    2    1    2    0    0  0.16779480429E+02  0.47711102510E+01  0.68091778966E+01  0.72461565205E+02  0.69999993371E+02 0.  0.
         12    1    1    2    0    0 -0.16779480429E+02 -0.47711102510E+01 -0.68091778966E+01  0.18726434795E+02  0.00000000000E+00 0. -1.
         11    1    3    3    0    0  0.36288162159E+02 -0.26471841144E+01 -0.91304990487E+01  0.37512721972E+02  0.51100000000E-03 0. -1.
        -11    1    3    3    0    0 -0.22717183321E+01  0.80532782718E+01 -0.34025171551E+01  0.90328909191E+01  0.51100000000E-03 0.  1.
        -12    1    3    3    0    0 -0.17236963398E+02 -0.63498390641E+00  0.19342194100E+02  0.25915952314E+02  0.00000000000E+00 0.  1.
</event>
<event>
 7    1  0.3162486E-013  0.7246155E+02  0.7816164E-02  0.1226708E+00
        -11   -1    0    0    0    0  0.00000000000E+00  0.00000000000E+00  0.45593999997E+02  0.45594000000E+02  0.51100000000E-03 0. -1.
         11   -1    0    0    0    0 -0.00000000000E+00 -0.00000000000E+00 -0.45593999997E+02  0.45594000000E+02  0.51100000000E-03 0.  1.
    9900012    2    1    2    0    0 -0.87855346025E+01 -0.10657583695E+02 -0.12645561738E+02  0.72461549719E+02  0.69999973196E+02 0.  0.
         12    1    1    2    0    0  0.87855346025E+01  0.10657583695E+02  0.12645561738E+02  0.18726450281E+02  0.00000000000E+00 0. -1.
         11    1    3    3    0    0 -0.74582078591E+01  0.25937221598E+01  0.25611287971E+02  0.26800938993E+02  0.51100000000E-03 0. -1.
        -11    1    3    3    0    0  0.47373315235E+01  0.42709463093E+01 -0.93756907502E+01  0.11339615057E+02  0.51100000000E-03 0.  1.
        -12    1    3    3    0    0 -0.60646582669E+01 -0.17522252164E+02 -0.28881158959E+02  0.34320995668E+02  0.00000000000E+00 0.  1.
</event>
<event>
 7    1  0.3162486E-013  0.7246157E+02  0.7816164E-02  0.1226708E+00
        -11   -1    0    0    0    0  0.00000000000E+00  0.00000000000E+00  0.45593999997E+02  0.45594000000E+02  0.51100000000E-03 0.  1.
         11   -1    0    0    0    0 -0.00000000000E+00 -0.00000000000E+00 -0.45593999997E+02  0.45594000000E+02  0.51100000000E-03 0. -1.
    9900012    2    1    2    0    0 -0.18368874044E+02  0.91879332742E-01  0.36407469950E+01  0.72461574443E+02  0.70000005405E+02 0.  0.
         12    1    1    2    0    0  0.18368874044E+02 -0.91879332742E-01 -0.36407469950E+01  0.18726425557E+02  0.00000000000E+00 0. -1.
         11    1    3    3    0    0 -0.33372454937E+02  0.14115846974E+02 -0.13711644955E+02  0.38742574668E+02  0.51100000000E-03 0. -1.
        -11    1    3    3    0    0 -0.33863530863E+01  0.22274949948E+01  0.84031931675E+00  0.41394755697E+01  0.51100000000E-03 0.  1.
        -12    1    3    3    0    0  0.18389933979E+02 -0.16251462636E+02  0.16512072633E+02  0.29579524205E+02  0.00000000000E+00 0.  1.
</event>
<event>
 7    1  0.3162486E-013  0.7246161E+02  0.7816164E-02  0.1226708E+00
        -11   -1    0    0    0    0  0.00000000000E+00  0.00000000000E+00  0.45593999997E+02  0.45594000000E+02  0.51100000000E-03 0.  1.
         11   -1    0    0    0    0 -0.00000000000E+00 -0.00000000000E+00 -0.45593999997E+02  0.45594000000E+02  0.51100000000E-03 0. -1.
    9900012    2    1    2    0    0  0.68322870436E+01  0.35046239514E+01  0.17079675239E+02  0.72461605751E+02  0.70000046189E+02 0.  0.
         12    1    1    2    0    0 -0.68322870436E+01 -0.35046239514E+01 -0.17079675239E+02  0.18726394249E+02  0.00000000000E+00 0. -1.
         11    1    3    3    0    0  0.16312822381E+02  0.19000727162E+02  0.15215833582E+02  0.29302856491E+02  0.51100000000E-03 0. -1.
        -11    1    3    3    0    0  0.95139617632E+01 -0.40898075941E+01  0.14373078943E+02  0.17715174094E+02  0.51100000000E-03 0.  1.
        -12    1    3    3    0    0 -0.18994497100E+02 -0.11406295616E+02 -0.12509237286E+02  0.25443575167E+02  0.00000000000E+00 0.  1.
</event>
<event>
 7    1  0.3162486E-013  0.7246157E+02  0.7816164E-02  0.1226708E+00
        -11   -1    0    0    0    0  0.00000000000E+00  0.00000000000E+00  0.45593999997E+02  0.45594000000E+02  0.51100000000E-03 0.  1.
         11   -1    0    0    0    0 -0.00000000000E+00 -0.00000000000E+00 -0.45593999997E+02  0.45594000000E+02  0.51100000000E-03 0. -1.
    9900012    2    1    2    0    0  0.12186452790E+02  0.89590176694E+01 -0.11041087412E+02  0.72461568400E+02  0.69999997533E+02 0.  0.
         12    1    1    2    0    0 -0.12186452790E+02 -0.89590176694E+01  0.11041087412E+02  0.18726431600E+02  0.00000000000E+00 0. -1.
         11    1    3    3    0    0 -0.65268746985E+01  0.85666562994E+01 -0.22728155189E+02  0.25150680548E+02  0.51100000000E-03 0. -1.
        -11    1    3    3    0    0 -0.61786524945E+01  0.14408934711E+02 -0.16868358899E+01  0.15768277070E+02  0.51100000000E-03 0.  1.
        -12    1    3    3    0    0  0.24891979983E+02 -0.14016573341E+02  0.13373903666E+02  0.31542610783E+02  0.00000000000E+00 0.  1.
</event>
<event>
 7    1  0.3162486E-013  0.7246158E+02  0.7816164E-02  0.1226708E+00
        -11   -1    0    0    0    0  0.00000000000E+00  0.00000000000E+00  0.45593999997E+02  0.45594000000E+02  0.51100000000E-03 0. -1.
         11   -1    0    0    0    0 -0.00000000000E+00 -0.00000000000E+00 -0.45593999997E+02  0.45594000000E+02  0.51100000000E-03 0.  1.
    9900012    2    1    2    0    0 -0.49334535602E+01  0.17899456717E+02 -0.24391549540E+01  0.72461575043E+02  0.70000006186E+02 0.  0.
         12    1    1    2    0    0  0.49334535602E+01 -0.17899456717E+02  0.24391549540E+01  0.18726424957E+02  0.00000000000E+00 0. -1.
         11    1    3    3    0    0 -0.11627943330E+00 -0.49979987325E+01 -0.30086766815E+01  0.58348648546E+01  0.51100000000E-03 0. -1.
        -11    1    3    3    0    0 -0.55175678821E+01 -0.15097923662E+02 -0.18166460938E+02  0.24257187750E+02  0.51100000000E-03 0.  1.
         12    1    3    3    0    0  0.70039375518E+00  0.37995379111E+02  0.18735982666E+02  0.42369522439E+02  0.00000000000E+00 0. -1.
</event>
<event>
 7    1  0.3416364E-013  0.7246167E+02  0.7816164E-02  0.1226708E+00
        -11   -1    0    0    0    0  0.00000000000E+00  0.00000000000E+00  0.45593999997E+02  0.45594000000E+02  0.51100000000E-03 0.  1.
         11   -1    0    0    0    0 -0.00000000000E+00 -0.00000000000E+00 -0.45593999997E+02  0.45594000000E+02  0.51100000000E-03 0. -1.
    9900012    2    1    2    0    0 -0.42834379002E+00  0.18721223957E+02 -0.88294789586E-01  0.72461668250E+02  0.70000127605E+02 0.  0.
         12    1    1    2    0    0  0.42834379002E+00 -0.18721223957E+02  0.88294789586E-01  0.18726331750E+02  0.00000000000E+00 0. -1.
         11    1    3    3    0    0  0.16518086832E+02  0.78089819431E+01 -0.17684313915E+02  0.25427590340E+02  0.51100000000E-03 0. -1.
        -11    1    3    3    0    0 -0.10019595748E+02  0.23541373844E+02  0.17871788519E+01  0.25647272563E+02  0.51100000000E-03 0.  1.
        -12    1    3    3    0    0 -0.69268348735E+01 -0.12629131830E+02  0.15808840273E+02  0.21386805347E+02  0.00000000000E+00 0.  1.
</event>
<event>
 7    1  0.3162486E-013  0.7246192E+02  0.7816164E-02  0.1226707E+00
        -11   -1    0    0    0    0  0.00000000000E+00  0.00000000000E+00  0.45593999997E+02  0.45594000000E+02  0.51100000000E-03 0.  1.
         11   -1    0    0    0    0 -0.00000000000E+00 -0.00000000000E+00 -0.45593999997E+02  0.45594000000E+02  0.51100000000E-03 0. -1.
    9900012    2    1    2    0    0  0.48864354616E+01 -0.10597416740E+02  0.14645253985E+02  0.72461923066E+02  0.70000459548E+02 0.  0.
         12    1    1    2    0    0 -0.48864354616E+01  0.10597416740E+02 -0.14645253985E+02  0.18726076934E+02  0.00000000000E+00 0. -1.
         11    1    3    3    0    0  0.19399627815E+01  0.22496083154E+02 -0.45015427211E+01  0.23023924513E+02  0.51100000000E-03 0. -1.
        -11    1    3    3    0    0 -0.76549656559E+01  0.14424834319E+01  0.90219347394E+01  0.11919503528E+02  0.51100000000E-03 0.  1.
        -12    1    3    3    0    0  0.10601438336E+02 -0.34535983326E+02  0.10124861967E+02  0.37518495024E+02  0.00000000000E+00 0.  1.
</event>
<event>
 7    1  0.3162486E-013  0.7246160E+02  0.7816164E-02  0.1226708E+00
        -11   -1    0    0    0    0  0.00000000000E+00  0.00000000000E+00  0.45593999997E+02  0.45594000000E+02  0.51100000000E-03 0.  1.
         11   -1    0    0    0    0 -0.00000000000E+00 -0.00000000000E+00 -0.45593999997E+02  0.45594000000E+02  0.51100000000E-03 0. -1.
    9900012    2    1    2    0    0  0.19068040045E+00 -0.18314051043E+02  0.39034754597E+01  0.72461602982E+02  0.70000042581E+02 0.  0.
         12    1    1    2    0    0 -0.19068040045E+00  0.18314051043E+02 -0.39034754597E+01  0.18726397018E+02  0.00000000000E+00 0. -1.
         11    1    3    3    0    0  0.15272052007E+02 -0.26896078337E+02 -0.80818411441E+01  0.31967964574E+02  0.51100000000E-03 0. -1.
        -11    1    3    3    0    0  0.36816343165E+01  0.14916733580E+02  0.13740838938E+02  0.20612472606E+02  0.51100000000E-03 0.  1.
         12    1    3    3    0    0 -0.18763005923E+02 -0.63347062858E+01 -0.17555223339E+01  0.19881165802E+02  0.00000000000E+00 0. -1.
</event>
<event>
 7    1  0.3162486E-013  0.7246157E+02  0.7816164E-02  0.1226708E+00
        -11   -1    0    0    0    0  0.00000000000E+00  0.00000000000E+00  0.45593999997E+02  0.45594000000E+02  0.51100000000E-03 0. -1.
         11   -1    0    0    0    0 -0.00000000000E+00 -0.00000000000E+00 -0.45593999997E+02  0.45594000000E+02  0.51100000000E-03 0.  1.
    9900012    2    1    2    0    0  0.88853682113E+01  0.59433113145E+01 -0.15375520379E+02  0.72461565621E+02  0.69999993912E+02 0.  0.
         12    1    1    2    0    0 -0.88853682113E+01 -0.59433113145E+01  0.15375520379E+02  0.18726434379E+02  0.00000000000E+00 0. -1.
         11    1    3    3    0    0  0.22470034130E+01  0.50423280641E+01  0.23888389168E+02  0.24517936984E+02  0.51100000000E-03 0. -1.
        -11    1    3    3    0    0 -0.22910947305E+01  0.12323975922E+01  0.34410794830E+01  0.43138088922E+01  0.51100000000E-03 0.  1.
        -12    1    3    3    0    0  0.89294595288E+01 -0.33141434180E+00 -0.42704989030E+02  0.43629819745E+02  0.00000000000E+00 0.  1.
</event>
<event>
 7    1  0.3162486E-013  0.7246157E+02  0.7816164E-02  0.1226708E+00
        -11   -1    0    0    0    0  0.00000000000E+00  0.00000000000E+00  0.45593999997E+02  0.45594000000E+02  0.51100000000E-03 0.  1.
         11   -1    0    0    0    0 -0.00000000000E+00 -0.00000000000E+00 -0.45593999997E+02  0.45594000000E+02  0.51100000000E-03 0. -1.
    9900012    2    1    2    0    0  0.10747759347E+01 -0.12756351069E+02  0.13667467561E+02  0.72461566665E+02  0.69999995272E+02 0.  0.
         12    1    1    2    0    0 -0.10747759347E+01  0.12756351069E+02 -0.13667467561E+02  0.18726433335E+02  0.00000000000E+00 0. -1.
         11    1    3    3    0    0  0.10307601726E+02  0.96824216197E+01  0.94862103905E+01  0.17028920388E+02  0.51100000000E-03 0. -1.
        -11    1    3    3    0    0  0.16478122468E+02  0.38564430329E+01  0.74922144974E+01  0.18507672768E+02  0.51100000000E-03 0.  1.
        -12    1    3    3    0    0 -0.25710948259E+02 -0.26295215722E+02 -0.33109573267E+01  0.36924973509E+02  0.00000000000E+00 0.  1.
</event>
<event>
 7    1  0.3162486E-013  0.7246157E+02  0.7816164E-02  0.1226708E+00
        -11   -1    0    0    0    0  0.00000000000E+00  0.00000000000E+00  0.45593999997E+02  0.45594000000E+02  0.51100000000E-03 0.  1.
         11   -1    0    0    0    0 -0.00000000000E+00 -0.00000000000E+00 -0.45593999997E+02  0.45594000000E+02  0.51100000000E-03 0. -1.
    9900012    2    1    2    0    0  0.10364774224E+02  0.11246113735E+02  0.10806279137E+02  0.72461567140E+02  0.69999995892E+02 0.  0.
         12    1    1    2    0    0 -0.10364774224E+02 -0.11246113735E+02 -0.10806279137E+02  0.18726432860E+02  0.00000000000E+00 0. -1.
         11    1    3    3    0    0  0.11341566961E+02 -0.13555553595E+01  0.20666752460E+02  0.23613202429E+02  0.51100000000E-03 0. -1.
        -11    1    3    3    0    0  0.16526099634E+02  0.13056408331E+02  0.91856044753E+01  0.22977317021E+02  0.51100000000E-03 0.  1.
         12    1    3    3    0    0 -0.17502892371E+02 -0.45473923676E+00 -0.19046077798E+02  0.25871047691E+02  0.00000000000E+00 0. -1.
</event>
<event>
 7    1  0.3162486E-013  0.7246154E+02  0.7816164E-02  0.1226708E+00
        -11   -1    0    0    0    0  0.00000000000E+00  0.00000000000E+00  0.45593999997E+02  0.45594000000E+02  0.51100000000E-03 0.  1.
         11   -1    0    0    0    0 -0.00000000000E+00 -0.00000000000E+00 -0.45593999997E+02  0.45594000000E+02  0.51100000000E-03 0. -1.
    9900012    2    1    2    0    0 -0.13910856335E+02  0.96112964068E+01  0.80493115444E+01  0.72461538537E+02  0.69999958630E+02 0.  0.
         12    1    1    2    0    0  0.13910856335E+02 -0.96112964068E+01 -0.80493115444E+01  0.18726461463E+02  0.00000000000E+00 0. -1.
         11    1    3    3    0    0 -0.52499623381E+01 -0.62937359259E+01 -0.67696877563E+01  0.10630234665E+02  0.51100000000E-03 0.  1.
        -11    1    3    3    0    0 -0.10370438209E+02 -0.15823328905E+02 -0.10104545633E+02  0.21448206661E+02  0.51100000000E-03 0. -1.
        -12    1    3    3    0    0  0.17095442124E+01  0.31728361238E+02  0.24923544933E+02  0.40383097210E+02  0.00000000000E+00 0.  1.
</event>
<event>
 7    1  0.3162486E-013  0.7246156E+02  0.7816164E-02  0.1226708E+00
        -11   -1    0    0    0    0  0.00000000000E+00  0.00000000000E+00  0.45593999997E+02  0.45594000000E+02  0.51100000000E-03 0. -1.
         11   -1    0    0    0    0 -0.00000000000E+00 -0.00000000000E+00 -0.45593999997E+02  0.45594000000E+02  0.51100000000E-03 0.  1.
    9900012    2    1    2    0    0 -0.16462832947E+01  0.18308383546E+02  0.35738649822E+01  0.72461556994E+02  0.69999982674E+02 0.  0.
         12    1    1    2    0    0  0.16462832947E+01 -0.18308383546E+02 -0.35738649822E+01  0.18726443006E+02  0.00000000000E+00 0. -1.
         11    1    3    3    0    0  0.11364079131E+02 -0.94015276090E+01 -0.52724062298E+01  0.15662990889E+02  0.51100000000E-03 0. -1.
        -11    1    3    3    0    0  0.12091039851E+02  0.12544525387E+02 -0.11703203747E+02  0.20988647886E+02  0.51100000000E-03 0.  1.
        -12    1    3    3    0    0 -0.25101402277E+02  0.15165385768E+02  0.20549474959E+02  0.35809918219E+02  0.00000000000E+00 0.  1.
</event>
<event>
 7    1  0.3162486E-013  0.7246156E+02  0.7816164E-02  0.1226708E+00
        -11   -1    0    0    0    0  0.00000000000E+00  0.00000000000E+00  0.45593999997E+02  0.45594000000E+02  0.51100000000E-03 0.  1.
         11   -1    0    0    0    0 -0.00000000000E+00 -0.00000000000E+00 -0.45593999997E+02  0.45594000000E+02  0.51100000000E-03 0. -1.
    9900012    2    1    2    0    0 -0.13177384678E+02  0.34953054560E+01  0.12838178244E+02  0.72461562864E+02  0.69999990321E+02 0.  0.
         12    1    1    2    0    0  0.13177384678E+02 -0.34953054560E+01 -0.12838178244E+02  0.18726437136E+02  0.00000000000E+00 0. -1.
         11    1    3    3    0    0 -0.15770534739E+02  0.79693144843E+01 -0.11480985759E+02  0.21072085173E+02  0.51100000000E-03 0. -1.
        -11    1    3    3    0    0  0.18682248745E+00  0.35147039714E+01 -0.12835629231E+02  0.13309448699E+02  0.51100000000E-03 0.  1.
        -12    1    3    3    0    0  0.24063275736E+01 -0.79887129996E+01  0.37154793234E+02  0.38080028992E+02  0.00000000000E+00 0.  1.
</event>
<event>
 7    1  0.3162486E-013  0.7246160E+02  0.7816164E-02  0.1226708E+00
        -11   -1    0    0    0    0  0.00000000000E+00  0.00000000000E+00  0.45593999997E+02  0.45594000000E+02  0.51100000000E-03 0. -1.
         11   -1    0    0    0    0 -0.00000000000E+00 -0.00000000000E+00 -0.45593999997E+02  0.45594000000E+02  0.51100000000E-03 0.  1.
    9900012    2    1    2    0    0  0.11998025524E+02 -0.10114535190E+02  0.10218682470E+02  0.72461603923E+02  0.70000043808E+02 0.  0.
         12    1    1    2    0    0 -0.11998025524E+02  0.10114535190E+02 -0.10218682470E+02  0.18726396077E+02  0.00000000000E+00 0. -1.
         11    1    3    3    0    0  0.97016636898E+01 -0.47048726597E+01  0.26707425311E+02  0.28801817167E+02  0.51100000000E-03 0. -1.
        -11    1    3    3    0    0  0.24912356369E+01  0.40118667433E+01  0.12402171312E+02  0.13270839584E+02  0.51100000000E-03 0.  1.
        -12    1    3    3    0    0 -0.19487380227E+00 -0.94215292738E+01 -0.28890914153E+02  0.30388947172E+02  0.00000000000E+00 0.  1.
</event>
<event>
 7    1  0.3162486E-013  0.7246157E+02  0.7816164E-02  0.1226708E+00
        -11   -1    0    0    0    0  0.00000000000E+00  0.00000000000E+00  0.45593999997E+02  0.45594000000E+02  0.51100000000E-03 0.  1.
         11   -1    0    0    0    0 -0.00000000000E+00 -0.00000000000E+00 -0.45593999997E+02  0.45594000000E+02  0.51100000000E-03 0. -1.
    9900012    2    1    2    0    0  0.88517960599E+01  0.33038717432E+01  0.16168158342E+02  0.72461569316E+02  0.69999998726E+02 0.  0.
         12    1    1    2    0    0 -0.88517960599E+01 -0.33038717432E+01 -0.16168158342E+02  0.18726430684E+02  0.00000000000E+00 0. -1.
         11    1    3    3    0    0  0.22733158390E+02 -0.22940963569E+02  0.78697566461E+01  0.33241801542E+02  0.51100000000E-03 0. -1.
        -11    1    3    3    0    0  0.19993255556E+01 -0.36725568000E+01 -0.53563478192E+00  0.42156708847E+01  0.51100000000E-03 0.  1.
        -12    1    3    3    0    0 -0.15880687886E+02  0.29917392112E+02  0.88340364780E+01  0.35004096889E+02  0.00000000000E+00 0.  1.
</event>
<event>
 7    1  0.3162486E-013  0.7246156E+02  0.7816164E-02  0.1226708E+00
        -11   -1    0    0    0    0  0.00000000000E+00  0.00000000000E+00  0.45593999997E+02  0.45594000000E+02  0.51100000000E-03 0.  1.
         11   -1    0    0    0    0 -0.00000000000E+00 -0.00000000000E+00 -0.45593999997E+02  0.45594000000E+02  0.51100000000E-03 0. -1.
    9900012    2    1    2    0    0  0.11326833217E+02  0.80537547831E+01  0.12550681377E+02  0.72461555600E+02  0.69999980858E+02 0.  0.
         12    1    1    2    0    0 -0.11326833217E+02 -0.80537547831E+01 -0.12550681377E+02  0.18726444400E+02  0.00000000000E+00 0. -1.
         11    1    3    3    0    0 -0.14013948130E+02 -0.14687587563E+02  0.96240596111E+01  0.22466385874E+02  0.51100000000E-03 0. -1.
        -11    1    3    3    0    0  0.59001352309E+01 -0.78284264640E+01  0.89453818178E+01  0.13270859534E+02  0.51100000000E-03 0.  1.
        -12    1    3    3    0    0  0.19440646116E+02  0.30569768810E+02 -0.60187600521E+01  0.36724310192E+02  0.00000000000E+00 0.  1.
</event>
<event>
 7    1  0.3162486E-013  0.7246160E+02  0.7816164E-02  0.1226708E+00
        -11   -1    0    0    0    0  0.00000000000E+00  0.00000000000E+00  0.45593999997E+02  0.45594000000E+02  0.51100000000E-03 0.  1.
         11   -1    0    0    0    0 -0.00000000000E+00 -0.00000000000E+00 -0.45593999997E+02  0.45594000000E+02  0.51100000000E-03 0. -1.
    9900012    2    1    2    0    0  0.13832271335E+01 -0.18662526272E+02 -0.68902790772E+00  0.72461602492E+02  0.70000041943E+02 0.  0.
         12    1    1    2    0    0 -0.13832271335E+01  0.18662526272E+02  0.68902790772E+00  0.18726397508E+02  0.00000000000E+00 0. -1.
         11    1    3    3    0    0 -0.18027191130E+02  0.76022628172E+00  0.50003418737E+01  0.18723273837E+02  0.51100000000E-03 0.  1.
        -11    1    3    3    0    0  0.22732006317E+02 -0.51977335940E+01  0.15501105660E+02  0.28000800393E+02  0.51100000000E-03 0. -1.
         12    1    3    3    0    0 -0.33215880535E+01 -0.14225018960E+02 -0.21190475441E+02  0.25737528262E+02  0.00000000000E+00 0. -1.
</event>
<event>
 7    1  0.3162486E-013  0.7246155E+02  0.7816164E-02  0.1226708E+00
        -11   -1    0    0    0    0  0.00000000000E+00  0.00000000000E+00  0.45593999997E+02  0.45594000000E+02  0.51100000000E-03 0. -1.
         11   -1    0    0    0    0 -0.00000000000E+00 -0.00000000000E+00 -0.45593999997E+02  0.45594000000E+02  0.51100000000E-03 0.  1.
    9900012    2    1    2    0    0 -0.16118744256E+00  0.18480092015E+02 -0.30232391247E+01  0.72461554606E+02  0.69999979563E+02 0.  0.
         12    1    1    2    0    0  0.16118744256E+00 -0.18480092015E+02  0.30232391247E+01  0.18726445394E+02  0.00000000000E+00 0. -1.
         11    1    3    3    0    0 -0.97260500330E+01  0.31920874309E+01 -0.24665820270E+02  0.26705582961E+02  0.51100000000E-03 0. -1.
        -11    1    3    3    0    0  0.24172673677E+01  0.17077978729E+02 -0.51244104910E+01  0.17993335492E+02  0.51100000000E-03 0.  1.
         12    1    3    3    0    0  0.71475952227E+01 -0.17899741442E+01  0.26766991637E+02  0.27762636153E+02  0.00000000000E+00 0. -1.
</event>
<event>
 7    1  0.3162486E-013  0.7246156E+02  0.7816164E-02  0.1226708E+00
        -11   -1    0    0    0    0  0.00000000000E+00  0.00000000000E+00  0.45593999997E+02  0.45594000000E+02  0.51100000000E-03 0.  1.
         11   -1    0    0    0    0 -0.00000000000E+00 -0.00000000000E+00 -0.45593999997E+02  0.45594000000E+02  0.51100000000E-03 0. -1.
    9900012    2    1    2    0    0  0.38519842426E+01  0.90161107534E+01  0.15954676544E+02  0.72461555080E+02  0.69999980181E+02 0.  0.
         12    1    1    2    0    0 -0.38519842426E+01 -0.90161107534E+01 -0.15954676544E+02  0.18726444920E+02  0.00000000000E+00 0. -1.
         11    1    3    3    0    0 -0.35498843412E+01  0.53499668631E+01  0.19470242783E+01  0.67093016085E+01  0.51100000000E-03 0. -1.
        -11    1    3    3    0    0  0.11992878057E+02  0.29350267093E+02  0.21852576494E+02  0.38507173387E+02  0.51100000000E-03 0.  1.
         12    1    3    3    0    0 -0.45910094736E+01 -0.25684123203E+02 -0.78449242289E+01  0.27245080085E+02  0.00000000000E+00 0. -1.
</event>
<event>
 7    1  0.3162486E-013  0.7246157E+02  0.7816164E-02  0.1226708E+00
        -11   -1    0    0    0    0  0.00000000000E+00  0.00000000000E+00  0.45593999997E+02  0.45594000000E+02  0.51100000000E-03 0.  1.
         11   -1    0    0    0    0 -0.00000000000E+00 -0.00000000000E+00 -0.45593999997E+02  0.45594000000E+02  0.51100000000E-03 0. -1.
    9900012    2    1    2    0    0 -0.12812807119E+02  0.10126268643E+02  0.91635015473E+01  0.72461572057E+02  0.70000002296E+02 0.  0.
         12    1    1    2    0    0  0.12812807119E+02 -0.10126268643E+02 -0.91635015473E+01  0.18726427943E+02  0.00000000000E+00 0. -1.
         11    1    3    3    0    0  0.56888489306E+01  0.47946533900E+01  0.10768538050E+02  0.13088663617E+02  0.51100000000E-03 0. -1.
        -11    1    3    3    0    0 -0.77597156647E+00  0.11137211700E+02  0.24711670064E+02  0.27116531008E+02  0.51100000000E-03 0.  1.
         12    1    3    3    0    0 -0.17725684483E+02 -0.58055964465E+01 -0.26316706567E+02  0.32256377432E+02  0.00000000000E+00 0. -1.
</event>
<event>
 7    1  0.3162486E-013  0.7246158E+02  0.7816164E-02  0.1226708E+00
        -11   -1    0    0    0    0  0.00000000000E+00  0.00000000000E+00  0.45593999997E+02  0.45594000000E+02  0.51100000000E-03 0. -1.
         11   -1    0    0    0    0 -0.00000000000E+00 -0.00000000000E+00 -0.45593999997E+02  0.45594000000E+02  0.51100000000E-03 0.  1.
    9900012    2    1    2    0    0 -0.53379788729E+01 -0.17883188624E+02  0.15415322924E+01  0.72461580812E+02  0.70000013701E+02 0.  0.
         12    1    1    2    0    0  0.53379788729E+01  0.17883188624E+02 -0.15415322924E+01  0.18726419188E+02  0.00000000000E+00 0. -1.
         11    1    3    3    0    0 -0.12000643708E+02 -0.60441689313E+01  0.13604484022E+02  0.19121438577E+02  0.51100000000E-03 0. -1.
        -11    1    3    3    0    0 -0.36977810492E+01 -0.23151833210E+02  0.10795632865E+02  0.25811366776E+02  0.51100000000E-03 0.  1.
         12    1    3    3    0    0  0.10360445885E+02  0.11312813517E+02 -0.22858584594E+02  0.27528775458E+02  0.00000000000E+00 0. -1.
</event>
<event>
 7    1  0.3162486E-013  0.7246157E+02  0.7816164E-02  0.1226708E+00
        -11   -1    0    0    0    0  0.00000000000E+00  0.00000000000E+00  0.45593999997E+02  0.45594000000E+02  0.51100000000E-03 0.  1.
         11   -1    0    0    0    0 -0.00000000000E+00 -0.00000000000E+00 -0.45593999997E+02  0.45594000000E+02  0.51100000000E-03 0. -1.
    9900012    2    1    2    0    0  0.92623228433E+01 -0.27459709313E+01  0.16042070744E+02  0.72461574432E+02  0.70000005390E+02 0.  0.
         12    1    1    2    0    0 -0.92623228433E+01  0.27459709313E+01 -0.16042070744E+02  0.18726425568E+02  0.00000000000E+00 0. -1.
         11    1    3    3    0    0  0.14839965151E+01 -0.76676297213E+01 -0.17980242347E+02  0.19603160621E+02  0.51100000000E-03 0. -1.
        -11    1    3    3    0    0  0.22476642600E+02  0.41949367095E+01  0.10613323874E+02  0.25207927334E+02  0.51100000000E-03 0.  1.
        -12    1    3    3    0    0 -0.14698316272E+02  0.72672208049E+00  0.23408989217E+02  0.27650486477E+02  0.00000000000E+00 0.  1.
</event>
<event>
 7    1  0.3162486E-013  0.7246154E+02  0.7816164E-02  0.1226708E+00
        -11   -1    0    0    0    0  0.00000000000E+00  0.00000000000E+00  0.45593999997E+02  0.45594000000E+02  0.51100000000E-03 0. -1.
         11   -1    0    0    0    0 -0.00000000000E+00 -0.00000000000E+00 -0.45593999997E+02  0.45594000000E+02  0.51100000000E-03 0.  1.
    9900012    2    1    2    0    0  0.94852792493E+01  0.11359951345E+02 -0.11474377961E+02  0.72461538332E+02  0.69999958363E+02 0.  0.
         12    1    1    2    0    0 -0.94852792493E+01 -0.11359951345E+02  0.11474377961E+02  0.18726461668E+02  0.00000000000E+00 0. -1.
         11    1    3    3    0    0 -0.21889782722E+02 -0.11508914103E+01 -0.16274240010E+02  0.27300879598E+02  0.51100000000E-03 0. -1.
        -11    1    3    3    0    0 -0.28949980380E+01 -0.39746090636E+01  0.51630286777E+01  0.71298945459E+01  0.51100000000E-03 0.  1.
        -12    1    3    3    0    0  0.34270060009E+02  0.16485451819E+02 -0.36316662899E+00  0.38030764188E+02  0.00000000000E+00 0.  1.
</event>
<event>
 7    1  0.3162486E-013  0.7246151E+02  0.7816164E-02  0.1226708E+00
        -11   -1    0    0    0    0  0.00000000000E+00  0.00000000000E+00  0.45593999997E+02  0.45594000000E+02  0.51100000000E-03 0. -1.
         11   -1    0    0    0    0 -0.00000000000E+00 -0.00000000000E+00 -0.45593999997E+02  0.45594000000E+02  0.51100000000E-03 0.  1.
    9900012    2    1    2    0    0 -0.73231294266E+01  0.64497030879E+01 -0.15982943418E+02  0.72461511412E+02  0.69999923295E+02 0.  0.
         12    1    1    2    0    0  0.73231294266E+01 -0.64497030879E+01  0.15982943418E+02  0.18726488588E+02  0.00000000000E+00 0. -1.
         11    1    3    3    0    0  0.10885197448E+01 -0.74876925362E+01 -0.13064938068E+02  0.15097782014E+02  0.51100000000E-03 0. -1.
        -11    1    3    3    0    0 -0.89748275234E+01 -0.20715296249E+02 -0.23943056805E+01  0.22702504878E+02  0.51100000000E-03 0.  1.
         12    1    3    3    0    0  0.56317835205E+00  0.34652691873E+02 -0.52369966996E+00  0.34661224521E+02  0.00000000000E+00 0. -1.
</event>
<event>
 7    1  0.3162486E-013  0.7246114E+02  0.7816164E-02  0.1226709E+00
        -11   -1    0    0    0    0  0.00000000000E+00  0.00000000000E+00  0.45593999997E+02  0.45594000000E+02  0.51100000000E-03 0.  1.
         11   -1    0    0    0    0 -0.00000000000E+00 -0.00000000000E+00 -0.45593999997E+02  0.45594000000E+02  0.51100000000E-03 0. -1.
    9900012    2    1    2    0    0  0.41522917847E+01 -0.10171385471E+02  0.15165644460E+02  0.72461137440E+02  0.69999436124E+02 0.  0.
         12    1    1    2    0    0 -0.41522917847E+01  0.10171385471E+02 -0.15165644460E+02  0.18726862560E+02  0.00000000000E+00 0. -1.
         11    1    3    3    0    0 -0.28867379972E+01  0.77585685525E+01  0.82013207946E+01  0.11652909735E+02  0.51100000000E-03 0. -1.
        -11    1    3    3    0    0  0.20328284498E+02  0.12513075469E+02  0.12794146886E+02  0.27083323340E+02  0.51100000000E-03 0.  1.
         12    1    3    3    0    0 -0.13289254716E+02 -0.30443029493E+02 -0.58298232213E+01  0.33724904365E+02  0.00000000000E+00 0. -1.
</event>
<event>
 7    1  0.3162486E-013  0.7246139E+02  0.7816164E-02  0.1226708E+00
        -11   -1    0    0    0    0  0.00000000000E+00  0.00000000000E+00  0.45593999997E+02  0.45594000000E+02  0.51100000000E-03 0.  1.
         11   -1    0    0    0    0 -0.00000000000E+00 -0.00000000000E+00 -0.45593999997E+02  0.45594000000E+02  0.51100000000E-03 0. -1.
    9900012    2    1    2    0    0 -0.11673286373E+02 -0.10467026734E+02  0.10240201557E+02  0.72461388151E+02  0.69999762724E+02 0.  0.
         12    1    1    2    0    0  0.11673286373E+02  0.10467026734E+02 -0.10240201557E+02  0.18726611849E+02  0.00000000000E+00 0. -1.
         11    1    3    3    0    0  0.12609541122E+02 -0.72527820272E+01 -0.80404064374E+01  0.16620815575E+02  0.51100000000E-03 0. -1.
        -11    1    3    3    0    0  0.56108823018E+01  0.45898314515E+01 -0.11065924301E+02  0.13228878783E+02  0.51100000000E-03 0.  1.
        -12    1    3    3    0    0 -0.29893709797E+02 -0.78040761586E+01  0.29346532296E+02  0.42611693793E+02  0.00000000000E+00 0.  1.
</event>
<event>
 7    1  0.3162486E-013  0.7246168E+02  0.7816164E-02  0.1226708E+00
        -11   -1    0    0    0    0  0.00000000000E+00  0.00000000000E+00  0.45593999997E+02  0.45594000000E+02  0.51100000000E-03 0.  1.
         11   -1    0    0    0    0 -0.00000000000E+00 -0.00000000000E+00 -0.45593999997E+02  0.45594000000E+02  0.51100000000E-03 0. -1.
    9900012    2    1    2    0    0  0.33605310764E+01 -0.11894473609E+02  0.14067810176E+02  0.72461682831E+02  0.70000146600E+02 0.  0.
         12    1    1    2    0    0 -0.33605310764E+01  0.11894473609E+02 -0.14067810176E+02  0.18726317169E+02  0.00000000000E+00 0. -1.
         11    1    3    3    0    0  0.10292405431E+02 -0.11789883537E+01 -0.13253743527E+02  0.16822168137E+02  0.51100000000E-03 0. -1.
        -11    1    3    3    0    0  0.52225948005E+01  0.11913857942E+02  0.26977845958E+02  0.29950286815E+02  0.51100000000E-03 0.  1.
        -12    1    3    3    0    0 -0.12154469155E+02 -0.22629343198E+02  0.34370774514E+00  0.25689227879E+02  0.00000000000E+00 0.  1.
</event>
<event>
 7    1  0.3162486E-013  0.7246157E+02  0.7816164E-02  0.1226708E+00
        -11   -1    0    0    0    0  0.00000000000E+00  0.00000000000E+00  0.45593999997E+02  0.45594000000E+02  0.51100000000E-03 0.  1.
         11   -1    0    0    0    0 -0.00000000000E+00 -0.00000000000E+00 -0.45593999997E+02  0.45594000000E+02  0.51100000000E-03 0. -1.
    9900012    2    1    2    0    0 -0.96379308436E+01  0.71848812049E+01  0.14358515872E+02  0.72461569296E+02  0.69999998699E+02 0.  0.
         12    1    1    2    0    0  0.96379308436E+01 -0.71848812049E+01 -0.14358515872E+02  0.18726430704E+02  0.00000000000E+00 0. -1.
         11    1    3    3    0    0  0.10550231149E+02  0.23603784910E+02  0.11088395100E+02  0.28131806652E+02  0.51100000000E-03 0. -1.
        -11    1    3    3    0    0 -0.20048831367E+02 -0.65719909419E+01  0.17234024736E+02  0.27242582715E+02  0.51100000000E-03 0.  1.
         12    1    3    3    0    0 -0.13933062640E+00 -0.98469127630E+01 -0.13963903964E+02  0.17087179928E+02  0.00000000000E+00 0. -1.
</event>
<event>
 7    1  0.3162486E-013  0.7246156E+02  0.7816164E-02  0.1226708E+00
        -11   -1    0    0    0    0  0.00000000000E+00  0.00000000000E+00  0.45593999997E+02  0.45594000000E+02  0.51100000000E-03 0.  1.
         11   -1    0    0    0    0 -0.00000000000E+00 -0.00000000000E+00 -0.45593999997E+02  0.45594000000E+02  0.51100000000E-03 0. -1.
    9900012    2    1    2    0    0 -0.17130715666E+02 -0.56685750470E+01  0.50085417619E+01  0.72461557389E+02  0.69999983188E+02 0.  0.
         12    1    1    2    0    0  0.17130715666E+02  0.56685750470E+01 -0.50085417619E+01  0.18726442611E+02  0.00000000000E+00 0. -1.
         11    1    3    3    0    0 -0.14351302355E+02  0.62764068910E+01 -0.27738946711E+02  0.31855962199E+02  0.51100000000E-03 0. -1.
        -11    1    3    3    0    0  0.45224795384E+01 -0.88882553401E+01  0.39273530081E+01  0.10718115789E+02  0.51100000000E-03 0.  1.
        -12    1    3    3    0    0 -0.73018928493E+01 -0.30567265979E+01  0.28820135465E+02  0.29887479400E+02  0.00000000000E+00 0.  1.
</event>
<event>
 7    1  0.3162486E-013  0.7246160E+02  0.7816164E-02  0.1226708E+00
        -11   -1    0    0    0    0  0.00000000000E+00  0.00000000000E+00  0.45593999997E+02  0.45594000000E+02  0.51100000000E-03 0.  1.
         11   -1    0    0    0    0 -0.00000000000E+00 -0.00000000000E+00 -0.45593999997E+02  0.45594000000E+02  0.51100000000E-03 0. -1.
    9900012    2    1    2    0    0  0.74558940479E+01  0.17151192411E+02  0.96147857882E+00  0.72461596228E+02  0.70000033784E+02 0.  0.
         12    1    1    2    0    0 -0.74558940479E+01 -0.17151192411E+02 -0.96147857882E+00  0.18726403772E+02  0.00000000000E+00 0. -1.
         11    1    3    3    0    0  0.23823739972E+02  0.15272136501E+02 -0.14028092430E+02  0.31584745006E+02  0.51100000000E-03 0. -1.
        -11    1    3    3    0    0 -0.69377994098E+01 -0.49143674790E+01 -0.10114391185E+02  0.13213060875E+02  0.51100000000E-03 0.  1.
        -12    1    3    3    0    0 -0.94300465148E+01  0.67934233884E+01  0.25103962194E+02  0.27663790348E+02  0.00000000000E+00 0.  1.
</event>
<event>
 7    1  0.3162486E-013  0.7246162E+02  0.7816164E-02  0.1226708E+00
        -11   -1    0    0    0    0  0.00000000000E+00  0.00000000000E+00  0.45593999997E+02  0.45594000000E+02  0.51100000000E-03 0.  1.
         11   -1    0    0    0    0 -0.00000000000E+00 -0.00000000000E+00 -0.45593999997E+02  0.45594000000E+02  0.51100000000E-03 0. -1.
    9900012    2    1    2    0    0  0.17071780768E+02 -0.52697041320E+01  0.56090748534E+01  0.72461622856E+02  0.70000068471E+02 0.  0.
         12    1    1    2    0    0 -0.17071780768E+02  0.52697041320E+01 -0.56090748534E+01  0.18726377144E+02  0.00000000000E+00 0. -1.
         11    1    3    3    0    0 -0.47542452964E+01 -0.77769012717E+01  0.73160768829E+01  0.11687943487E+02  0.51100000000E-03 0. -1.
        -11    1    3    3    0    0  0.45216856278E+01 -0.89926811457E+01  0.24992041831E+02  0.26942830405E+02  0.51100000000E-03 0.  1.
         12    1    3    3    0    0  0.17304340437E+02  0.11499878285E+02 -0.26699043861E+02  0.33830848964E+02  0.00000000000E+00 0. -1.
</event>
<event>
 7    1  0.3162486E-013  0.7246160E+02  0.7816164E-02  0.1226708E+00
        -11   -1    0    0    0    0  0.00000000000E+00  0.00000000000E+00  0.45593999997E+02  0.45594000000E+02  0.51100000000E-03 0.  1.
         11   -1    0    0    0    0 -0.00000000000E+00 -0.00000000000E+00 -0.45593999997E+02  0.45594000000E+02  0.51100000000E-03 0. -1.
    9900012    2    1    2    0    0 -0.86247713666E+01  0.79424131644E+01  0.14601698763E+02  0.72461595787E+02  0.70000033209E+02 0.  0.
         12    1    1    2    0    0  0.86247713666E+01 -0.79424131644E+01 -0.14601698763E+02  0.18726404213E+02  0.00000000000E+00 0. -1.
         11    1    3    3    0    0  0.96643450951E+01  0.21496016983E+02 -0.14856583198E+02  0.27860301090E+02  0.51100000000E-03 0. -1.
        -11    1    3    3    0    0 -0.18266634918E+01  0.66788716387E+01  0.95107334130E+01  0.11764271171E+02  0.51100000000E-03 0.  1.
        -12    1    3    3    0    0 -0.16462452970E+02 -0.20232475457E+02  0.19947548548E+02  0.32837023525E+02  0.00000000000E+00 0.  1.
</event>
<event>
 7    1  0.3162486E-013  0.7246154E+02  0.7816164E-02  0.1226708E+00
        -11   -1    0    0    0    0  0.00000000000E+00  0.00000000000E+00  0.45593999997E+02  0.45594000000E+02  0.51100000000E-03 0.  1.
         11   -1    0    0    0    0 -0.00000000000E+00 -0.00000000000E+00 -0.45593999997E+02  0.45594000000E+02  0.51100000000E-03 0. -1.
    9900012    2    1    2    0    0  0.32877696526E+01  0.17172064307E+02  0.67075343117E+01  0.72461541755E+02  0.69999962822E+02 0.  0.
         12    1    1    2    0    0 -0.32877696526E+01 -0.17172064307E+02 -0.67075343117E+01  0.18726458245E+02  0.00000000000E+00 0. -1.
         11    1    3    3    0    0  0.19044009645E+01  0.93293338291E+01 -0.13288264056E+01  0.96139998235E+01  0.51100000000E-03 0. -1.
        -11    1    3    3    0    0  0.14136970667E+02  0.29954890846E+02 -0.60817566100E+01  0.33676953380E+02  0.51100000000E-03 0.  1.
         12    1    3    3    0    0 -0.12753601979E+02 -0.22112160368E+02  0.14118117327E+02  0.29170588552E+02  0.00000000000E+00 0. -1.
</event>
<event>
 7    1  0.3162486E-013  0.7246155E+02  0.7816164E-02  0.1226708E+00
        -11   -1    0    0    0    0  0.00000000000E+00  0.00000000000E+00  0.45593999997E+02  0.45594000000E+02  0.51100000000E-03 0. -1.
         11   -1    0    0    0    0 -0.00000000000E+00 -0.00000000000E+00 -0.45593999997E+02  0.45594000000E+02  0.51100000000E-03 0.  1.
    9900012    2    1    2    0    0 -0.13056835093E+02  0.36824518994E+00 -0.13418763721E+02  0.72461554342E+02  0.69999979219E+02 0.  0.
         12    1    1    2    0    0  0.13056835093E+02 -0.36824518994E+00  0.13418763721E+02  0.18726445658E+02  0.00000000000E+00 0. -1.
         11    1    3    3    0    0 -0.82898737427E+00  0.41410411392E+01  0.52221175437E+00  0.42553668656E+01  0.51100000000E-03 0. -1.
        -11    1    3    3    0    0  0.29692117998E+01  0.29756968676E+02 -0.49566405273E+01  0.30312731468E+02  0.51100000000E-03 0.  1.
         12    1    3    3    0    0 -0.15197059519E+02 -0.33529764625E+02 -0.89843349479E+01  0.37893456009E+02  0.00000000000E+00 0. -1.
</event>
<event>
 7    1  0.3162486E-013  0.7246162E+02  0.7816164E-02  0.1226708E+00
        -11   -1    0    0    0    0  0.00000000000E+00  0.00000000000E+00  0.45593999997E+02  0.45594000000E+02  0.51100000000E-03 0. -1.
         11   -1    0    0    0    0 -0.00000000000E+00 -0.00000000000E+00 -0.45593999997E+02  0.45594000000E+02  0.51100000000E-03 0.  1.
    9900012    2    1    2    0    0 -0.16693787408E+02  0.48313155751E+00 -0.84712075327E+01  0.72461619913E+02  0.70000064637E+02 0.  0.
         12    1    1    2    0    0  0.16693787408E+02 -0.48313155751E+00  0.84712075327E+01  0.18726380087E+02  0.00000000000E+00 0. -1.
         11    1    3    3    0    0  0.94275751650E+01  0.84917335389E+01 -0.68909106322E+01  0.14438606636E+02  0.51100000000E-03 0. -1.
        -11    1    3    3    0    0  0.13928389157E+02 -0.20435764757E+01 -0.92049704657E+01  0.16819860607E+02  0.51100000000E-03 0.  1.
        -12    1    3    3    0    0 -0.40049751730E+02 -0.59650255057E+01  0.76246735652E+01  0.41203152669E+02  0.00000000000E+00 0.  1.
</event>
<event>
 7    1  0.3162486E-013  0.7246157E+02  0.7816164E-02  0.1226708E+00
        -11   -1    0    0    0    0  0.00000000000E+00  0.00000000000E+00  0.45593999997E+02  0.45594000000E+02  0.51100000000E-03 0. -1.
         11   -1    0    0    0    0 -0.00000000000E+00 -0.00000000000E+00 -0.45593999997E+02  0.45594000000E+02  0.51100000000E-03 0.  1.
    9900012    2    1    2    0    0 -0.15692382926E+02  0.80667312046E+01  0.62734371358E+01  0.72461573546E+02  0.70000004236E+02 0.  0.
         12    1    1    2    0    0  0.15692382926E+02 -0.80667312046E+01 -0.62734371358E+01  0.18726426454E+02  0.00000000000E+00 0. -1.
         11    1    3    3    0    0 -0.23936457634E+01  0.49849802026E+01  0.14416370845E+02  0.15440573703E+02  0.51100000000E-03 0. -1.
        -11    1    3    3    0    0 -0.11621268216E+02 -0.21381528818E+02  0.10211996957E+02  0.26391448078E+02  0.51100000000E-03 0.  1.
        -12    1    3    3    0    0 -0.16774689469E+01  0.24463279820E+02 -0.18354930667E+02  0.30629551766E+02  0.00000000000E+00 0.  1.
</event>
<event>
 7    1  0.3162486E-013  0.7246155E+02  0.7816164E-02  0.1226708E+00
        -11   -1    0    0    0    0  0.00000000000E+00  0.00000000000E+00  0.45593999997E+02  0.45594000000E+02  0.51100000000E-03 0. -1.
         11   -1    0    0    0    0 -0.00000000000E+00 -0.00000000000E+00 -0.45593999997E+02  0.45594000000E+02  0.51100000000E-03 0.  1.
    9900012    2    1    2    0    0 -0.95630878401E+01 -0.13754388045E+02 -0.83692371468E+01  0.72461548923E+02  0.69999972160E+02 0.  0.
         12    1    1    2    0    0  0.95630878401E+01  0.13754388045E+02  0.83692371468E+01  0.18726451077E+02  0.00000000000E+00 0. -1.
         11    1    3    3    0    0 -0.43434001068E+01 -0.78461581104E+01 -0.75104113675E+01  0.11697589527E+02  0.51100000000E-03 0. -1.
        -11    1    3    3    0    0  0.16083925223E+02  0.23800056470E+01 -0.23508973451E+02  0.28583717576E+02  0.51100000000E-03 0.  1.
         12    1    3    3    0    0 -0.21303612956E+02 -0.82882355814E+01  0.22650147672E+02  0.32180241820E+02  0.00000000000E+00 0. -1.
</event>
<event>
 7    1  0.4566139E-013  0.7246170E+02  0.7816164E-02  0.1226708E+00
        -11   -1    0    0    0    0  0.00000000000E+00  0.00000000000E+00  0.45593999997E+02  0.45594000000E+02  0.51100000000E-03 0. -1.
         11   -1    0    0    0    0 -0.00000000000E+00 -0.00000000000E+00 -0.45593999997E+02  0.45594000000E+02  0.51100000000E-03 0.  1.
    9900012    2    1    2    0    0  0.49960406433E+01  0.39857222457E+01 -0.17601929787E+02  0.72461699346E+02  0.70000168114E+02 0.  0.
         12    1    1    2    0    0 -0.49960406433E+01 -0.39857222457E+01  0.17601929787E+02  0.18726300654E+02  0.00000000000E+00 0. -1.
         11    1    3    3    0    0  0.19667254078E+02  0.93306467678E+01  0.28230676891E+01  0.21950662029E+02  0.51100000000E-03 0. -1.
        -11    1    3    3    0    0 -0.87077270458E+01 -0.37746447965E+01  0.13237607922E+02  0.16288238622E+02  0.51100000000E-03 0.  1.
        -12    1    3    3    0    0 -0.59634863893E+01 -0.15702797256E+01 -0.33662605398E+02  0.34222798695E+02  0.00000000000E+00 0.  1.
</event>
<event>
 7    1  0.3162486E-013  0.7246162E+02  0.7816164E-02  0.1226708E+00
        -11   -1    0    0    0    0  0.00000000000E+00  0.00000000000E+00  0.45593999997E+02  0.45594000000E+02  0.51100000000E-03 0. -1.
         11   -1    0    0    0    0 -0.00000000000E+00 -0.00000000000E+00 -0.45593999997E+02  0.45594000000E+02  0.51100000000E-03 0.  1.
    9900012    2    1    2    0    0 -0.41884795010E+01 -0.10018195528E+02 -0.15256788244E+02  0.72461623156E+02  0.70000068863E+02 0.  0.
         12    1    1    2    0    0  0.41884795010E+01  0.10018195528E+02  0.15256788244E+02  0.18726376844E+02  0.00000000000E+00 0. -1.
         11    1    3    3    0    0 -0.85098473862E+01  0.12130774701E+02  0.18786715754E+01  0.14936619582E+02  0.51100000000E-03 0. -1.
        -11    1    3    3    0    0 -0.14328640191E+01  0.11264390055E+02 -0.20518957075E+02  0.23451379113E+02  0.51100000000E-03 0.  1.
        -12    1    3    3    0    0  0.57542319043E+01 -0.33413360284E+02  0.33834972549E+01  0.34073624462E+02  0.00000000000E+00 0.  1.
</event>
<event>
 7    1  0.3162486E-013  0.7246156E+02  0.7816164E-02  0.1226708E+00
        -11   -1    0    0    0    0  0.00000000000E+00  0.00000000000E+00  0.45593999997E+02  0.45594000000E+02  0.51100000000E-03 0.  1.
         11   -1    0    0    0    0 -0.00000000000E+00 -0.00000000000E+00 -0.45593999997E+02  0.45594000000E+02  0.51100000000E-03 0. -1.
    9900012    2    1    2    0    0  0.44067165844E+01  0.23133291888E+01  0.18052945833E+02  0.72461561571E+02  0.69999988636E+02 0.  0.
         12    1    1    2    0    0 -0.44067165844E+01 -0.23133291888E+01 -0.18052945833E+02  0.18726438429E+02  0.00000000000E+00 0. -1.
         11    1    3    3    0    0 -0.70939223524E+01  0.48694090229E+01 -0.40797419028E+01  0.95225612536E+01  0.51100000000E-03 0. -1.
        -11    1    3    3    0    0  0.11664943763E+02 -0.16288574833E+02  0.37384936503E+02  0.42414880180E+02  0.51100000000E-03 0.  1.
         12    1    3    3    0    0 -0.16430482644E+00  0.13732494999E+02 -0.15252248767E+02  0.20524120138E+02  0.00000000000E+00 0. -1.
</event>
<event>
 7    1  0.3162486E-013  0.7246159E+02  0.7816164E-02  0.1226708E+00
        -11   -1    0    0    0    0  0.00000000000E+00  0.00000000000E+00  0.45593999997E+02  0.45594000000E+02  0.51100000000E-03 0.  1.
         11   -1    0    0    0    0 -0.00000000000E+00 -0.00000000000E+00 -0.45593999997E+02  0.45594000000E+02  0.51100000000E-03 0. -1.
    9900012    2    1    2    0    0  0.43258780855E+01 -0.17438099211E+01  0.18136268483E+02  0.72461592743E+02  0.70000029244E+02 0.  0.
         12    1    1    2    0    0 -0.43258780855E+01  0.17438099211E+01 -0.18136268483E+02  0.18726407257E+02  0.00000000000E+00 0. -1.
         11    1    3    3    0    0  0.18957679953E+01  0.20132843303E+02  0.20346386761E+02  0.28686247058E+02  0.51100000000E-03 0. -1.
        -11    1    3    3    0    0 -0.16024091643E+02 -0.13508126274E+02  0.61706041507E+01  0.21847593558E+02  0.51100000000E-03 0.  1.
        -12    1    3    3    0    0  0.18454201734E+02 -0.83685269501E+01 -0.83807224287E+01  0.21927752127E+02  0.00000000000E+00 0.  1.
</event>
<event>
 7    1  0.3162486E-013  0.7246152E+02  0.7816164E-02  0.1226708E+00
        -11   -1    0    0    0    0  0.00000000000E+00  0.00000000000E+00  0.45593999997E+02  0.45594000000E+02  0.51100000000E-03 0.  1.
         11   -1    0    0    0    0 -0.00000000000E+00 -0.00000000000E+00 -0.45593999997E+02  0.45594000000E+02  0.51100000000E-03 0. -1.
    9900012    2    1    2    0    0 -0.67117057245E+01  0.53388225399E+01 -0.16647255196E+02  0.72461518072E+02  0.69999931971E+02 0.  0.
         12    1    1    2    0    0  0.67117057245E+01 -0.53388225399E+01  0.16647255196E+02  0.18726481928E+02  0.00000000000E+00 0. -1.
         11    1    3    3    0    0  0.24256366334E+02 -0.38127279452E+01 -0.45534722222E+01  0.24972831471E+02  0.51100000000E-03 0. -1.
        -11    1    3    3    0    0 -0.44599648717E+01 -0.92849458979E+01 -0.11158647316E+02  0.15186076424E+02  0.51100000000E-03 0.  1.
         12    1    3    3    0    0 -0.26508107187E+02  0.18436496383E+02 -0.93513565787E+00  0.32302610177E+02  0.00000000000E+00 0. -1.
</event>
<event>
 7    1  0.3162486E-013  0.7246102E+02  0.7816164E-02  0.1226709E+00
        -11   -1    0    0    0    0  0.00000000000E+00  0.00000000000E+00  0.45593999997E+02  0.45594000000E+02  0.51100000000E-03 0.  1.
         11   -1    0    0    0    0 -0.00000000000E+00 -0.00000000000E+00 -0.45593999997E+02  0.45594000000E+02  0.51100000000E-03 0. -1.
    9900012    2    1    2    0    0  0.13792899507E+02 -0.11760845501E+02 -0.47051334215E+01  0.72461018283E+02  0.69999280899E+02 0.  0.
         12    1    1    2    0    0 -0.13792899507E+02  0.11760845501E+02  0.47051334215E+01  0.18726981717E+02  0.00000000000E+00 0. -1.
         11    1    3    3    0    0 -0.10376253254E+02 -0.10553947250E+02 -0.23260726670E+02  0.27570162126E+02  0.51100000000E-03 0. -1.
        -11    1    3    3    0    0  0.11479485832E+02  0.73091221108E+01 -0.68556540702E+01  0.15238170953E+02  0.51100000000E-03 0.  1.
        -12    1    3    3    0    0  0.12689666929E+02 -0.85160203616E+01  0.25411247319E+02  0.29652685205E+02  0.00000000000E+00 0.  1.
</event>
<event>
 7    1  0.3162486E-013  0.7246156E+02  0.7816164E-02  0.1226708E+00
        -11   -1    0    0    0    0  0.00000000000E+00  0.00000000000E+00  0.45593999997E+02  0.45594000000E+02  0.51100000000E-03 0. -1.
         11   -1    0    0    0    0 -0.00000000000E+00 -0.00000000000E+00 -0.45593999997E+02  0.45594000000E+02  0.51100000000E-03 0.  1.
    9900012    2    1    2    0    0 -0.30982970574E+01  0.83369066551E+01 -0.16479560803E+02  0.72461564635E+02  0.69999992628E+02 0.  0.
         12    1    1    2    0    0  0.30982970574E+01 -0.83369066551E+01  0.16479560803E+02  0.18726435365E+02  0.00000000000E+00 0. -1.
         11    1    3    3    0    0 -0.13346142474E+02  0.38291932638E+01 -0.27068904007E+02  0.30422159759E+02  0.51100000000E-03 0. -1.
        -11    1    3    3    0    0 -0.14292399538E+02  0.47915018172E+01 -0.55794921180E+00  0.15084511322E+02  0.51100000000E-03 0.  1.
         12    1    3    3    0    0  0.24540244955E+02 -0.28378842597E+00  0.11147292416E+02  0.26954893555E+02  0.00000000000E+00 0. -1.
</event>
<event>
 7    1  0.3162486E-013  0.7246156E+02  0.7816164E-02  0.1226708E+00
        -11   -1    0    0    0    0  0.00000000000E+00  0.00000000000E+00  0.45593999997E+02  0.45594000000E+02  0.51100000000E-03 0.  1.
         11   -1    0    0    0    0 -0.00000000000E+00 -0.00000000000E+00 -0.45593999997E+02  0.45594000000E+02  0.51100000000E-03 0. -1.
    9900012    2    1    2    0    0  0.18957542100E+01  0.72487076177E+01  0.17162218867E+02  0.72461564072E+02  0.69999991894E+02 0.  0.
         12    1    1    2    0    0 -0.18957542100E+01 -0.72487076177E+01 -0.17162218867E+02  0.18726435928E+02  0.00000000000E+00 0. -1.
         11    1    3    3    0    0  0.18049117997E+02  0.71443064532E+01  0.25692825525E+02  0.32201444982E+02  0.51100000000E-03 0.  1.
        -11    1    3    3    0    0  0.95056761679E+01  0.80138988556E+01 -0.16496504030E+01  0.12542001475E+02  0.51100000000E-03 0. -1.
         12    1    3    3    0    0 -0.25659039955E+02 -0.79094976911E+01 -0.68809562556E+01  0.27718117615E+02  0.00000000000E+00 0. -1.
</event>
