<event>
 7    1  0.5019004E-011  0.5052887E+02  0.7816164E-02  0.1300439E+00
        -11   -1    0    0    0    0  0.00000000000E+00  0.00000000000E+00  0.45593999997E+02  0.45594000000E+02  0.51100000000E-03 0. -1.
         11   -1    0    0    0    0 -0.00000000000E+00 -0.00000000000E+00 -0.45593999997E+02  0.45594000000E+02  0.51100000000E-03 0.  1.
    9900012    2    1    2    0    0  0.33758089220E+02 -0.22613099988E+02 -0.14846979521E+01  0.50528865640E+02  0.30000017601E+02 0.  0.
        -12    1    1    2    0    0 -0.33758089220E+02  0.22613099988E+02  0.14846979521E+01  0.40659134360E+02  0.00000000000E+00 0.  1.
         11    1    3    3    0    0 -0.17455717422E+00 -0.60762040896E+01  0.40493843018E+01  0.73039879402E+01  0.51100000000E-03 0. -1.
        -11    1    3    3    0    0  0.28836640052E+02 -0.20456606803E+02 -0.81517900426E+01  0.36283277864E+02  0.51100000000E-03 0.  1.
        -12    1    3    3    0    0  0.50960063424E+01  0.39197109050E+01  0.26177077887E+01  0.69415998363E+01  0.00000000000E+00 0.  1.
</event>
<event>
 7    1  0.5019004E-011  0.5052887E+02  0.7816164E-02  0.1300439E+00
        -11   -1    0    0    0    0  0.00000000000E+00  0.00000000000E+00  0.45593999997E+02  0.45594000000E+02  0.51100000000E-03 0. -1.
         11   -1    0    0    0    0 -0.00000000000E+00 -0.00000000000E+00 -0.45593999997E+02  0.45594000000E+02  0.51100000000E-03 0.  1.
    9900012    2    1    2    0    0 -0.69447146158E+01 -0.38212302138E+02 -0.12031462235E+02  0.50528865980E+02  0.30000018632E+02 0.  0.
        -12    1    1    2    0    0  0.69447146158E+01  0.38212302138E+02  0.12031462235E+02  0.40659134020E+02  0.00000000000E+00 0.  1.
         11    1    3    3    0    0  0.21030142772E+01 -0.27514632055E+02  0.38409842702E+01  0.27860918983E+02  0.51100000000E-03 0. -1.
        -11    1    3    3    0    0 -0.99536697602E+01 -0.71941420272E+01 -0.13893311175E+02  0.18543336185E+02  0.51100000000E-03 0.  1.
         12    1    3    3    0    0  0.90594086713E+00 -0.35035280554E+01 -0.19791353302E+01  0.41246108113E+01  0.00000000000E+00 0. -1.
</event>
<event>
 7    1  0.5795379E-011  0.5052886E+02  0.7816164E-02  0.1300439E+00
        -11   -1    0    0    0    0  0.00000000000E+00  0.00000000000E+00  0.45593999997E+02  0.45594000000E+02  0.51100000000E-03 0. -1.
         11   -1    0    0    0    0 -0.00000000000E+00 -0.00000000000E+00 -0.45593999997E+02  0.45594000000E+02  0.51100000000E-03 0.  1.
    9900012    2    1    2    0    0  0.74237518750E-01  0.23461442535E+02  0.33207241493E+02  0.50528859765E+02  0.29999999743E+02 0.  0.
        -12    1    1    2    0    0 -0.74237518750E-01 -0.23461442535E+02 -0.33207241493E+02  0.40659140235E+02  0.00000000000E+00 0.  1.
         11    1    3    3    0    0 -0.42729488135E+01  0.92174715119E+01  0.13896483722E+02  0.17214300239E+02  0.51100000000E-03 0. -1.
        -11    1    3    3    0    0  0.11901081232E+02  0.65125358698E+01  0.17830154007E+02  0.22404536374E+02  0.51100000000E-03 0.  1.
        -12    1    3    3    0    0 -0.75538948994E+01  0.77314351533E+01  0.14806037642E+01  0.10910023152E+02  0.00000000000E+00 0.  1.
</event>
<event>
 7    1  0.5019004E-011  0.5052886E+02  0.7816164E-02  0.1300439E+00
        -11   -1    0    0    0    0  0.00000000000E+00  0.00000000000E+00  0.45593999997E+02  0.45594000000E+02  0.51100000000E-03 0. -1.
         11   -1    0    0    0    0 -0.00000000000E+00 -0.00000000000E+00 -0.45593999997E+02  0.45594000000E+02  0.51100000000E-03 0.  1.
    9900012    2    1    2    0    0  0.52338490333E+01  0.36415878876E+02  0.17310573640E+02  0.50528863637E+02  0.30000011511E+02 0.  0.
        -12    1    1    2    0    0 -0.52338490333E+01 -0.36415878876E+02 -0.17310573640E+02  0.40659136363E+02  0.00000000000E+00 0.  1.
         11    1    3    3    0    0  0.30728897542E+01  0.19607048890E+02  0.22406041316E+02  0.29931750789E+02  0.51100000000E-03 0. -1.
        -11    1    3    3    0    0 -0.13158845429E+01  0.10348039427E+02  0.17328617137E+01  0.10574321827E+02  0.51100000000E-03 0.  1.
         12    1    3    3    0    0  0.34768438221E+01  0.64607905589E+01 -0.68283293888E+01  0.10022791021E+02  0.00000000000E+00 0. -1.
</event>
<event>
 7    1  0.5019004E-011  0.5052887E+02  0.7816164E-02  0.1300439E+00
        -11   -1    0    0    0    0  0.00000000000E+00  0.00000000000E+00  0.45593999997E+02  0.45594000000E+02  0.51100000000E-03 0.  1.
         11   -1    0    0    0    0 -0.00000000000E+00 -0.00000000000E+00 -0.45593999997E+02  0.45594000000E+02  0.51100000000E-03 0. -1.
    9900012    2    1    2    0    0  0.26967410915E+02  0.25785884629E+02 -0.16155863787E+02  0.50528867787E+02  0.30000024127E+02 0.  0.
        -12    1    1    2    0    0 -0.26967410915E+02 -0.25785884629E+02  0.16155863787E+02  0.40659132213E+02  0.00000000000E+00 0.  1.
         11    1    3    3    0    0  0.23821610351E+02  0.15060869699E+02 -0.34546037256E+01  0.28394245948E+02  0.51100000000E-03 0. -1.
        -11    1    3    3    0    0 -0.53861792523E+00  0.10956922257E+02 -0.14373749245E+02  0.18081728962E+02  0.51100000000E-03 0.  1.
         12    1    3    3    0    0  0.36844184894E+01 -0.23190732694E+00  0.16724891832E+01  0.40528928781E+01  0.00000000000E+00 0. -1.
</event>
<event>
 7    1  0.5019004E-011  0.5052886E+02  0.7816164E-02  0.1300439E+00
        -11   -1    0    0    0    0  0.00000000000E+00  0.00000000000E+00  0.45593999997E+02  0.45594000000E+02  0.51100000000E-03 0.  1.
         11   -1    0    0    0    0 -0.00000000000E+00 -0.00000000000E+00 -0.45593999997E+02  0.45594000000E+02  0.51100000000E-03 0. -1.
    9900012    2    1    2    0    0 -0.29171530603E+02  0.21373946497E+02 -0.18583372142E+02  0.50528861953E+02  0.30000006392E+02 0.  0.
        -12    1    1    2    0    0  0.29171530603E+02 -0.21373946497E+02  0.18583372142E+02  0.40659138047E+02  0.00000000000E+00 0.  1.
         11    1    3    3    0    0 -0.13891011276E+02  0.97557832150E+01 -0.14186136971E+02  0.22121979631E+02  0.51100000000E-03 0. -1.
        -11    1    3    3    0    0 -0.88340744198E+01 -0.79786212752E+00  0.62292181613E+01  0.10838847447E+02  0.51100000000E-03 0.  1.
         12    1    3    3    0    0 -0.64464449077E+01  0.12416025409E+02 -0.10626453333E+02  0.17568034874E+02  0.00000000000E+00 0. -1.
</event>
<event>
 7    1  0.5019004E-011  0.5052887E+02  0.7816164E-02  0.1300439E+00
        -11   -1    0    0    0    0  0.00000000000E+00  0.00000000000E+00  0.45593999997E+02  0.45594000000E+02  0.51100000000E-03 0.  1.
         11   -1    0    0    0    0 -0.00000000000E+00 -0.00000000000E+00 -0.45593999997E+02  0.45594000000E+02  0.51100000000E-03 0. -1.
    9900012    2    1    2    0    0  0.32741077837E+02 -0.12528176994E+00 -0.24107483217E+02  0.50528872851E+02  0.30000039518E+02 0.  0.
        -12    1    1    2    0    0 -0.32741077837E+02  0.12528176994E+00  0.24107483217E+02  0.40659127149E+02  0.00000000000E+00 0.  1.
         11    1    3    3    0    0  0.33718926595E+01 -0.29096773429E+01 -0.16090861447E+02  0.16695858909E+02  0.51100000000E-03 0. -1.
        -11    1    3    3    0    0  0.20858402792E+02 -0.35444918674E+01 -0.11305344580E+01  0.21187602462E+02  0.51100000000E-03 0.  1.
        -12    1    3    3    0    0  0.85107823848E+01  0.63288874404E+01 -0.68860873123E+01  0.12645411480E+02  0.00000000000E+00 0.  1.
</event>
<event>
 7    1  0.5019004E-011  0.5052884E+02  0.7816164E-02  0.1300439E+00
        -11   -1    0    0    0    0  0.00000000000E+00  0.00000000000E+00  0.45593999997E+02  0.45594000000E+02  0.51100000000E-03 0. -1.
         11   -1    0    0    0    0 -0.00000000000E+00 -0.00000000000E+00 -0.45593999997E+02  0.45594000000E+02  0.51100000000E-03 0.  1.
    9900012    2    1    2    0    0 -0.24834453338E+02  0.20835294667E+02  0.24541959195E+02  0.50528839438E+02  0.29999937957E+02 0.  0.
        -12    1    1    2    0    0  0.24834453338E+02 -0.20835294667E+02 -0.24541959195E+02  0.40659160562E+02  0.00000000000E+00 0.  1.
         11    1    3    3    0    0 -0.13839258364E+02  0.12860893630E+02  0.72613676176E+01  0.20239938661E+02  0.51100000000E-03 0. -1.
        -11    1    3    3    0    0  0.53213602751E+00  0.88059892351E+01  0.16493728791E+02  0.18704857788E+02  0.51100000000E-03 0.  1.
        -12    1    3    3    0    0 -0.11527331001E+02 -0.83158819865E+00  0.78686278572E+00  0.11584042990E+02  0.00000000000E+00 0.  1.
</event>
<event>
 7    1  0.5019004E-011  0.5052886E+02  0.7816164E-02  0.1300439E+00
        -11   -1    0    0    0    0  0.00000000000E+00  0.00000000000E+00  0.45593999997E+02  0.45594000000E+02  0.51100000000E-03 0. -1.
         11   -1    0    0    0    0 -0.00000000000E+00 -0.00000000000E+00 -0.45593999997E+02  0.45594000000E+02  0.51100000000E-03 0.  1.
    9900012    2    1    2    0    0 -0.32305417685E+02 -0.37740162322E+01 -0.24398406581E+02  0.50528862601E+02  0.30000008362E+02 0.  0.
        -12    1    1    2    0    0  0.32305417685E+02  0.37740162322E+01  0.24398406581E+02  0.40659137399E+02  0.00000000000E+00 0.  1.
         11    1    3    3    0    0 -0.31956378547E+02 -0.88492723368E+01 -0.10128984677E+02  0.34671545705E+02  0.51100000000E-03 0. -1.
        -11    1    3    3    0    0  0.13168677842E+01 -0.23269384894E+00 -0.23587527798E+01  0.27114575648E+01  0.51100000000E-03 0.  1.
         12    1    3    3    0    0 -0.16659069225E+01  0.53079499535E+01 -0.11910669124E+02  0.13145859331E+02  0.00000000000E+00 0. -1.
</event>
<event>
 7    1  0.5019004E-011  0.5052885E+02  0.7816164E-02  0.1300439E+00
        -11   -1    0    0    0    0  0.00000000000E+00  0.00000000000E+00  0.45593999997E+02  0.45594000000E+02  0.51100000000E-03 0.  1.
         11   -1    0    0    0    0 -0.00000000000E+00 -0.00000000000E+00 -0.45593999997E+02  0.45594000000E+02  0.51100000000E-03 0. -1.
    9900012    2    1    2    0    0 -0.34560947898E+01  0.36302435604E+02 -0.17982066307E+02  0.50528854280E+02  0.29999983070E+02 0.  0.
        -12    1    1    2    0    0  0.34560947898E+01 -0.36302435604E+02  0.17982066307E+02  0.40659145720E+02  0.00000000000E+00 0.  1.
         11    1    3    3    0    0  0.45274694135E-01  0.30971062277E+02 -0.22113746077E+02  0.38055571395E+02  0.51100000000E-03 0. -1.
        -11    1    3    3    0    0 -0.60880007336E+01  0.32765178106E+01  0.55621471036E+01  0.88733760520E+01  0.51100000000E-03 0.  1.
         12    1    3    3    0    0  0.25866312497E+01  0.20548555164E+01 -0.14304673340E+01  0.35999068333E+01  0.00000000000E+00 0. -1.
</event>
<event>
 7    1  0.5019004E-011  0.5052880E+02  0.7816164E-02  0.1300439E+00
        -11   -1    0    0    0    0  0.00000000000E+00  0.00000000000E+00  0.45593999997E+02  0.45594000000E+02  0.51100000000E-03 0.  1.
         11   -1    0    0    0    0 -0.00000000000E+00 -0.00000000000E+00 -0.45593999997E+02  0.45594000000E+02  0.51100000000E-03 0. -1.
    9900012    2    1    2    0    0  0.32981388736E+02 -0.15127964874E+02 -0.18345112349E+02  0.50528800902E+02  0.29999820821E+02 0.  0.
        -12    1    1    2    0    0 -0.32981388736E+02  0.15127964874E+02  0.18345112349E+02  0.40659199098E+02  0.00000000000E+00 0.  1.
         11    1    3    3    0    0  0.27363746640E+02 -0.14253279373E+02 -0.99369702879E+01  0.32414101589E+02  0.51100000000E-03 0. -1.
        -11    1    3    3    0    0  0.15982866245E+01  0.54131727802E+01 -0.90055229415E+01  0.10628095003E+02  0.51100000000E-03 0.  1.
         12    1    3    3    0    0  0.40193554716E+01 -0.62878582817E+01  0.59738088021E+00  0.74866043100E+01  0.00000000000E+00 0. -1.
</event>
<event>
 7    1  0.5019004E-011  0.5052886E+02  0.7816164E-02  0.1300439E+00
        -11   -1    0    0    0    0  0.00000000000E+00  0.00000000000E+00  0.45593999997E+02  0.45594000000E+02  0.51100000000E-03 0.  1.
         11   -1    0    0    0    0 -0.00000000000E+00 -0.00000000000E+00 -0.45593999997E+02  0.45594000000E+02  0.51100000000E-03 0. -1.
    9900012    2    1    2    0    0  0.29754614194E+02 -0.24411061455E+02 -0.13112154509E+02  0.50528861014E+02  0.30000003539E+02 0.  0.
        -12    1    1    2    0    0 -0.29754614194E+02  0.24411061455E+02  0.13112154509E+02  0.40659138986E+02  0.00000000000E+00 0.  1.
         11    1    3    3    0    0  0.94356898600E+01 -0.11096945442E+02  0.57853381035E+01  0.15673052623E+02  0.51100000000E-03 0. -1.
        -11    1    3    3    0    0  0.21270304631E+02 -0.65302400681E+01 -0.12708057121E+02  0.25623516747E+02  0.51100000000E-03 0.  1.
        -12    1    3    3    0    0 -0.95138029695E+00 -0.67838759445E+01 -0.61894354916E+01  0.92322916443E+01  0.00000000000E+00 0.  1.
</event>
<event>
 7    1  0.5019004E-011  0.5052886E+02  0.7816164E-02  0.1300439E+00
        -11   -1    0    0    0    0  0.00000000000E+00  0.00000000000E+00  0.45593999997E+02  0.45594000000E+02  0.51100000000E-03 0.  1.
         11   -1    0    0    0    0 -0.00000000000E+00 -0.00000000000E+00 -0.45593999997E+02  0.45594000000E+02  0.51100000000E-03 0. -1.
    9900012    2    1    2    0    0  0.38331718861E+02 -0.17008920050E+01 -0.13451838297E+02  0.50528860092E+02  0.30000000737E+02 0.  0.
        -12    1    1    2    0    0 -0.38331718861E+02  0.17008920050E+01  0.13451838297E+02  0.40659139908E+02  0.00000000000E+00 0.  1.
         11    1    3    3    0    0  0.23482074374E+02 -0.51767790521E+01  0.54792155704E+01  0.24662292306E+02  0.51100000000E-03 0. -1.
        -11    1    3    3    0    0  0.33511153265E+01  0.30113331551E+01 -0.11009771477E+02  0.11895930797E+02  0.51100000000E-03 0.  1.
        -12    1    3    3    0    0  0.11498529161E+02  0.46455389198E+00 -0.79212823904E+01  0.13970636989E+02  0.00000000000E+00 0.  1.
</event>
<event>
 7    1  0.5019004E-011  0.5052886E+02  0.7816164E-02  0.1300439E+00
        -11   -1    0    0    0    0  0.00000000000E+00  0.00000000000E+00  0.45593999997E+02  0.45594000000E+02  0.51100000000E-03 0.  1.
         11   -1    0    0    0    0 -0.00000000000E+00 -0.00000000000E+00 -0.45593999997E+02  0.45594000000E+02  0.51100000000E-03 0. -1.
    9900012    2    1    2    0    0  0.15992395040E+02 -0.36701489887E+02 -0.70999880912E+01  0.50528857240E+02  0.29999992068E+02 0.  0.
        -12    1    1    2    0    0 -0.15992395040E+02  0.36701489887E+02  0.70999880912E+01  0.40659142760E+02  0.00000000000E+00 0.  1.
         11    1    3    3    0    0  0.10408981871E+02 -0.64618488126E+01 -0.56401346797E+01  0.13487531766E+02  0.51100000000E-03 0. -1.
        -11    1    3    3    0    0 -0.14921051807E+00 -0.23866638236E+02 -0.91153148303E+01  0.25548535167E+02  0.51100000000E-03 0.  1.
        -12    1    3    3    0    0  0.57326236876E+01 -0.63730028380E+01  0.76554614189E+01  0.11492790308E+02  0.00000000000E+00 0.  1.
</event>
<event>
 7    1  0.5019004E-011  0.5052887E+02  0.7816164E-02  0.1300439E+00
        -11   -1    0    0    0    0  0.00000000000E+00  0.00000000000E+00  0.45593999997E+02  0.45594000000E+02  0.51100000000E-03 0.  1.
         11   -1    0    0    0    0 -0.00000000000E+00 -0.00000000000E+00 -0.45593999997E+02  0.45594000000E+02  0.51100000000E-03 0. -1.
    9900012    2    1    2    0    0  0.17712029127E+02 -0.32419719024E+02 -0.16982653988E+02  0.50528871949E+02  0.30000036775E+02 0.  0.
        -12    1    1    2    0    0 -0.17712029127E+02  0.32419719024E+02  0.16982653988E+02  0.40659128051E+02  0.00000000000E+00 0.  1.
         11    1    3    3    0    0 -0.96134105938E+00 -0.17016859294E+01 -0.10895063209E+01  0.22376183587E+01  0.51100000000E-03 0. -1.
        -11    1    3    3    0    0  0.16938156786E+01 -0.26266108831E+02 -0.15875524393E+02  0.30737757883E+02  0.51100000000E-03 0.  1.
        -12    1    3    3    0    0  0.16979554508E+02 -0.44519242639E+01 -0.17623273947E-01  0.17553495707E+02  0.00000000000E+00 0.  1.
</event>
<event>
 7    1  0.5019004E-011  0.5052886E+02  0.7816164E-02  0.1300439E+00
        -11   -1    0    0    0    0  0.00000000000E+00  0.00000000000E+00  0.45593999997E+02  0.45594000000E+02  0.51100000000E-03 0.  1.
         11   -1    0    0    0    0 -0.00000000000E+00 -0.00000000000E+00 -0.45593999997E+02  0.45594000000E+02  0.51100000000E-03 0. -1.
    9900012    2    1    2    0    0 -0.45754953503E+01  0.36087885917E+02 -0.18163017108E+02  0.50528857632E+02  0.29999993258E+02 0.  0.
        -12    1    1    2    0    0  0.45754953503E+01 -0.36087885917E+02  0.18163017108E+02  0.40659142368E+02  0.00000000000E+00 0.  1.
         11    1    3    3    0    0 -0.72579771052E+01  0.16868668021E+01 -0.81012858989E+01  0.11007024336E+02  0.51100000000E-03 0.  1.
        -11    1    3    3    0    0  0.86616528811E+01  0.27349792388E+02 -0.96483788712E+01  0.30267583144E+02  0.51100000000E-03 0. -1.
         12    1    3    3    0    0 -0.59791711262E+01  0.70512267268E+01 -0.41335233836E+00  0.92542501514E+01  0.00000000000E+00 0. -1.
</event>
<event>
 7    1  0.5019004E-011  0.5052886E+02  0.7816164E-02  0.1300439E+00
        -11   -1    0    0    0    0  0.00000000000E+00  0.00000000000E+00  0.45593999997E+02  0.45594000000E+02  0.51100000000E-03 0.  1.
         11   -1    0    0    0    0 -0.00000000000E+00 -0.00000000000E+00 -0.45593999997E+02  0.45594000000E+02  0.51100000000E-03 0. -1.
    9900012    2    1    2    0    0  0.85782625013E+00  0.26453148183E+01 -0.40563927335E+02  0.50528858872E+02  0.29999997028E+02 0.  0.
        -12    1    1    2    0    0 -0.85782625013E+00 -0.26453148183E+01  0.40563927335E+02  0.40659141128E+02  0.00000000000E+00 0.  1.
         11    1    3    3    0    0 -0.59803470887E+01  0.10220596640E+02 -0.35425058969E+02  0.37351839984E+02  0.51100000000E-03 0. -1.
        -11    1    3    3    0    0  0.71237372110E+01 -0.44317912209E+01 -0.17968386274E+01  0.85800369807E+01  0.51100000000E-03 0.  1.
         12    1    3    3    0    0 -0.28556387212E+00 -0.31434906005E+01 -0.33420297386E+01  0.45969819071E+01  0.00000000000E+00 0. -1.
</event>
<event>
 7    1  0.5019004E-011  0.5052887E+02  0.7816164E-02  0.1300439E+00
        -11   -1    0    0    0    0  0.00000000000E+00  0.00000000000E+00  0.45593999997E+02  0.45594000000E+02  0.51100000000E-03 0.  1.
         11   -1    0    0    0    0 -0.00000000000E+00 -0.00000000000E+00 -0.45593999997E+02  0.45594000000E+02  0.51100000000E-03 0. -1.
    9900012    2    1    2    0    0  0.19326503759E+02 -0.36862732428E+01 -0.35581774551E+02  0.50528867715E+02  0.30000023906E+02 0.  0.
        -12    1    1    2    0    0 -0.19326503759E+02  0.36862732428E+01  0.35581774551E+02  0.40659132285E+02  0.00000000000E+00 0.  1.
         11    1    3    3    0    0  0.11455151544E+01 -0.66213273177E+00 -0.26241312457E+02  0.26274647561E+02  0.51100000000E-03 0. -1.
        -11    1    3    3    0    0  0.26727975202E+01  0.44082476698E+01 -0.16226701021E+01  0.54045862583E+01  0.51100000000E-03 0.  1.
         12    1    3    3    0    0  0.15508191084E+02 -0.74323881808E+01 -0.77177919922E+01  0.18849633896E+02  0.00000000000E+00 0. -1.
</event>
<event>
 7    1  0.5019004E-011  0.5052889E+02  0.7816164E-02  0.1300439E+00
        -11   -1    0    0    0    0  0.00000000000E+00  0.00000000000E+00  0.45593999997E+02  0.45594000000E+02  0.51100000000E-03 0. -1.
         11   -1    0    0    0    0 -0.00000000000E+00 -0.00000000000E+00 -0.45593999997E+02  0.45594000000E+02  0.51100000000E-03 0.  1.
    9900012    2    1    2    0    0  0.19921035163E+02  0.35288951670E+02 -0.33174518167E+01  0.50528889846E+02  0.30000091176E+02 0.  0.
        -12    1    1    2    0    0 -0.19921035163E+02 -0.35288951670E+02  0.33174518167E+01  0.40659110154E+02  0.00000000000E+00 0.  1.
         11    1    3    3    0    0  0.24386695355E+02  0.25022978793E+02 -0.22471939903E+01  0.35013001287E+02  0.51100000000E-03 0. -1.
        -11    1    3    3    0    0 -0.21699089417E+01  0.53603647241E-03  0.34428322042E+01  0.40695944454E+01  0.51100000000E-03 0.  1.
         12    1    3    3    0    0 -0.22957512494E+01  0.10265436840E+02 -0.45130900306E+01  0.11446294114E+02  0.00000000000E+00 0. -1.
</event>
<event>
 7    1  0.5019004E-011  0.5052888E+02  0.7816164E-02  0.1300439E+00
        -11   -1    0    0    0    0  0.00000000000E+00  0.00000000000E+00  0.45593999997E+02  0.45594000000E+02  0.51100000000E-03 0.  1.
         11   -1    0    0    0    0 -0.00000000000E+00 -0.00000000000E+00 -0.45593999997E+02  0.45594000000E+02  0.51100000000E-03 0. -1.
    9900012    2    1    2    0    0  0.84317088413E+01 -0.23473039756E+02 -0.32110535147E+02  0.50528883227E+02  0.30000071056E+02 0.  0.
        -12    1    1    2    0    0 -0.84317088413E+01  0.23473039756E+02  0.32110535147E+02  0.40659116773E+02  0.00000000000E+00 0.  1.
         11    1    3    3    0    0 -0.35544238415E+01 -0.33364696631E+01 -0.11270524921E+02  0.12279686108E+02  0.51100000000E-03 0. -1.
        -11    1    3    3    0    0  0.13149562335E+02 -0.78141353454E+01 -0.20865887960E+02  0.25871934242E+02  0.51100000000E-03 0.  1.
        -12    1    3    3    0    0 -0.11634296522E+01 -0.12322434747E+02  0.25877734219E-01  0.12377262876E+02  0.00000000000E+00 0.  1.
</event>
<event>
 7    1  0.5019004E-011  0.5052886E+02  0.7816164E-02  0.1300439E+00
        -11   -1    0    0    0    0  0.00000000000E+00  0.00000000000E+00  0.45593999997E+02  0.45594000000E+02  0.51100000000E-03 0.  1.
         11   -1    0    0    0    0 -0.00000000000E+00 -0.00000000000E+00 -0.45593999997E+02  0.45594000000E+02  0.51100000000E-03 0. -1.
    9900012    2    1    2    0    0  0.69764330118E+01  0.13490921575E+02 -0.37715910652E+02  0.50528862050E+02  0.30000006688E+02 0.  0.
        -12    1    1    2    0    0 -0.69764330118E+01 -0.13490921575E+02  0.37715910652E+02  0.40659137950E+02  0.00000000000E+00 0.  1.
         11    1    3    3    0    0 -0.41351181171E+01  0.87689695808E+01 -0.48472267848E+01  0.10839263680E+02  0.51100000000E-03 0. -1.
        -11    1    3    3    0    0  0.15525542330E+02  0.65742911792E+01 -0.28956676325E+02  0.33507504729E+02  0.51100000000E-03 0.  1.
        -12    1    3    3    0    0 -0.44139912010E+01 -0.18523391850E+01 -0.39120075426E+01  0.61820936415E+01  0.00000000000E+00 0.  1.
</event>
<event>
 7    1  0.5019004E-011  0.5052886E+02  0.7816164E-02  0.1300439E+00
        -11   -1    0    0    0    0  0.00000000000E+00  0.00000000000E+00  0.45593999997E+02  0.45594000000E+02  0.51100000000E-03 0.  1.
         11   -1    0    0    0    0 -0.00000000000E+00 -0.00000000000E+00 -0.45593999997E+02  0.45594000000E+02  0.51100000000E-03 0. -1.
    9900012    2    1    2    0    0  0.21926945478E+02  0.22112002964E+00 -0.34239248217E+02  0.50528856496E+02  0.29999989804E+02 0.  0.
        -12    1    1    2    0    0 -0.21926945478E+02 -0.22112002964E+00  0.34239248217E+02  0.40659143504E+02  0.00000000000E+00 0.  1.
         11    1    3    3    0    0  0.72872510842E+01 -0.11595179955E+02 -0.16072839698E+02  0.21116069776E+02  0.51100000000E-03 0. -1.
        -11    1    3    3    0    0  0.12611990988E+00  0.81075677480E+01 -0.55283090984E+01  0.98138047040E+01  0.51100000000E-03 0.  1.
         12    1    3    3    0    0  0.14513574484E+02  0.37087322362E+01 -0.12638099420E+02  0.19598982016E+02  0.00000000000E+00 0. -1.
</event>
<event>
 7    1  0.5019004E-011  0.5052888E+02  0.7816164E-02  0.1300439E+00
        -11   -1    0    0    0    0  0.00000000000E+00  0.00000000000E+00  0.45593999997E+02  0.45594000000E+02  0.51100000000E-03 0.  1.
         11   -1    0    0    0    0 -0.00000000000E+00 -0.00000000000E+00 -0.45593999997E+02  0.45594000000E+02  0.51100000000E-03 0. -1.
    9900012    2    1    2    0    0 -0.90946513381E+01 -0.38312454760E+02  0.10129527931E+02  0.50528877914E+02  0.30000054907E+02 0.  0.
        -12    1    1    2    0    0  0.90946513381E+01  0.38312454760E+02 -0.10129527931E+02  0.40659122086E+02  0.00000000000E+00 0.  1.
         11    1    3    3    0    0 -0.11554533655E+02 -0.34292774491E+01 -0.10172935573E+01  0.12095539602E+02  0.51100000000E-03 0. -1.
        -11    1    3    3    0    0  0.28180039123E+01 -0.27802036344E+01  0.38236978350E+01  0.55037572342E+01  0.51100000000E-03 0.  1.
         12    1    3    3    0    0 -0.35812159526E+00 -0.32102973676E+02  0.73231236534E+01  0.32929581078E+02  0.00000000000E+00 0. -1.
</event>
<event>
 7    1  0.5019004E-011  0.5052886E+02  0.7816164E-02  0.1300439E+00
        -11   -1    0    0    0    0  0.00000000000E+00  0.00000000000E+00  0.45593999997E+02  0.45594000000E+02  0.51100000000E-03 0.  1.
         11   -1    0    0    0    0 -0.00000000000E+00 -0.00000000000E+00 -0.45593999997E+02  0.45594000000E+02  0.51100000000E-03 0. -1.
    9900012    2    1    2    0    0  0.21373333145E+02  0.31221353397E+01 -0.34447038827E+02  0.50528861018E+02  0.30000003551E+02 0.  0.
        -12    1    1    2    0    0 -0.21373333145E+02 -0.31221353397E+01  0.34447038827E+02  0.40659138982E+02  0.00000000000E+00 0.  1.
         11    1    3    3    0    0  0.13650621104E+02  0.39557283632E+01 -0.29064201131E+02  0.32352975614E+02  0.51100000000E-03 0. -1.
        -11    1    3    3    0    0  0.10114837833E+02  0.29807027405E+01  0.74576816286E+00  0.10571220537E+02  0.51100000000E-03 0.  1.
         12    1    3    3    0    0 -0.23921257924E+01 -0.38142957640E+01 -0.61286058582E+01  0.76046648676E+01  0.00000000000E+00 0. -1.
</event>
<event>
 7    1  0.5019004E-011  0.5052886E+02  0.7816164E-02  0.1300439E+00
        -11   -1    0    0    0    0  0.00000000000E+00  0.00000000000E+00  0.45593999997E+02  0.45594000000E+02  0.51100000000E-03 0.  1.
         11   -1    0    0    0    0 -0.00000000000E+00 -0.00000000000E+00 -0.45593999997E+02  0.45594000000E+02  0.51100000000E-03 0. -1.
    9900012    2    1    2    0    0 -0.16605853490E+02 -0.10699234277E+02 -0.35537833291E+02  0.50528861061E+02  0.30000003682E+02 0.  0.
        -12    1    1    2    0    0  0.16605853490E+02  0.10699234277E+02  0.35537833291E+02  0.40659138939E+02  0.00000000000E+00 0.  1.
         11    1    3    3    0    0 -0.19811461384E+02 -0.86325483239E+01 -0.12050666684E+02  0.24743351845E+02  0.51100000000E-03 0. -1.
        -11    1    3    3    0    0  0.12067023965E+01  0.39773311608E+01 -0.74489957333E+01  0.85301132191E+01  0.51100000000E-03 0.  1.
        -12    1    3    3    0    0  0.19989054979E+01 -0.60440171137E+01 -0.16038170874E+02  0.17255395997E+02  0.00000000000E+00 0.  1.
</event>
<event>
 7    1  0.5019004E-011  0.5052888E+02  0.7816164E-02  0.1300439E+00
        -11   -1    0    0    0    0  0.00000000000E+00  0.00000000000E+00  0.45593999997E+02  0.45594000000E+02  0.51100000000E-03 0.  1.
         11   -1    0    0    0    0 -0.00000000000E+00 -0.00000000000E+00 -0.45593999997E+02  0.45594000000E+02  0.51100000000E-03 0. -1.
    9900012    2    1    2    0    0  0.30305263566E+02 -0.37664392605E+01 -0.26843419668E+02  0.50528877482E+02  0.30000053593E+02 0.  0.
        -12    1    1    2    0    0 -0.30305263566E+02  0.37664392605E+01  0.26843419668E+02  0.40659122518E+02  0.00000000000E+00 0.  1.
         11    1    3    3    0    0  0.10700615125E-02 -0.70955157141E+01 -0.53723876701E+01  0.88999378612E+01  0.51100000000E-03 0. -1.
        -11    1    3    3    0    0  0.19886239474E+02  0.85872881395E+01 -0.20655393791E+02  0.29930742238E+02  0.51100000000E-03 0.  1.
         12    1    3    3    0    0  0.10417954031E+02 -0.52582116860E+01 -0.81563820710E+00  0.11698197383E+02  0.00000000000E+00 0. -1.
</event>
<event>
 7    1  0.5019004E-011  0.5052887E+02  0.7816164E-02  0.1300439E+00
        -11   -1    0    0    0    0  0.00000000000E+00  0.00000000000E+00  0.45593999997E+02  0.45594000000E+02  0.51100000000E-03 0.  1.
         11   -1    0    0    0    0 -0.00000000000E+00 -0.00000000000E+00 -0.45593999997E+02  0.45594000000E+02  0.51100000000E-03 0. -1.
    9900012    2    1    2    0    0 -0.11327601440E+02  0.65240199491E+01 -0.38500491583E+02  0.50528865199E+02  0.30000016258E+02 0.  0.
        -12    1    1    2    0    0  0.11327601440E+02 -0.65240199491E+01  0.38500491583E+02  0.40659134801E+02  0.00000000000E+00 0.  1.
         11    1    3    3    0    0  0.16942310071E+01 -0.51146065873E+01 -0.21637145037E+02  0.22297884762E+02  0.51100000000E-03 0. -1.
        -11    1    3    3    0    0 -0.10684961178E+01  0.50325884790E+01  0.14877518746E+01  0.53555612829E+01  0.51100000000E-03 0.  1.
         12    1    3    3    0    0 -0.11953336330E+02  0.66060380573E+01 -0.18351098421E+02  0.22875419154E+02  0.00000000000E+00 0. -1.
</event>
<event>
 7    1  0.5019004E-011  0.5052886E+02  0.7816164E-02  0.1300439E+00
        -11   -1    0    0    0    0  0.00000000000E+00  0.00000000000E+00  0.45593999997E+02  0.45594000000E+02  0.51100000000E-03 0. -1.
         11   -1    0    0    0    0 -0.00000000000E+00 -0.00000000000E+00 -0.45593999997E+02  0.45594000000E+02  0.51100000000E-03 0.  1.
    9900012    2    1    2    0    0  0.17185259713E+02  0.22074731843E+02  0.29504898363E+02  0.50528856320E+02  0.29999989271E+02 0.  0.
        -12    1    1    2    0    0 -0.17185259713E+02 -0.22074731843E+02 -0.29504898363E+02  0.40659143680E+02  0.00000000000E+00 0.  1.
         11    1    3    3    0    0  0.83690067281E+01  0.19361799861E+02  0.17089474529E+02  0.27147185994E+02  0.51100000000E-03 0. -1.
        -11    1    3    3    0    0  0.10992264682E+02 -0.34634251790E+00  0.63335918144E+00  0.11015942088E+02  0.51100000000E-03 0.  1.
         12    1    3    3    0    0 -0.21760116968E+01  0.30592744999E+01  0.11782064653E+02  0.12365728238E+02  0.00000000000E+00 0. -1.
</event>
<event>
 7    1  0.5019004E-011  0.5052885E+02  0.7816164E-02  0.1300439E+00
        -11   -1    0    0    0    0  0.00000000000E+00  0.00000000000E+00  0.45593999997E+02  0.45594000000E+02  0.51100000000E-03 0. -1.
         11   -1    0    0    0    0 -0.00000000000E+00 -0.00000000000E+00 -0.45593999997E+02  0.45594000000E+02  0.51100000000E-03 0.  1.
    9900012    2    1    2    0    0  0.34232705054E+02  0.98171084540E+01  0.19619183535E+02  0.50528854948E+02  0.29999985101E+02 0.  0.
        -12    1    1    2    0    0 -0.34232705054E+02 -0.98171084540E+01 -0.19619183535E+02  0.40659145052E+02  0.00000000000E+00 0.  1.
         11    1    3    3    0    0  0.52400972292E+01  0.12951351747E+02  0.10016666609E+02  0.17190978484E+02  0.51100000000E-03 0. -1.
        -11    1    3    3    0    0  0.83864420832E+00 -0.36452387246E+01  0.15646882553E+01  0.40545454819E+01  0.51100000000E-03 0.  1.
         12    1    3    3    0    0  0.28153963617E+02  0.51099543194E+00  0.80378286717E+01  0.29283330982E+02  0.00000000000E+00 0. -1.
</event>
<event>
 7    1  0.5019004E-011  0.5052886E+02  0.7816164E-02  0.1300439E+00
        -11   -1    0    0    0    0  0.00000000000E+00  0.00000000000E+00  0.45593999997E+02  0.45594000000E+02  0.51100000000E-03 0.  1.
         11   -1    0    0    0    0 -0.00000000000E+00 -0.00000000000E+00 -0.45593999997E+02  0.45594000000E+02  0.51100000000E-03 0. -1.
    9900012    2    1    2    0    0 -0.60871339324E+01 -0.13576122515E+02 -0.37839149947E+02  0.50528861166E+02  0.30000003999E+02 0.  0.
        -12    1    1    2    0    0  0.60871339324E+01  0.13576122515E+02  0.37839149947E+02  0.40659138834E+02  0.00000000000E+00 0.  1.
         11    1    3    3    0    0 -0.62966863766E+01  0.11581693917E+01 -0.81009753295E+01  0.10325474188E+02  0.51100000000E-03 0. -1.
        -11    1    3    3    0    0  0.81197300130E+01 -0.16896276141E+02 -0.18987212336E+02  0.26681986348E+02  0.51100000000E-03 0.  1.
        -12    1    3    3    0    0 -0.79101775688E+01  0.21619842344E+01 -0.10750962281E+02  0.13521400629E+02  0.00000000000E+00 0.  1.
</event>
<event>
 7    1  0.5019004E-011  0.5052886E+02  0.7816164E-02  0.1300439E+00
        -11   -1    0    0    0    0  0.00000000000E+00  0.00000000000E+00  0.45593999997E+02  0.45594000000E+02  0.51100000000E-03 0.  1.
         11   -1    0    0    0    0 -0.00000000000E+00 -0.00000000000E+00 -0.45593999997E+02  0.45594000000E+02  0.51100000000E-03 0. -1.
    9900012    2    1    2    0    0 -0.22669576639E+02 -0.41296032728E+01 -0.33499290393E+02  0.50528858531E+02  0.29999995990E+02 0.  0.
        -12    1    1    2    0    0  0.22669576639E+02  0.41296032728E+01  0.33499290393E+02  0.40659141469E+02  0.00000000000E+00 0.  1.
         11    1    3    3    0    0 -0.13454958927E+02  0.41639538687E+00 -0.60507953885E+01  0.14758774676E+02  0.51100000000E-03 0. -1.
        -11    1    3    3    0    0  0.33302055864E+01 -0.89407905732E+01 -0.98177635110E+01  0.13690014096E+02  0.51100000000E-03 0.  1.
        -12    1    3    3    0    0 -0.12544823299E+02  0.43947919135E+01 -0.17630731494E+02  0.22080069759E+02  0.00000000000E+00 0.  1.
</event>
<event>
 7    1  0.5019004E-011  0.5052886E+02  0.7816164E-02  0.1300439E+00
        -11   -1    0    0    0    0  0.00000000000E+00  0.00000000000E+00  0.45593999997E+02  0.45594000000E+02  0.51100000000E-03 0.  1.
         11   -1    0    0    0    0 -0.00000000000E+00 -0.00000000000E+00 -0.45593999997E+02  0.45594000000E+02  0.51100000000E-03 0. -1.
    9900012    2    1    2    0    0  0.24295085802E+02  0.19647153354E+02 -0.26017381568E+02  0.50528856223E+02  0.29999988975E+02 0.  0.
        -12    1    1    2    0    0 -0.24295085802E+02 -0.19647153354E+02  0.26017381568E+02  0.40659143777E+02  0.00000000000E+00 0.  1.
         11    1    3    3    0    0 -0.16664172428E+01 -0.14064286088E+01 -0.13108948446E+02  0.13289075117E+02  0.51100000000E-03 0. -1.
        -11    1    3    3    0    0  0.10104462169E+02  0.75362244414E+01  0.22884917959E+00  0.12607426651E+02  0.51100000000E-03 0.  1.
         12    1    3    3    0    0  0.15857040875E+02  0.13517357522E+02 -0.13137282302E+02  0.24632354454E+02  0.00000000000E+00 0. -1.
</event>
<event>
 7    1  0.5019004E-011  0.5052886E+02  0.7816164E-02  0.1300439E+00
        -11   -1    0    0    0    0  0.00000000000E+00  0.00000000000E+00  0.45593999997E+02  0.45594000000E+02  0.51100000000E-03 0.  1.
         11   -1    0    0    0    0 -0.00000000000E+00 -0.00000000000E+00 -0.45593999997E+02  0.45594000000E+02  0.51100000000E-03 0. -1.
    9900012    2    1    2    0    0 -0.69414773821E-01 -0.24090762693E+02 -0.32753567240E+02  0.50528857947E+02  0.29999994215E+02 0.  0.
        -12    1    1    2    0    0  0.69414773821E-01  0.24090762693E+02  0.32753567240E+02  0.40659142053E+02  0.00000000000E+00 0.  1.
         11    1    3    3    0    0  0.15182799474E+01 -0.12831590455E+02 -0.20037459323E+02  0.23842287306E+02  0.51100000000E-03 0. -1.
        -11    1    3    3    0    0 -0.86415758218E+01 -0.97755954031E+01 -0.12027133990E+01  0.13102885863E+02  0.51100000000E-03 0.  1.
        -12    1    3    3    0    0  0.70538811006E+01 -0.14835768353E+01 -0.11513394518E+02  0.13583684777E+02  0.00000000000E+00 0.  1.
</event>
<event>
 7    1  0.5019004E-011  0.5052886E+02  0.7816164E-02  0.1300439E+00
        -11   -1    0    0    0    0  0.00000000000E+00  0.00000000000E+00  0.45593999997E+02  0.45594000000E+02  0.51100000000E-03 0.  1.
         11   -1    0    0    0    0 -0.00000000000E+00 -0.00000000000E+00 -0.45593999997E+02  0.45594000000E+02  0.51100000000E-03 0. -1.
    9900012    2    1    2    0    0 -0.38765903640E+02 -0.64998411350E+01 -0.10398203363E+02  0.50528857695E+02  0.29999993450E+02 0.  0.
        -12    1    1    2    0    0  0.38765903640E+02  0.64998411350E+01  0.10398203363E+02  0.40659142305E+02  0.00000000000E+00 0.  1.
         11    1    3    3    0    0 -0.37839431103E+02 -0.78316729108E+01 -0.75347738916E+01  0.39369156260E+02  0.51100000000E-03 0. -1.
        -11    1    3    3    0    0  0.43331937672E+01  0.29912219163E+01 -0.12202650713E+01  0.54049073888E+01  0.51100000000E-03 0.  1.
        -12    1    3    3    0    0 -0.52596663039E+01 -0.16593901406E+01 -0.16431644002E+01  0.57547940461E+01  0.00000000000E+00 0.  1.
</event>
<event>
 7    1  0.5019004E-011  0.5052886E+02  0.7816164E-02  0.1300439E+00
        -11   -1    0    0    0    0  0.00000000000E+00  0.00000000000E+00  0.45593999997E+02  0.45594000000E+02  0.51100000000E-03 0.  1.
         11   -1    0    0    0    0 -0.00000000000E+00 -0.00000000000E+00 -0.45593999997E+02  0.45594000000E+02  0.51100000000E-03 0. -1.
    9900012    2    1    2    0    0  0.29911752701E+02  0.27485799631E+02  0.17272105299E+01  0.50528863423E+02  0.30000010860E+02 0.  0.
        -12    1    1    2    0    0 -0.29911752701E+02 -0.27485799631E+02 -0.17272105299E+01  0.40659136577E+02  0.00000000000E+00 0.  1.
         11    1    3    3    0    0  0.11392833819E+02  0.26419693003E+01 -0.50367130698E+01  0.12733622541E+02  0.51100000000E-03 0. -1.
        -11    1    3    3    0    0  0.20235790472E+02  0.27045411145E+02  0.42607159545E+01  0.34045486936E+02  0.51100000000E-03 0.  1.
        -12    1    3    3    0    0 -0.17168715897E+01 -0.22015808143E+01  0.25032076452E+01  0.37497539456E+01  0.00000000000E+00 0.  1.
</event>
<event>
 7    1  0.5019004E-011  0.5052883E+02  0.7816164E-02  0.1300439E+00
        -11   -1    0    0    0    0  0.00000000000E+00  0.00000000000E+00  0.45593999997E+02  0.45594000000E+02  0.51100000000E-03 0.  1.
         11   -1    0    0    0    0 -0.00000000000E+00 -0.00000000000E+00 -0.45593999997E+02  0.45594000000E+02  0.51100000000E-03 0. -1.
    9900012    2    1    2    0    0 -0.40491824602E+02 -0.12235765191E+00  0.36830898893E+01  0.50528831512E+02  0.29999913865E+02 0.  0.
        -12    1    1    2    0    0  0.40491824602E+02  0.12235765191E+00 -0.36830898893E+01  0.40659168488E+02  0.00000000000E+00 0.  1.
         11    1    3    3    0    0 -0.90457941542E+01 -0.80275171436E+01 -0.92960703633E+01  0.15253994488E+02  0.51100000000E-03 0. -1.
        -11    1    3    3    0    0 -0.14929999290E+02  0.28819102680E+01  0.85833166341E+01  0.17460916651E+02  0.51100000000E-03 0.  1.
         12    1    3    3    0    0 -0.16516031158E+02  0.50232492237E+01  0.43958436184E+01  0.17813920374E+02  0.00000000000E+00 0. -1.
</event>
<event>
 7    1  0.5019004E-011  0.5052887E+02  0.7816164E-02  0.1300439E+00
        -11   -1    0    0    0    0  0.00000000000E+00  0.00000000000E+00  0.45593999997E+02  0.45594000000E+02  0.51100000000E-03 0.  1.
         11   -1    0    0    0    0 -0.00000000000E+00 -0.00000000000E+00 -0.45593999997E+02  0.45594000000E+02  0.51100000000E-03 0. -1.
    9900012    2    1    2    0    0 -0.14430770476E+02  0.28041062202E+02 -0.25663526427E+02  0.50528869480E+02  0.30000029273E+02 0.  0.
        -12    1    1    2    0    0  0.14430770476E+02 -0.28041062202E+02  0.25663526427E+02  0.40659130520E+02  0.00000000000E+00 0.  1.
         11    1    3    3    0    0 -0.13874331218E+02  0.17348003560E+02 -0.44525526481E+00  0.22218203050E+02  0.51100000000E-03 0. -1.
        -11    1    3    3    0    0  0.14761297355E+01  0.27578022960E+01 -0.14428956201E+02  0.14764118999E+02  0.51100000000E-03 0.  1.
         12    1    3    3    0    0 -0.20325689939E+01  0.79352563458E+01 -0.10789314961E+02  0.13546547432E+02  0.00000000000E+00 0. -1.
</event>
<event>
 7    1  0.5019004E-011  0.5052885E+02  0.7816164E-02  0.1300439E+00
        -11   -1    0    0    0    0  0.00000000000E+00  0.00000000000E+00  0.45593999997E+02  0.45594000000E+02  0.51100000000E-03 0.  1.
         11   -1    0    0    0    0 -0.00000000000E+00 -0.00000000000E+00 -0.45593999997E+02  0.45594000000E+02  0.51100000000E-03 0. -1.
    9900012    2    1    2    0    0 -0.33641364856E+02  0.16980873354E+02 -0.15266792694E+02  0.50528850373E+02  0.29999971193E+02 0.  0.
        -12    1    1    2    0    0  0.33641364856E+02 -0.16980873354E+02  0.15266792694E+02  0.40659149627E+02  0.00000000000E+00 0.  1.
         11    1    3    3    0    0 -0.17952445184E+02  0.14079820301E+01 -0.76870594684E+01  0.19579672750E+02  0.51100000000E-03 0. -1.
        -11    1    3    3    0    0 -0.11600527861E+02  0.10756066961E+02  0.52334967270E+01  0.16662974266E+02  0.51100000000E-03 0.  1.
        -12    1    3    3    0    0 -0.40883918116E+01  0.48168243630E+01 -0.12813229952E+02  0.14286203357E+02  0.00000000000E+00 0.  1.
</event>
<event>
 7    1  0.5019004E-011  0.5052883E+02  0.7816164E-02  0.1300439E+00
        -11   -1    0    0    0    0  0.00000000000E+00  0.00000000000E+00  0.45593999997E+02  0.45594000000E+02  0.51100000000E-03 0.  1.
         11   -1    0    0    0    0 -0.00000000000E+00 -0.00000000000E+00 -0.45593999997E+02  0.45594000000E+02  0.51100000000E-03 0. -1.
    9900012    2    1    2    0    0  0.22455302332E+02  0.23348547643E+02 -0.24571796926E+02  0.50528825340E+02  0.29999895104E+02 0.  0.
        -12    1    1    2    0    0 -0.22455302332E+02 -0.23348547643E+02  0.24571796926E+02  0.40659174660E+02  0.00000000000E+00 0.  1.
         11    1    3    3    0    0  0.92559077450E+01  0.17456906701E+02 -0.11939565164E+02  0.23086113496E+02  0.51100000000E-03 0.  1.
        -11    1    3    3    0    0  0.15540021683E+02 -0.46201518875E+00 -0.32675481619E+01  0.15886554164E+02  0.51100000000E-03 0. -1.
        -12    1    3    3    0    0 -0.23406270960E+01  0.63536561304E+01 -0.93646835996E+01  0.11556157681E+02  0.00000000000E+00 0.  1.
</event>
<event>
 7    1  0.5019004E-011  0.5052877E+02  0.7816164E-02  0.1300439E+00
        -11   -1    0    0    0    0  0.00000000000E+00  0.00000000000E+00  0.45593999997E+02  0.45594000000E+02  0.51100000000E-03 0.  1.
         11   -1    0    0    0    0 -0.00000000000E+00 -0.00000000000E+00 -0.45593999997E+02  0.45594000000E+02  0.51100000000E-03 0. -1.
    9900012    2    1    2    0    0 -0.38495198386E+02 -0.11386567733E+02 -0.64528359315E+01  0.50528765931E+02  0.29999714523E+02 0.  0.
        -12    1    1    2    0    0  0.38495198386E+02  0.11386567733E+02  0.64528359315E+01  0.40659234069E+02  0.00000000000E+00 0.  1.
         11    1    3    3    0    0 -0.24319262468E+01  0.31551588614E+01 -0.53826255500E+01  0.66964132775E+01  0.51100000000E-03 0. -1.
        -11    1    3    3    0    0 -0.34421001061E+02 -0.16751458960E+02 -0.54422312620E+01  0.38665676933E+02  0.51100000000E-03 0.  1.
        -12    1    3    3    0    0 -0.16422710783E+01  0.22097323660E+01  0.43720208805E+01  0.51666757207E+01  0.00000000000E+00 0.  1.
</event>
<event>
 7    1  0.5019004E-011  0.5052886E+02  0.7816164E-02  0.1300439E+00
        -11   -1    0    0    0    0  0.00000000000E+00  0.00000000000E+00  0.45593999997E+02  0.45594000000E+02  0.51100000000E-03 0. -1.
         11   -1    0    0    0    0 -0.00000000000E+00 -0.00000000000E+00 -0.45593999997E+02  0.45594000000E+02  0.51100000000E-03 0.  1.
    9900012    2    1    2    0    0  0.27334659462E+02 -0.29104147557E+02  0.76766131436E+01  0.50528863237E+02  0.30000010296E+02 0.  0.
        -12    1    1    2    0    0 -0.27334659462E+02  0.29104147557E+02 -0.76766131436E+01  0.40659136763E+02  0.00000000000E+00 0.  1.
         11    1    3    3    0    0 -0.37936946049E+01  0.29643654783E+00 -0.38235929948E+01  0.53944283324E+01  0.51100000000E-03 0.  1.
        -11    1    3    3    0    0  0.18956957507E+02 -0.17015985632E+02  0.11042258832E+02  0.27764032224E+02  0.51100000000E-03 0. -1.
        -12    1    3    3    0    0  0.12171396561E+02 -0.12384598473E+02  0.45794730627E+00  0.17370402681E+02  0.00000000000E+00 0.  1.
</event>
<event>
 7    1  0.5019004E-011  0.5052885E+02  0.7816164E-02  0.1300439E+00
        -11   -1    0    0    0    0  0.00000000000E+00  0.00000000000E+00  0.45593999997E+02  0.45594000000E+02  0.51100000000E-03 0.  1.
         11   -1    0    0    0    0 -0.00000000000E+00 -0.00000000000E+00 -0.45593999997E+02  0.45594000000E+02  0.51100000000E-03 0. -1.
    9900012    2    1    2    0    0  0.19458087816E+01  0.35373965861E+02 -0.19951511675E+02  0.50528850345E+02  0.29999971109E+02 0.  0.
        -12    1    1    2    0    0 -0.19458087816E+01 -0.35373965861E+02  0.19951511675E+02  0.40659149655E+02  0.00000000000E+00 0.  1.
         11    1    3    3    0    0  0.12833691110E+01  0.16030085167E+02 -0.11583783041E+02  0.19819048830E+02  0.51100000000E-03 0. -1.
        -11    1    3    3    0    0  0.99081698275E+01  0.39233644635E+01  0.48700394546E+00  0.10667792234E+02  0.51100000000E-03 0.  1.
        -12    1    3    3    0    0 -0.92457301569E+01  0.15420516230E+02 -0.88547325798E+01  0.20042009281E+02  0.00000000000E+00 0.  1.
</event>
<event>
 7    1  0.6340975E-011  0.5052886E+02  0.7816164E-02  0.1300439E+00
        -11   -1    0    0    0    0  0.00000000000E+00  0.00000000000E+00  0.45593999997E+02  0.45594000000E+02  0.51100000000E-03 0. -1.
         11   -1    0    0    0    0 -0.00000000000E+00 -0.00000000000E+00 -0.45593999997E+02  0.45594000000E+02  0.51100000000E-03 0.  1.
    9900012    2    1    2    0    0 -0.14354324909E+02  0.18036710480E+01  0.37998236926E+02  0.50528857334E+02  0.29999992352E+02 0.  0.
        -12    1    1    2    0    0  0.14354324909E+02 -0.18036710480E+01 -0.37998236926E+02  0.40659142666E+02  0.00000000000E+00 0.  1.
         11    1    3    3    0    0 -0.12704910950E+02  0.56374303702E+01  0.22101473330E+02  0.26108820483E+02  0.51100000000E-03 0. -1.
        -11    1    3    3    0    0  0.60422520072E+00 -0.21238619364E+00 -0.40103130959E+01  0.40611337551E+01  0.51100000000E-03 0.  1.
         12    1    3    3    0    0 -0.22536391593E+01 -0.36213731286E+01  0.19907076693E+02  0.20358903095E+02  0.00000000000E+00 0. -1.
</event>
<event>
 7    1  0.5019004E-011  0.5052885E+02  0.7816164E-02  0.1300439E+00
        -11   -1    0    0    0    0  0.00000000000E+00  0.00000000000E+00  0.45593999997E+02  0.45594000000E+02  0.51100000000E-03 0.  1.
         11   -1    0    0    0    0 -0.00000000000E+00 -0.00000000000E+00 -0.45593999997E+02  0.45594000000E+02  0.51100000000E-03 0. -1.
    9900012    2    1    2    0    0 -0.33961863178E+02 -0.19639784655E+02 -0.10678834518E+02  0.50528846068E+02  0.29999958107E+02 0.  0.
        -12    1    1    2    0    0  0.33961863178E+02  0.19639784655E+02  0.10678834518E+02  0.40659153932E+02  0.00000000000E+00 0.  1.
         11    1    3    3    0    0 -0.96133551256E+01 -0.98942021146E+01 -0.13587838499E+02  0.19363398141E+02  0.51100000000E-03 0. -1.
        -11    1    3    3    0    0 -0.25135958470E+02 -0.43031390351E+01  0.29029369367E+01  0.25666329244E+02  0.51100000000E-03 0.  1.
        -12    1    3    3    0    0  0.78745041714E+00 -0.54424435054E+01  0.60670439700E-02  0.54991186819E+01  0.00000000000E+00 0.  1.
</event>
<event>
 7    1  0.5019004E-011  0.5052885E+02  0.7816164E-02  0.1300439E+00
        -11   -1    0    0    0    0  0.00000000000E+00  0.00000000000E+00  0.45593999997E+02  0.45594000000E+02  0.51100000000E-03 0. -1.
         11   -1    0    0    0    0 -0.00000000000E+00 -0.00000000000E+00 -0.45593999997E+02  0.45594000000E+02  0.51100000000E-03 0.  1.
    9900012    2    1    2    0    0  0.38161420925E+02 -0.10428496027E+02  0.93871467029E+01  0.50528854662E+02  0.29999984230E+02 0.  0.
        -12    1    1    2    0    0 -0.38161420925E+02  0.10428496027E+02 -0.93871467029E+01  0.40659145338E+02  0.00000000000E+00 0.  1.
         11    1    3    3    0    0  0.79500010284E+01 -0.13621981822E+02  0.45369668559E+01  0.16411732804E+02  0.51100000000E-03 0. -1.
        -11    1    3    3    0    0  0.31429758843E+02  0.12422950430E+01  0.47824839306E+01  0.31815800960E+02  0.51100000000E-03 0.  1.
        -12    1    3    3    0    0 -0.12183389462E+01  0.19511907520E+01  0.67695916443E-01  0.23013208980E+01  0.00000000000E+00 0.  1.
</event>
<event>
 7    1  0.5019004E-011  0.5052886E+02  0.7816164E-02  0.1300439E+00
        -11   -1    0    0    0    0  0.00000000000E+00  0.00000000000E+00  0.45593999997E+02  0.45594000000E+02  0.51100000000E-03 0.  1.
         11   -1    0    0    0    0 -0.00000000000E+00 -0.00000000000E+00 -0.45593999997E+02  0.45594000000E+02  0.51100000000E-03 0. -1.
    9900012    2    1    2    0    0 -0.16864362700E+02 -0.31884878227E+02 -0.18764684439E+02  0.50528861163E+02  0.30000003992E+02 0.  0.
        -12    1    1    2    0    0  0.16864362700E+02  0.31884878227E+02  0.18764684439E+02  0.40659138837E+02  0.00000000000E+00 0.  1.
         11    1    3    3    0    0  0.47150801113E+01 -0.13778368315E+02 -0.11227896703E+02  0.18388612740E+02  0.51100000000E-03 0. -1.
        -11    1    3    3    0    0 -0.11756107692E+02 -0.33202407275E+01 -0.76019518032E+01  0.14388180497E+02  0.51100000000E-03 0.  1.
         12    1    3    3    0    0 -0.98233351199E+01 -0.14786269185E+02  0.65164066909E-01  0.17752067926E+02  0.00000000000E+00 0. -1.
</event>
<event>
 7    1  0.5019004E-011  0.5052885E+02  0.7816164E-02  0.1300439E+00
        -11   -1    0    0    0    0  0.00000000000E+00  0.00000000000E+00  0.45593999997E+02  0.45594000000E+02  0.51100000000E-03 0.  1.
         11   -1    0    0    0    0 -0.00000000000E+00 -0.00000000000E+00 -0.45593999997E+02  0.45594000000E+02  0.51100000000E-03 0. -1.
    9900012    2    1    2    0    0  0.34256454289E+02 -0.45897568980E+01 -0.21414858744E+02  0.50528847231E+02  0.29999961644E+02 0.  0.
        -12    1    1    2    0    0 -0.34256454289E+02  0.45897568980E+01  0.21414858744E+02  0.40659152769E+02  0.00000000000E+00 0.  1.
         11    1    3    3    0    0  0.14216748353E+02  0.72842796242E+01 -0.80744121107E+00  0.15994643633E+02  0.51100000000E-03 0. -1.
        -11    1    3    3    0    0  0.14848535689E+02 -0.87513072795E+01 -0.52379364159E+01  0.18013893787E+02  0.51100000000E-03 0.  1.
         12    1    3    3    0    0  0.51911702474E+01 -0.31227292426E+01 -0.15369481117E+02  0.16520309812E+02  0.00000000000E+00 0. -1.
</event>
<event>
 7    1  0.5019004E-011  0.5052886E+02  0.7816164E-02  0.1300439E+00
        -11   -1    0    0    0    0  0.00000000000E+00  0.00000000000E+00  0.45593999997E+02  0.45594000000E+02  0.51100000000E-03 0.  1.
         11   -1    0    0    0    0 -0.00000000000E+00 -0.00000000000E+00 -0.45593999997E+02  0.45594000000E+02  0.51100000000E-03 0. -1.
    9900012    2    1    2    0    0  0.73151784318E+01 -0.58553366989E+01 -0.39564739312E+02  0.50528863264E+02  0.30000010376E+02 0.  0.
        -12    1    1    2    0    0 -0.73151784318E+01  0.58553366989E+01  0.39564739312E+02  0.40659136736E+02  0.00000000000E+00 0.  1.
         11    1    3    3    0    0 -0.35343591420E+01  0.47238718353E+00 -0.24064131388E+02  0.24326883564E+02  0.51100000000E-03 0. -1.
        -11    1    3    3    0    0  0.13181064325E+02 -0.27182365695E+01 -0.16971548859E+02  0.21660164767E+02  0.51100000000E-03 0.  1.
        -12    1    3    3    0    0 -0.23315267512E+01 -0.36094873129E+01  0.14709409355E+01  0.45418149334E+01  0.00000000000E+00 0.  1.
</event>
<event>
 7    1  0.5019004E-011  0.5052880E+02  0.7816164E-02  0.1300439E+00
        -11   -1    0    0    0    0  0.00000000000E+00  0.00000000000E+00  0.45593999997E+02  0.45594000000E+02  0.51100000000E-03 0.  1.
         11   -1    0    0    0    0 -0.00000000000E+00 -0.00000000000E+00 -0.45593999997E+02  0.45594000000E+02  0.51100000000E-03 0. -1.
    9900012    2    1    2    0    0  0.14896657262E+02 -0.10246998030E+02 -0.36417838851E+02  0.50528802360E+02  0.29999825252E+02 0.  0.
        -12    1    1    2    0    0 -0.14896657262E+02  0.10246998030E+02  0.36417838851E+02  0.40659197640E+02  0.00000000000E+00 0.  1.
         11    1    3    3    0    0 -0.63719975307E+01 -0.85051887035E+01 -0.10068383657E+02  0.14639430902E+02  0.51100000000E-03 0. -1.
        -11    1    3    3    0    0  0.14098713706E+02  0.28090170365E+01 -0.10146748335E+02  0.17596045207E+02  0.51100000000E-03 0.  1.
        -12    1    3    3    0    0  0.71699410862E+01 -0.45508263625E+01 -0.16202706859E+02  0.18293326251E+02  0.00000000000E+00 0.  1.
</event>
<event>
 7    1  0.5019004E-011  0.5052885E+02  0.7816164E-02  0.1300439E+00
        -11   -1    0    0    0    0  0.00000000000E+00  0.00000000000E+00  0.45593999997E+02  0.45594000000E+02  0.51100000000E-03 0.  1.
         11   -1    0    0    0    0 -0.00000000000E+00 -0.00000000000E+00 -0.45593999997E+02  0.45594000000E+02  0.51100000000E-03 0. -1.
    9900012    2    1    2    0    0 -0.32742466067E+02 -0.49340765426E+01 -0.23595596625E+02  0.50528851268E+02  0.29999973915E+02 0.  0.
        -12    1    1    2    0    0  0.32742466067E+02  0.49340765426E+01  0.23595596625E+02  0.40659148732E+02  0.00000000000E+00 0.  1.
         11    1    3    3    0    0 -0.39829420457E+01  0.87491736579E+01 -0.12735188654E+02  0.15956092797E+02  0.51100000000E-03 0. -1.
        -11    1    3    3    0    0 -0.15762835608E+02 -0.10710856573E+02 -0.36096084169E+01  0.19396358115E+02  0.51100000000E-03 0.  1.
         12    1    3    3    0    0 -0.12996688414E+02 -0.29723936270E+01 -0.72507995548E+01  0.15176400356E+02  0.00000000000E+00 0. -1.
</event>
<event>
 7    1  0.5019004E-011  0.5052887E+02  0.7816164E-02  0.1300439E+00
        -11   -1    0    0    0    0  0.00000000000E+00  0.00000000000E+00  0.45593999997E+02  0.45594000000E+02  0.51100000000E-03 0.  1.
         11   -1    0    0    0    0 -0.00000000000E+00 -0.00000000000E+00 -0.45593999997E+02  0.45594000000E+02  0.51100000000E-03 0. -1.
    9900012    2    1    2    0    0 -0.11938321637E+02  0.38865181723E+02  0.37314700901E+00  0.50528866800E+02  0.30000021127E+02 0.  0.
        -12    1    1    2    0    0  0.11938321637E+02 -0.38865181723E+02 -0.37314700901E+00  0.40659133200E+02  0.00000000000E+00 0.  1.
         11    1    3    3    0    0 -0.22617718660E+01  0.28023613211E+02 -0.82391565486E+01  0.29297136554E+02  0.51100000000E-03 0. -1.
        -11    1    3    3    0    0 -0.72564628693E+01  0.20228286538E+01  0.94080843320E+01  0.12052391472E+02  0.51100000000E-03 0.  1.
        -12    1    3    3    0    0 -0.24200869021E+01  0.88187398580E+01 -0.79578077431E+00  0.91793387746E+01  0.00000000000E+00 0.  1.
</event>
<event>
 7    1  0.5019004E-011  0.5052887E+02  0.7816164E-02  0.1300439E+00
        -11   -1    0    0    0    0  0.00000000000E+00  0.00000000000E+00  0.45593999997E+02  0.45594000000E+02  0.51100000000E-03 0. -1.
         11   -1    0    0    0    0 -0.00000000000E+00 -0.00000000000E+00 -0.45593999997E+02  0.45594000000E+02  0.51100000000E-03 0.  1.
    9900012    2    1    2    0    0  0.39212298750E+02  0.95258482318E+01  0.49818770320E+01  0.50528865029E+02  0.30000015742E+02 0.  0.
        -12    1    1    2    0    0 -0.39212298750E+02 -0.95258482318E+01 -0.49818770320E+01  0.40659134971E+02  0.00000000000E+00 0.  1.
         11    1    3    3    0    0  0.35446911602E+02  0.46554007382E+01  0.69422423710E+01  0.36419102508E+02  0.51100000000E-03 0. -1.
        -11    1    3    3    0    0 -0.22236154468E+01  0.36010652948E+01 -0.55755932230E+01  0.69999554971E+01  0.51100000000E-03 0.  1.
        -12    1    3    3    0    0  0.59890025957E+01  0.12693821988E+01  0.36152278839E+01  0.71098070235E+01  0.00000000000E+00 0.  1.
</event>
<event>
 7    1  0.5019004E-011  0.5052888E+02  0.7816164E-02  0.1300439E+00
        -11   -1    0    0    0    0  0.00000000000E+00  0.00000000000E+00  0.45593999997E+02  0.45594000000E+02  0.51100000000E-03 0.  1.
         11   -1    0    0    0    0 -0.00000000000E+00 -0.00000000000E+00 -0.45593999997E+02  0.45594000000E+02  0.51100000000E-03 0. -1.
    9900012    2    1    2    0    0  0.12045939587E+02 -0.91537806729E+01 -0.37739471907E+02  0.50528879241E+02  0.30000058940E+02 0.  0.
        -12    1    1    2    0    0 -0.12045939587E+02  0.91537806729E+01  0.37739471907E+02  0.40659120759E+02  0.00000000000E+00 0.  1.
         11    1    3    3    0    0 -0.59561986317E+01 -0.31962357276E+01 -0.79688240366E+00  0.68064121822E+01  0.51100000000E-03 0. -1.
        -11    1    3    3    0    0  0.13606267450E+02 -0.10185407120E+02 -0.23931892012E+02  0.29353168273E+02  0.51100000000E-03 0.  1.
        -12    1    3    3    0    0  0.43958707681E+01  0.42278621747E+01 -0.13010697491E+02  0.14369298785E+02  0.00000000000E+00 0.  1.
</event>
<event>
 7    1  0.5019004E-011  0.5052891E+02  0.7816164E-02  0.1300439E+00
        -11   -1    0    0    0    0  0.00000000000E+00  0.00000000000E+00  0.45593999997E+02  0.45594000000E+02  0.51100000000E-03 0.  1.
         11   -1    0    0    0    0 -0.00000000000E+00 -0.00000000000E+00 -0.45593999997E+02  0.45594000000E+02  0.51100000000E-03 0. -1.
    9900012    2    1    2    0    0 -0.12876803419E+02  0.27756757675E+02 -0.26775213361E+02  0.50528908600E+02  0.30000148180E+02 0.  0.
        -12    1    1    2    0    0  0.12876803419E+02 -0.27756757675E+02  0.26775213361E+02  0.40659091400E+02  0.00000000000E+00 0.  1.
         11    1    3    3    0    0 -0.27920284311E+01  0.10948623900E+02 -0.18961176373E+02  0.22072471492E+02  0.51100000000E-03 0. -1.
        -11    1    3    3    0    0  0.22142081180E+01  0.14630990482E+02 -0.31881498697E+01  0.15137136450E+02  0.51100000000E-03 0.  1.
         12    1    3    3    0    0 -0.12298983106E+02  0.21771432937E+01 -0.46258871179E+01  0.13319300657E+02  0.00000000000E+00 0. -1.
</event>
<event>
 7    1  0.5019004E-011  0.5052886E+02  0.7816164E-02  0.1300439E+00
        -11   -1    0    0    0    0  0.00000000000E+00  0.00000000000E+00  0.45593999997E+02  0.45594000000E+02  0.51100000000E-03 0. -1.
         11   -1    0    0    0    0 -0.00000000000E+00 -0.00000000000E+00 -0.45593999997E+02  0.45594000000E+02  0.51100000000E-03 0.  1.
    9900012    2    1    2    0    0  0.10619790282E+02  0.39244058478E+02 -0.53777458633E+00  0.50528864828E+02  0.30000015131E+02 0.  0.
        -12    1    1    2    0    0 -0.10619790282E+02 -0.39244058478E+02  0.53777458633E+00  0.40659135172E+02  0.00000000000E+00 0.  1.
         11    1    3    3    0    0  0.20189776130E+01  0.97992184760E+01  0.10232956045E+02  0.14311336172E+02  0.51100000000E-03 0. -1.
        -11    1    3    3    0    0  0.94290880111E+01  0.28690145188E+02 -0.53349705456E+01  0.30667475322E+02  0.51100000000E-03 0.  1.
        -12    1    3    3    0    0 -0.82827534169E+00  0.75469481357E+00 -0.54357600857E+01  0.55500533342E+01  0.00000000000E+00 0.  1.
</event>
<event>
 7    1  0.5019004E-011  0.5052884E+02  0.7816164E-02  0.1300439E+00
        -11   -1    0    0    0    0  0.00000000000E+00  0.00000000000E+00  0.45593999997E+02  0.45594000000E+02  0.51100000000E-03 0.  1.
         11   -1    0    0    0    0 -0.00000000000E+00 -0.00000000000E+00 -0.45593999997E+02  0.45594000000E+02  0.51100000000E-03 0. -1.
    9900012    2    1    2    0    0  0.35602328418E+01  0.20114086940E+02 -0.35155587731E+02  0.50528842360E+02  0.29999946837E+02 0.  0.
        -12    1    1    2    0    0 -0.35602328418E+01 -0.20114086940E+02  0.35155587731E+02  0.40659157640E+02  0.00000000000E+00 0.  1.
         11    1    3    3    0    0  0.18176574039E+01 -0.35174709475E+01 -0.47387087920E+01  0.61750985078E+01  0.51100000000E-03 0. -1.
        -11    1    3    3    0    0  0.52279652245E+01  0.25924787065E+02 -0.20077741996E+02  0.33204546807E+02  0.51100000000E-03 0.  1.
        -12    1    3    3    0    0 -0.34853897866E+01 -0.22932291775E+01 -0.10339136943E+02  0.11149197045E+02  0.00000000000E+00 0.  1.
</event>
<event>
 7    1  0.5019004E-011  0.5052884E+02  0.7816164E-02  0.1300439E+00
        -11   -1    0    0    0    0  0.00000000000E+00  0.00000000000E+00  0.45593999997E+02  0.45594000000E+02  0.51100000000E-03 0.  1.
         11   -1    0    0    0    0 -0.00000000000E+00 -0.00000000000E+00 -0.45593999997E+02  0.45594000000E+02  0.51100000000E-03 0. -1.
    9900012    2    1    2    0    0  0.26656469953E+02 -0.30699002114E+02  0.41332687442E+00  0.50528844078E+02  0.29999952061E+02 0.  0.
        -12    1    1    2    0    0 -0.26656469953E+02  0.30699002114E+02 -0.41332687442E+00  0.40659155922E+02  0.00000000000E+00 0.  1.
         11    1    3    3    0    0  0.13673252403E+02 -0.31382610450E+02 -0.50338661504E+01  0.34600084951E+02  0.51100000000E-03 0. -1.
        -11    1    3    3    0    0  0.80491160157E+00  0.58236388509E+00  0.34464445290E+01  0.35867827553E+01  0.51100000000E-03 0.  1.
         12    1    3    3    0    0  0.12178305949E+02  0.10124445148E+00  0.20007484959E+01  0.12341976372E+02  0.00000000000E+00 0. -1.
</event>
<event>
 7    1  0.5019004E-011  0.5052886E+02  0.7816164E-02  0.1300439E+00
        -11   -1    0    0    0    0  0.00000000000E+00  0.00000000000E+00  0.45593999997E+02  0.45594000000E+02  0.51100000000E-03 0.  1.
         11   -1    0    0    0    0 -0.00000000000E+00 -0.00000000000E+00 -0.45593999997E+02  0.45594000000E+02  0.51100000000E-03 0. -1.
    9900012    2    1    2    0    0  0.28958481954E+02 -0.27840502691E+02 -0.62831841787E+01  0.50528859938E+02  0.30000000268E+02 0.  0.
        -12    1    1    2    0    0 -0.28958481954E+02  0.27840502691E+02  0.62831841787E+01  0.40659140062E+02  0.00000000000E+00 0.  1.
         11    1    3    3    0    0 -0.26654127129E+01 -0.25615565714E+01  0.53134474637E+01  0.64729221538E+01  0.51100000000E-03 0. -1.
        -11    1    3    3    0    0  0.47060613472E+01 -0.83615391416E+01 -0.71235989476E+01  0.11950230644E+02  0.51100000000E-03 0.  1.
         12    1    3    3    0    0  0.26917833320E+02 -0.16917406978E+02 -0.44730326948E+01  0.32105707140E+02  0.00000000000E+00 0. -1.
</event>
<event>
 7    1  0.5019004E-011  0.5052886E+02  0.7816164E-02  0.1300439E+00
        -11   -1    0    0    0    0  0.00000000000E+00  0.00000000000E+00  0.45593999997E+02  0.45594000000E+02  0.51100000000E-03 0. -1.
         11   -1    0    0    0    0 -0.00000000000E+00 -0.00000000000E+00 -0.45593999997E+02  0.45594000000E+02  0.51100000000E-03 0.  1.
    9900012    2    1    2    0    0 -0.16054093588E+02  0.97311016197E+00  0.37342803417E+02  0.50528857960E+02  0.29999994257E+02 0.  0.
        -12    1    1    2    0    0  0.16054093588E+02 -0.97311016197E+00 -0.37342803417E+02  0.40659142040E+02  0.00000000000E+00 0.  1.
         11    1    3    3    0    0 -0.15310775346E+02 -0.10213553807E+01  0.41594782274E+01  0.15898561819E+02  0.51100000000E-03 0. -1.
        -11    1    3    3    0    0 -0.12913359112E+01  0.26418195176E+01  0.22944546966E+01  0.37297830252E+01  0.51100000000E-03 0.  1.
         12    1    3    3    0    0  0.54801766889E+00 -0.64735397492E+00  0.30888870493E+02  0.30900513117E+02  0.00000000000E+00 0. -1.
</event>
<event>
 7    1  0.5019004E-011  0.5052885E+02  0.7816164E-02  0.1300439E+00
        -11   -1    0    0    0    0  0.00000000000E+00  0.00000000000E+00  0.45593999997E+02  0.45594000000E+02  0.51100000000E-03 0.  1.
         11   -1    0    0    0    0 -0.00000000000E+00 -0.00000000000E+00 -0.45593999997E+02  0.45594000000E+02  0.51100000000E-03 0. -1.
    9900012    2    1    2    0    0  0.78727594558E+01  0.11325597417E+02 -0.38248101064E+02  0.50528846869E+02  0.29999960544E+02 0.  0.
        -12    1    1    2    0    0 -0.78727594558E+01 -0.11325597417E+02  0.38248101064E+02  0.40659153131E+02  0.00000000000E+00 0.  1.
         11    1    3    3    0    0  0.22762022068E+01  0.38751322616E+01 -0.23487845872E+02  0.23913942596E+02  0.51100000000E-03 0. -1.
        -11    1    3    3    0    0 -0.24042922626E+01  0.11284931809E+02 -0.30709893668E+01  0.11939902980E+02  0.51100000000E-03 0.  1.
        -12    1    3    3    0    0  0.80008495117E+01 -0.38344666534E+01 -0.11689265825E+02  0.14675001293E+02  0.00000000000E+00 0.  1.
</event>
<event>
 7    1  0.5019004E-011  0.5052886E+02  0.7816164E-02  0.1300439E+00
        -11   -1    0    0    0    0  0.00000000000E+00  0.00000000000E+00  0.45593999997E+02  0.45594000000E+02  0.51100000000E-03 0.  1.
         11   -1    0    0    0    0 -0.00000000000E+00 -0.00000000000E+00 -0.45593999997E+02  0.45594000000E+02  0.51100000000E-03 0. -1.
    9900012    2    1    2    0    0  0.31912224288E+02 -0.24156262125E+02 -0.71589599862E+01  0.50528858753E+02  0.29999996666E+02 0.  0.
        -12    1    1    2    0    0 -0.31912224288E+02  0.24156262125E+02  0.71589599862E+01  0.40659141247E+02  0.00000000000E+00 0.  1.
         11    1    3    3    0    0  0.16859168071E+02 -0.21933991631E+02 -0.82930501128E+01  0.28880897101E+02  0.51100000000E-03 0. -1.
        -11    1    3    3    0    0  0.37223873985E+01  0.22123065170E+01 -0.61087936171E+01  0.74878453367E+01  0.51100000000E-03 0.  1.
         12    1    3    3    0    0  0.11330668819E+02 -0.44345770113E+01  0.72428837436E+01  0.14160116316E+02  0.00000000000E+00 0. -1.
</event>
<event>
 7    1  0.5019004E-011  0.5052886E+02  0.7816164E-02  0.1300439E+00
        -11   -1    0    0    0    0  0.00000000000E+00  0.00000000000E+00  0.45593999997E+02  0.45594000000E+02  0.51100000000E-03 0.  1.
         11   -1    0    0    0    0 -0.00000000000E+00 -0.00000000000E+00 -0.45593999997E+02  0.45594000000E+02  0.51100000000E-03 0. -1.
    9900012    2    1    2    0    0 -0.34606772647E+02  0.15606335812E+02 -0.14559515641E+02  0.50528856794E+02  0.29999990711E+02 0.  0.
        -12    1    1    2    0    0  0.34606772647E+02 -0.15606335812E+02  0.14559515641E+02  0.40659143206E+02  0.00000000000E+00 0.  1.
         11    1    3    3    0    0 -0.21003523388E+02  0.17404333955E+01 -0.18815949786E+02  0.28252735615E+02  0.51100000000E-03 0. -1.
        -11    1    3    3    0    0  0.11183694528E+01  0.30900415618E+01  0.21122747664E+01  0.39065089321E+01  0.51100000000E-03 0.  1.
         12    1    3    3    0    0 -0.14721618712E+02  0.10775860855E+02  0.21441593779E+01  0.18369612247E+02  0.00000000000E+00 0. -1.
</event>
<event>
 7    1  0.5019004E-011  0.5052885E+02  0.7816164E-02  0.1300439E+00
        -11   -1    0    0    0    0  0.00000000000E+00  0.00000000000E+00  0.45593999997E+02  0.45594000000E+02  0.51100000000E-03 0. -1.
         11   -1    0    0    0    0 -0.00000000000E+00 -0.00000000000E+00 -0.45593999997E+02  0.45594000000E+02  0.51100000000E-03 0.  1.
    9900012    2    1    2    0    0 -0.44251210682E+01  0.18188666774E+02  0.36093729900E+02  0.50528848095E+02  0.29999964270E+02 0.  0.
        -12    1    1    2    0    0  0.44251210682E+01 -0.18188666774E+02 -0.36093729900E+02  0.40659151905E+02  0.00000000000E+00 0.  1.
         11    1    3    3    0    0 -0.87487685426E+01  0.90897926192E+00  0.13243108048E+01  0.88949982394E+01  0.51100000000E-03 0. -1.
        -11    1    3    3    0    0  0.81355086363E+01  0.96033523192E+01  0.28046081556E+02  0.30740747672E+02  0.51100000000E-03 0.  1.
         12    1    3    3    0    0 -0.38118611619E+01  0.76763351930E+01  0.67233375402E+01  0.10893102184E+02  0.00000000000E+00 0. -1.
</event>
<event>
 7    1  0.5019004E-011  0.5052886E+02  0.7816164E-02  0.1300439E+00
        -11   -1    0    0    0    0  0.00000000000E+00  0.00000000000E+00  0.45593999997E+02  0.45594000000E+02  0.51100000000E-03 0.  1.
         11   -1    0    0    0    0 -0.00000000000E+00 -0.00000000000E+00 -0.45593999997E+02  0.45594000000E+02  0.51100000000E-03 0. -1.
    9900012    2    1    2    0    0  0.16481559252E+02 -0.20456744294E+02 -0.31032972946E+02  0.50528860900E+02  0.30000003193E+02 0.  0.
        -12    1    1    2    0    0 -0.16481559252E+02  0.20456744294E+02  0.31032972946E+02  0.40659139100E+02  0.00000000000E+00 0.  1.
         11    1    3    3    0    0  0.12462164201E+02 -0.10850906999E+02 -0.12067385275E+02  0.20461415076E+02  0.51100000000E-03 0. -1.
        -11    1    3    3    0    0 -0.19906814488E+01 -0.96713806874E+01  0.30748815584E+00  0.98789152370E+01  0.51100000000E-03 0.  1.
        -12    1    3    3    0    0  0.60100765002E+01  0.65543392762E-01 -0.19273075826E+02  0.20188530587E+02  0.00000000000E+00 0.  1.
</event>
<event>
 7    1  0.5019004E-011  0.5052886E+02  0.7816164E-02  0.1300439E+00
        -11   -1    0    0    0    0  0.00000000000E+00  0.00000000000E+00  0.45593999997E+02  0.45594000000E+02  0.51100000000E-03 0.  1.
         11   -1    0    0    0    0 -0.00000000000E+00 -0.00000000000E+00 -0.45593999997E+02  0.45594000000E+02  0.51100000000E-03 0. -1.
    9900012    2    1    2    0    0 -0.36020088452E+02 -0.12781407476E+01 -0.18817144983E+02  0.50528863743E+02  0.30000011833E+02 0.  0.
        -12    1    1    2    0    0  0.36020088452E+02  0.12781407476E+01  0.18817144983E+02  0.40659136257E+02  0.00000000000E+00 0.  1.
         11    1    3    3    0    0 -0.19150917857E+02 -0.11871953910E+02 -0.92273255279E+01  0.24348397916E+02  0.51100000000E-03 0. -1.
        -11    1    3    3    0    0 -0.11367801917E+02  0.12104109789E+02 -0.11461028991E+02  0.20176510601E+02  0.51100000000E-03 0.  1.
        -12    1    3    3    0    0 -0.55013686783E+01 -0.15102966272E+01  0.18712095360E+01  0.60039552267E+01  0.00000000000E+00 0.  1.
</event>
<event>
 7    1  0.5019004E-011  0.5052887E+02  0.7816164E-02  0.1300439E+00
        -11   -1    0    0    0    0  0.00000000000E+00  0.00000000000E+00  0.45593999997E+02  0.45594000000E+02  0.51100000000E-03 0.  1.
         11   -1    0    0    0    0 -0.00000000000E+00 -0.00000000000E+00 -0.45593999997E+02  0.45594000000E+02  0.51100000000E-03 0. -1.
    9900012    2    1    2    0    0  0.87085616168E+01 -0.29348658962E+01 -0.39606978298E+02  0.50528865563E+02  0.30000017364E+02 0.  0.
        -12    1    1    2    0    0 -0.87085616168E+01  0.29348658962E+01  0.39606978298E+02  0.40659134437E+02  0.00000000000E+00 0.  1.
         11    1    3    3    0    0  0.60208166450E+01  0.12681927550E+01 -0.38910997063E+02  0.39394469646E+02  0.51100000000E-03 0. -1.
        -11    1    3    3    0    0  0.58960973648E+01 -0.31853751966E+01 -0.26910531657E+01  0.72216581669E+01  0.51100000000E-03 0.  1.
         12    1    3    3    0    0 -0.32083523931E+01 -0.10176834547E+01  0.19950719306E+01  0.39127377500E+01  0.00000000000E+00 0. -1.
</event>
<event>
 7    1  0.5019004E-011  0.5052886E+02  0.7816164E-02  0.1300439E+00
        -11   -1    0    0    0    0  0.00000000000E+00  0.00000000000E+00  0.45593999997E+02  0.45594000000E+02  0.51100000000E-03 0. -1.
         11   -1    0    0    0    0 -0.00000000000E+00 -0.00000000000E+00 -0.45593999997E+02  0.45594000000E+02  0.51100000000E-03 0.  1.
    9900012    2    1    2    0    0 -0.32221688510E+02 -0.92947326336E+01  0.22989917399E+02  0.50528861210E+02  0.30000004133E+02 0.  0.
        -12    1    1    2    0    0  0.32221688510E+02  0.92947326336E+01 -0.22989917399E+02  0.40659138790E+02  0.00000000000E+00 0.  1.
         11    1    3    3    0    0 -0.57959035090E+00 -0.29809121347E+01 -0.51999017130E+01  0.60216891497E+01  0.51100000000E-03 0. -1.
        -11    1    3    3    0    0 -0.19760920930E+02  0.19941804845E+01  0.14763808607E+02  0.24747541224E+02  0.51100000000E-03 0.  1.
         12    1    3    3    0    0 -0.11881177229E+02 -0.83080009834E+01  0.13426010505E+02  0.19759630836E+02  0.00000000000E+00 0. -1.
</event>
<event>
 7    1  0.5019004E-011  0.5052885E+02  0.7816164E-02  0.1300439E+00
        -11   -1    0    0    0    0  0.00000000000E+00  0.00000000000E+00  0.45593999997E+02  0.45594000000E+02  0.51100000000E-03 0.  1.
         11   -1    0    0    0    0 -0.00000000000E+00 -0.00000000000E+00 -0.45593999997E+02  0.45594000000E+02  0.51100000000E-03 0. -1.
    9900012    2    1    2    0    0 -0.17310470133E+02 -0.36393766149E+02 -0.53859205037E+01  0.50528846905E+02  0.29999960653E+02 0.  0.
        -12    1    1    2    0    0  0.17310470133E+02  0.36393766149E+02  0.53859205037E+01  0.40659153095E+02  0.00000000000E+00 0.  1.
         11    1    3    3    0    0  0.28181030271E+01  0.17314137606E+01 -0.40088098456E+01  0.51971198679E+01  0.51100000000E-03 0. -1.
        -11    1    3    3    0    0 -0.17037745635E+02 -0.17407310715E+02 -0.11055568960E+01  0.24382811548E+02  0.51100000000E-03 0.  1.
        -12    1    3    3    0    0 -0.30908275245E+01 -0.20717869194E+02 -0.27155376204E+00  0.20948915490E+02  0.00000000000E+00 0.  1.
</event>
<event>
 7    1  0.5019004E-011  0.5052885E+02  0.7816164E-02  0.1300439E+00
        -11   -1    0    0    0    0  0.00000000000E+00  0.00000000000E+00  0.45593999997E+02  0.45594000000E+02  0.51100000000E-03 0.  1.
         11   -1    0    0    0    0 -0.00000000000E+00 -0.00000000000E+00 -0.45593999997E+02  0.45594000000E+02  0.51100000000E-03 0. -1.
    9900012    2    1    2    0    0 -0.15910992975E+02 -0.12976026880E+02 -0.35094578438E+02  0.50528850885E+02  0.29999972750E+02 0.  0.
        -12    1    1    2    0    0  0.15910992975E+02  0.12976026880E+02  0.35094578438E+02  0.40659149115E+02  0.00000000000E+00 0.  1.
         11    1    3    3    0    0 -0.17009177308E+01 -0.27204648919E+00 -0.18888717907E+02  0.18967097692E+02  0.51100000000E-03 0. -1.
        -11    1    3    3    0    0 -0.30774945465E+01 -0.55079136180E+01  0.39454144187E+01  0.74413963947E+01  0.51100000000E-03 0.  1.
        -12    1    3    3    0    0 -0.11132580697E+02 -0.71960667724E+01 -0.20151274950E+02  0.24120356798E+02  0.00000000000E+00 0.  1.
</event>
<event>
 7    1  0.5019004E-011  0.5052886E+02  0.7816164E-02  0.1300439E+00
        -11   -1    0    0    0    0  0.00000000000E+00  0.00000000000E+00  0.45593999997E+02  0.45594000000E+02  0.51100000000E-03 0.  1.
         11   -1    0    0    0    0 -0.00000000000E+00 -0.00000000000E+00 -0.45593999997E+02  0.45594000000E+02  0.51100000000E-03 0. -1.
    9900012    2    1    2    0    0  0.11771641583E+02 -0.29933541324E+02 -0.24871212205E+02  0.50528860335E+02  0.30000001475E+02 0.  0.
        -12    1    1    2    0    0 -0.11771641583E+02  0.29933541324E+02  0.24871212205E+02  0.40659139665E+02  0.00000000000E+00 0.  1.
         11    1    3    3    0    0 -0.17675803863E+01 -0.21127810764E+02 -0.86473882471E+01  0.22897293549E+02  0.51100000000E-03 0. -1.
        -11    1    3    3    0    0  0.87138471450E+01  0.55597535452E+00 -0.55132315554E+00  0.87489541172E+01  0.51100000000E-03 0.  1.
         12    1    3    3    0    0  0.48253748247E+01 -0.93617059145E+01 -0.15672500802E+02  0.18882612669E+02  0.00000000000E+00 0. -1.
</event>
<event>
 7    1  0.5019004E-011  0.5052886E+02  0.7816164E-02  0.1300439E+00
        -11   -1    0    0    0    0  0.00000000000E+00  0.00000000000E+00  0.45593999997E+02  0.45594000000E+02  0.51100000000E-03 0.  1.
         11   -1    0    0    0    0 -0.00000000000E+00 -0.00000000000E+00 -0.45593999997E+02  0.45594000000E+02  0.51100000000E-03 0. -1.
    9900012    2    1    2    0    0 -0.12284692015E+02  0.89857775785E+01 -0.37702891237E+02  0.50528857557E+02  0.29999993030E+02 0.  0.
        -12    1    1    2    0    0  0.12284692015E+02 -0.89857775785E+01  0.37702891237E+02  0.40659142443E+02  0.00000000000E+00 0.  1.
         11    1    3    3    0    0  0.26249770902E+01  0.33987959152E+00 -0.29893972012E+01  0.39928083786E+01  0.51100000000E-03 0. -1.
        -11    1    3    3    0    0 -0.20942589232E+02  0.59988231333E+01 -0.16987068645E+02  0.27624960165E+02  0.51100000000E-03 0.  1.
        -12    1    3    3    0    0  0.60329201266E+01  0.26470748537E+01 -0.17726425391E+02  0.18911089013E+02  0.00000000000E+00 0.  1.
</event>
<event>
 7    1  0.5019004E-011  0.5052888E+02  0.7816164E-02  0.1300439E+00
        -11   -1    0    0    0    0  0.00000000000E+00  0.00000000000E+00  0.45593999997E+02  0.45594000000E+02  0.51100000000E-03 0.  1.
         11   -1    0    0    0    0 -0.00000000000E+00 -0.00000000000E+00 -0.45593999997E+02  0.45594000000E+02  0.51100000000E-03 0. -1.
    9900012    2    1    2    0    0 -0.37158202678E+02  0.16251240640E+02  0.28860727450E+01  0.50528877229E+02  0.30000052826E+02 0.  0.
        -12    1    1    2    0    0  0.37158202678E+02 -0.16251240640E+02 -0.28860727450E+01  0.40659122771E+02  0.00000000000E+00 0.  1.
         11    1    3    3    0    0  0.48069821633E+00 -0.15971362646E+01 -0.24518321668E+01  0.29653661255E+01  0.51100000000E-03 0. -1.
        -11    1    3    3    0    0 -0.36295744879E+02  0.21207435079E+02  0.11824332154E+01  0.42053948061E+02  0.51100000000E-03 0.  1.
        -12    1    3    3    0    0 -0.13431560154E+01 -0.33590581745E+01  0.41554716964E+01  0.55095630427E+01  0.00000000000E+00 0.  1.
</event>
<event>
 7    1  0.5019004E-011  0.5052887E+02  0.7816164E-02  0.1300439E+00
        -11   -1    0    0    0    0  0.00000000000E+00  0.00000000000E+00  0.45593999997E+02  0.45594000000E+02  0.51100000000E-03 0.  1.
         11   -1    0    0    0    0 -0.00000000000E+00 -0.00000000000E+00 -0.45593999997E+02  0.45594000000E+02  0.51100000000E-03 0. -1.
    9900012    2    1    2    0    0  0.19700771439E+02  0.34947976994E+02 -0.66093118968E+01  0.50528874394E+02  0.30000044209E+02 0.  0.
        -12    1    1    2    0    0 -0.19700771439E+02 -0.34947976994E+02  0.66093118968E+01  0.40659125606E+02  0.00000000000E+00 0.  1.
         11    1    3    3    0    0  0.11299389070E+02  0.26311598586E+02 -0.18069751271E+02  0.33859892569E+02  0.51100000000E-03 0. -1.
        -11    1    3    3    0    0  0.66121321649E+01  0.64529351762E+01  0.93471688671E+01  0.13142687330E+02  0.51100000000E-03 0.  1.
         12    1    3    3    0    0  0.17892502045E+01  0.21834432313E+01  0.21132705068E+01  0.35262944961E+01  0.00000000000E+00 0. -1.
</event>
<event>
 7    1  0.5019004E-011  0.5052886E+02  0.7816164E-02  0.1300439E+00
        -11   -1    0    0    0    0  0.00000000000E+00  0.00000000000E+00  0.45593999997E+02  0.45594000000E+02  0.51100000000E-03 0. -1.
         11   -1    0    0    0    0 -0.00000000000E+00 -0.00000000000E+00 -0.45593999997E+02  0.45594000000E+02  0.51100000000E-03 0.  1.
    9900012    2    1    2    0    0  0.28022988322E+02  0.13521793932E+02  0.26173242293E+02  0.50528863293E+02  0.30000010466E+02 0.  0.
        -12    1    1    2    0    0 -0.28022988322E+02 -0.13521793932E+02 -0.26173242293E+02  0.40659136707E+02  0.00000000000E+00 0.  1.
         11    1    3    3    0    0  0.71501750645E+01 -0.18510691977E+01  0.18716351562E+01  0.76193489910E+01  0.51100000000E-03 0. -1.
        -11    1    3    3    0    0  0.66003662771E+01  0.19434187944E+02  0.13931813377E+02  0.24806207293E+02  0.51100000000E-03 0.  1.
        -12    1    3    3    0    0  0.14272446980E+02 -0.40613248141E+01  0.10369793760E+02  0.18103307009E+02  0.00000000000E+00 0.  1.
</event>
<event>
 7    1  0.5019004E-011  0.5052886E+02  0.7816164E-02  0.1300439E+00
        -11   -1    0    0    0    0  0.00000000000E+00  0.00000000000E+00  0.45593999997E+02  0.45594000000E+02  0.51100000000E-03 0.  1.
         11   -1    0    0    0    0 -0.00000000000E+00 -0.00000000000E+00 -0.45593999997E+02  0.45594000000E+02  0.51100000000E-03 0. -1.
    9900012    2    1    2    0    0  0.44528759717E+01  0.58662182592E+01 -0.39986562053E+02  0.50528858766E+02  0.29999996704E+02 0.  0.
        -12    1    1    2    0    0 -0.44528759717E+01 -0.58662182592E+01  0.39986562053E+02  0.40659141234E+02  0.00000000000E+00 0.  1.
         11    1    3    3    0    0 -0.53185246144E+01 -0.10746358202E+01 -0.31437199117E+02  0.31902022425E+02  0.51100000000E-03 0. -1.
        -11    1    3    3    0    0  0.54989409360E+01  0.92343418054E+01 -0.28015230724E+01  0.11106752531E+02  0.51100000000E-03 0.  1.
        -12    1    3    3    0    0  0.42724596500E+01 -0.22934877260E+01 -0.57478398636E+01  0.75200838100E+01  0.00000000000E+00 0.  1.
</event>
<event>
 7    1  0.5019004E-011  0.5052886E+02  0.7816164E-02  0.1300439E+00
        -11   -1    0    0    0    0  0.00000000000E+00  0.00000000000E+00  0.45593999997E+02  0.45594000000E+02  0.51100000000E-03 0.  1.
         11   -1    0    0    0    0 -0.00000000000E+00 -0.00000000000E+00 -0.45593999997E+02  0.45594000000E+02  0.51100000000E-03 0. -1.
    9900012    2    1    2    0    0  0.28472040921E+02 -0.39031935790E+01 -0.28762363247E+02  0.50528861127E+02  0.30000003882E+02 0.  0.
        -12    1    1    2    0    0 -0.28472040921E+02  0.39031935790E+01  0.28762363247E+02  0.40659138873E+02  0.00000000000E+00 0.  1.
         11    1    3    3    0    0  0.19305064929E+02 -0.56811736332E+01 -0.28342098761E+02  0.34759686825E+02  0.51100000000E-03 0. -1.
        -11    1    3    3    0    0 -0.14134616611E+01  0.28587498031E+01  0.32161096008E+01  0.45292036308E+01  0.51100000000E-03 0.  1.
         12    1    3    3    0    0  0.10580437654E+02 -0.10807697488E+01 -0.36363740869E+01  0.11239970672E+02  0.00000000000E+00 0. -1.
</event>
<event>
 7    1  0.5019004E-011  0.5052886E+02  0.7816164E-02  0.1300439E+00
        -11   -1    0    0    0    0  0.00000000000E+00  0.00000000000E+00  0.45593999997E+02  0.45594000000E+02  0.51100000000E-03 0.  1.
         11   -1    0    0    0    0 -0.00000000000E+00 -0.00000000000E+00 -0.45593999997E+02  0.45594000000E+02  0.51100000000E-03 0. -1.
    9900012    2    1    2    0    0  0.39986861473E+02  0.71926582003E+01  0.15755774922E+01  0.50528857524E+02  0.29999992931E+02 0.  0.
        -12    1    1    2    0    0 -0.39986861473E+02 -0.71926582003E+01 -0.15755774922E+01  0.40659142476E+02  0.00000000000E+00 0.  1.
         11    1    3    3    0    0  0.35545917324E+02 -0.43886522208E+01 -0.15035247709E+01  0.35847358253E+02  0.51100000000E-03 0. -1.
        -11    1    3    3    0    0  0.64221572482E+01  0.79738784929E+01  0.21255737680E+01  0.10456811466E+02  0.51100000000E-03 0.  1.
         12    1    3    3    0    0 -0.19812130992E+01  0.36074319282E+01  0.95352849515E+00  0.42246878053E+01  0.00000000000E+00 0. -1.
</event>
<event>
 7    1  0.5019004E-011  0.5052886E+02  0.7816164E-02  0.1300439E+00
        -11   -1    0    0    0    0  0.00000000000E+00  0.00000000000E+00  0.45593999997E+02  0.45594000000E+02  0.51100000000E-03 0. -1.
         11   -1    0    0    0    0 -0.00000000000E+00 -0.00000000000E+00 -0.45593999997E+02  0.45594000000E+02  0.51100000000E-03 0.  1.
    9900012    2    1    2    0    0 -0.19162864785E+02  0.15192743019E+02  0.32482778592E+02  0.50528859180E+02  0.29999997962E+02 0.  0.
        -12    1    1    2    0    0  0.19162864785E+02 -0.15192743019E+02 -0.32482778592E+02  0.40659140820E+02  0.00000000000E+00 0.  1.
         11    1    3    3    0    0 -0.11381496043E+02 -0.71269227019E+01  0.52368296039E+01  0.14413738722E+02  0.51100000000E-03 0. -1.
        -11    1    3    3    0    0 -0.19046684494E+01  0.77436885740E+01  0.97869498285E+01  0.12624454913E+02  0.51100000000E-03 0.  1.
         12    1    3    3    0    0 -0.58767002929E+01  0.14575977147E+02  0.17458999159E+02  0.23490665545E+02  0.00000000000E+00 0. -1.
</event>
<event>
 7    1  0.5019004E-011  0.5052887E+02  0.7816164E-02  0.1300439E+00
        -11   -1    0    0    0    0  0.00000000000E+00  0.00000000000E+00  0.45593999997E+02  0.45594000000E+02  0.51100000000E-03 0.  1.
         11   -1    0    0    0    0 -0.00000000000E+00 -0.00000000000E+00 -0.45593999997E+02  0.45594000000E+02  0.51100000000E-03 0. -1.
    9900012    2    1    2    0    0  0.33091273541E+02 -0.22076540624E+02 -0.84118344117E+01  0.50528868324E+02  0.30000025758E+02 0.  0.
        -12    1    1    2    0    0 -0.33091273541E+02  0.22076540624E+02  0.84118344117E+01  0.40659131676E+02  0.00000000000E+00 0.  1.
         11    1    3    3    0    0  0.28766564391E+02 -0.66514531248E+01  0.53796496514E+00  0.29530432812E+02  0.51100000000E-03 0. -1.
        -11    1    3    3    0    0  0.42889771202E+01 -0.72449502287E+01 -0.96282357047E+01  0.12790134933E+02  0.51100000000E-03 0.  1.
         12    1    3    3    0    0  0.35732029726E-01 -0.81801372704E+01  0.67843632781E+00  0.82083005788E+01  0.00000000000E+00 0. -1.
</event>
<event>
 7    1  0.5019004E-011  0.5052880E+02  0.7816164E-02  0.1300439E+00
        -11   -1    0    0    0    0  0.00000000000E+00  0.00000000000E+00  0.45593999997E+02  0.45594000000E+02  0.51100000000E-03 0.  1.
         11   -1    0    0    0    0 -0.00000000000E+00 -0.00000000000E+00 -0.45593999997E+02  0.45594000000E+02  0.51100000000E-03 0. -1.
    9900012    2    1    2    0    0  0.15503260883E+02  0.11815883655E+01 -0.37568913017E+02  0.50528800865E+02  0.29999820708E+02 0.  0.
        -12    1    1    2    0    0 -0.15503260883E+02 -0.11815883655E+01  0.37568913017E+02  0.40659199135E+02  0.00000000000E+00 0.  1.
         11    1    3    3    0    0  0.11857620722E+02 -0.39159872198E+01 -0.24230814393E+02  0.27259319352E+02  0.51100000000E-03 0. -1.
        -11    1    3    3    0    0  0.17616125275E+01  0.11387579199E+02 -0.11866123824E+02  0.16540409111E+02  0.51100000000E-03 0.  1.
        -12    1    3    3    0    0  0.18840276331E+01 -0.62900036133E+01 -0.14719747993E+01  0.67290724017E+01  0.00000000000E+00 0.  1.
</event>
<event>
 7    1  0.5019004E-011  0.5052887E+02  0.7816164E-02  0.1300439E+00
        -11   -1    0    0    0    0  0.00000000000E+00  0.00000000000E+00  0.45593999997E+02  0.45594000000E+02  0.51100000000E-03 0.  1.
         11   -1    0    0    0    0 -0.00000000000E+00 -0.00000000000E+00 -0.45593999997E+02  0.45594000000E+02  0.51100000000E-03 0. -1.
    9900012    2    1    2    0    0 -0.32304207170E+02 -0.14688126913E+02 -0.19845965784E+02  0.50528865344E+02  0.30000016699E+02 0.  0.
        -12    1    1    2    0    0  0.32304207170E+02  0.14688126913E+02  0.19845965784E+02  0.40659134656E+02  0.00000000000E+00 0.  1.
         11    1    3    3    0    0 -0.54096461012E+01 -0.50017651697E+01 -0.96861979401E+01  0.12169813333E+02  0.51100000000E-03 0. -1.
        -11    1    3    3    0    0 -0.26442083098E+02 -0.13542294668E+01 -0.17850807315E+01  0.26536846261E+02  0.51100000000E-03 0.  1.
        -12    1    3    3    0    0 -0.45247797179E+00 -0.83321322762E+01 -0.83746871120E+01  0.11822205750E+02  0.00000000000E+00 0.  1.
</event>
<event>
 7    1  0.5019004E-011  0.5052886E+02  0.7816164E-02  0.1300439E+00
        -11   -1    0    0    0    0  0.00000000000E+00  0.00000000000E+00  0.45593999997E+02  0.45594000000E+02  0.51100000000E-03 0.  1.
         11   -1    0    0    0    0 -0.00000000000E+00 -0.00000000000E+00 -0.45593999997E+02  0.45594000000E+02  0.51100000000E-03 0. -1.
    9900012    2    1    2    0    0  0.12435960559E+02  0.27960949618E+02 -0.26771208111E+02  0.50528863237E+02  0.30000010296E+02 0.  0.
        -12    1    1    2    0    0 -0.12435960559E+02 -0.27960949618E+02  0.26771208111E+02  0.40659136763E+02  0.00000000000E+00 0.  1.
         11    1    3    3    0    0  0.15972991183E+02  0.13364611747E+02 -0.18255410577E+02  0.27694932932E+02  0.51100000000E-03 0. -1.
        -11    1    3    3    0    0 -0.84858049762E+01  0.74618774681E+01 -0.85185782320E+01  0.14151136944E+02  0.51100000000E-03 0.  1.
         12    1    3    3    0    0  0.49487743521E+01  0.71344604029E+01  0.27806988111E-02  0.86827933617E+01  0.00000000000E+00 0. -1.
</event>
<event>
 7    1  0.5019004E-011  0.5052886E+02  0.7816164E-02  0.1300439E+00
        -11   -1    0    0    0    0  0.00000000000E+00  0.00000000000E+00  0.45593999997E+02  0.45594000000E+02  0.51100000000E-03 0.  1.
         11   -1    0    0    0    0 -0.00000000000E+00 -0.00000000000E+00 -0.45593999997E+02  0.45594000000E+02  0.51100000000E-03 0. -1.
    9900012    2    1    2    0    0  0.15170695636E+02  0.29977328402E+02 -0.22899236616E+02  0.50528864965E+02  0.30000015547E+02 0.  0.
        -12    1    1    2    0    0 -0.15170695636E+02 -0.29977328402E+02  0.22899236616E+02  0.40659135035E+02  0.00000000000E+00 0.  1.
         11    1    3    3    0    0  0.10468813548E+02  0.15670459660E+02 -0.50192521143E+01  0.19502621750E+02  0.51100000000E-03 0. -1.
        -11    1    3    3    0    0 -0.60928250843E+01  0.12520961963E+01  0.23543776848E+00  0.62246038908E+01  0.51100000000E-03 0.  1.
        -12    1    3    3    0    0  0.10794707172E+02  0.13054772546E+02 -0.18115422270E+02  0.24801639324E+02  0.00000000000E+00 0.  1.
</event>
<event>
 7    1  0.5019004E-011  0.5052884E+02  0.7816164E-02  0.1300439E+00
        -11   -1    0    0    0    0  0.00000000000E+00  0.00000000000E+00  0.45593999997E+02  0.45594000000E+02  0.51100000000E-03 0.  1.
         11   -1    0    0    0    0 -0.00000000000E+00 -0.00000000000E+00 -0.45593999997E+02  0.45594000000E+02  0.51100000000E-03 0. -1.
    9900012    2    1    2    0    0 -0.19730753862E+02 -0.20376665196E+01 -0.35492426105E+02  0.50528843054E+02  0.29999948946E+02 0.  0.
        -12    1    1    2    0    0  0.19730753862E+02  0.20376665196E+01  0.35492426105E+02  0.40659156946E+02  0.00000000000E+00 0.  1.
         11    1    3    3    0    0  0.19285615819E+01  0.63974486034E+01 -0.44535551049E+01  0.80299969952E+01  0.51100000000E-03 0. -1.
        -11    1    3    3    0    0 -0.11715722654E+02 -0.13054365576E+01 -0.27249450765E+02  0.29689979608E+02  0.51100000000E-03 0.  1.
        -12    1    3    3    0    0 -0.99435927898E+01 -0.71296785654E+01 -0.37894202350E+01  0.12808866450E+02  0.00000000000E+00 0.  1.
</event>
<event>
 7    1  0.5019004E-011  0.5052886E+02  0.7816164E-02  0.1300439E+00
        -11   -1    0    0    0    0  0.00000000000E+00  0.00000000000E+00  0.45593999997E+02  0.45594000000E+02  0.51100000000E-03 0.  1.
         11   -1    0    0    0    0 -0.00000000000E+00 -0.00000000000E+00 -0.45593999997E+02  0.45594000000E+02  0.51100000000E-03 0. -1.
    9900012    2    1    2    0    0  0.12692201327E+02 -0.36817549706E+02 -0.11685106029E+02  0.50528860267E+02  0.30000001267E+02 0.  0.
        -12    1    1    2    0    0 -0.12692201327E+02  0.36817549706E+02  0.11685106029E+02  0.40659139733E+02  0.00000000000E+00 0.  1.
         11    1    3    3    0    0  0.82116593860E+01 -0.20878605735E+02 -0.59289263571E+01  0.23205596207E+02  0.51100000000E-03 0. -1.
        -11    1    3    3    0    0 -0.72881674814E+01 -0.56028167801E+01 -0.70813002403E+01  0.11604040437E+02  0.51100000000E-03 0.  1.
        -12    1    3    3    0    0  0.11768709423E+02 -0.10336127191E+02  0.13251205681E+01  0.15719223623E+02  0.00000000000E+00 0.  1.
</event>
<event>
 7    1  0.5019004E-011  0.5052886E+02  0.7816164E-02  0.1300439E+00
        -11   -1    0    0    0    0  0.00000000000E+00  0.00000000000E+00  0.45593999997E+02  0.45594000000E+02  0.51100000000E-03 0.  1.
         11   -1    0    0    0    0 -0.00000000000E+00 -0.00000000000E+00 -0.45593999997E+02  0.45594000000E+02  0.51100000000E-03 0. -1.
    9900012    2    1    2    0    0  0.14617248625E+02  0.34676226726E+02 -0.15396782018E+02  0.50528861374E+02  0.30000004632E+02 0.  0.
        -12    1    1    2    0    0 -0.14617248625E+02 -0.34676226726E+02  0.15396782018E+02  0.40659138626E+02  0.00000000000E+00 0.  1.
         11    1    3    3    0    0  0.27861464930E+01  0.35953070430E+01 -0.28925788635E+01  0.53903485747E+01  0.51100000000E-03 0. -1.
        -11    1    3    3    0    0  0.84930044051E+01  0.69583611747E+00 -0.11809210376E+02  0.14562718211E+02  0.51100000000E-03 0.  1.
        -12    1    3    3    0    0  0.33380977274E+01  0.30385083565E+02 -0.69499277824E+00  0.30575794588E+02  0.00000000000E+00 0.  1.
</event>
<event>
 7    1  0.5019004E-011  0.5052886E+02  0.7816164E-02  0.1300439E+00
        -11   -1    0    0    0    0  0.00000000000E+00  0.00000000000E+00  0.45593999997E+02  0.45594000000E+02  0.51100000000E-03 0.  1.
         11   -1    0    0    0    0 -0.00000000000E+00 -0.00000000000E+00 -0.45593999997E+02  0.45594000000E+02  0.51100000000E-03 0. -1.
    9900012    2    1    2    0    0 -0.13629431203E+02  0.35991140050E+02 -0.13116477899E+02  0.50528861427E+02  0.30000004794E+02 0.  0.
        -12    1    1    2    0    0  0.13629431203E+02 -0.35991140050E+02  0.13116477899E+02  0.40659138573E+02  0.00000000000E+00 0.  1.
         11    1    3    3    0    0  0.96542760537E+00  0.40669337711E+01  0.56302159762E+01  0.70122273893E+01  0.51100000000E-03 0.  1.
        -11    1    3    3    0    0 -0.14527015465E+02  0.20027683464E+02 -0.48309811359E+01  0.25208741783E+02  0.51100000000E-03 0. -1.
         12    1    3    3    0    0 -0.67843343408E-01  0.11896522815E+02 -0.13915712739E+02  0.18307892255E+02  0.00000000000E+00 0. -1.
</event>
<event>
 7    1  0.5019004E-011  0.5052889E+02  0.7816164E-02  0.1300439E+00
        -11   -1    0    0    0    0  0.00000000000E+00  0.00000000000E+00  0.45593999997E+02  0.45594000000E+02  0.51100000000E-03 0.  1.
         11   -1    0    0    0    0 -0.00000000000E+00 -0.00000000000E+00 -0.45593999997E+02  0.45594000000E+02  0.51100000000E-03 0. -1.
    9900012    2    1    2    0    0 -0.20256518082E+02 -0.34847658238E+02 -0.53364296796E+01  0.50528889198E+02  0.30000089205E+02 0.  0.
        -12    1    1    2    0    0  0.20256518082E+02  0.34847658238E+02  0.53364296796E+01  0.40659110802E+02  0.00000000000E+00 0.  1.
         11    1    3    3    0    0  0.38517067922E+01 -0.17972310535E+02 -0.87232921218E+01  0.20345402844E+02  0.51100000000E-03 0. -1.
        -11    1    3    3    0    0 -0.19184858958E+02 -0.15247882908E+02  0.44052296808E+01  0.24899052095E+02  0.51100000000E-03 0.  1.
        -12    1    3    3    0    0 -0.49233659163E+01 -0.16274647958E+01 -0.10183672387E+01  0.52844342593E+01  0.00000000000E+00 0.  1.
</event>
<event>
 7    1  0.5019004E-011  0.5052886E+02  0.7816164E-02  0.1300439E+00
        -11   -1    0    0    0    0  0.00000000000E+00  0.00000000000E+00  0.45593999997E+02  0.45594000000E+02  0.51100000000E-03 0.  1.
         11   -1    0    0    0    0 -0.00000000000E+00 -0.00000000000E+00 -0.45593999997E+02  0.45594000000E+02  0.51100000000E-03 0. -1.
    9900012    2    1    2    0    0 -0.89086398979E+01  0.31164018427E+02 -0.24548024304E+02  0.50528863185E+02  0.30000010136E+02 0.  0.
        -12    1    1    2    0    0  0.89086398979E+01 -0.31164018427E+02  0.24548024304E+02  0.40659136815E+02  0.00000000000E+00 0.  1.
         11    1    3    3    0    0  0.48433173825E+01  0.88465890871E+01  0.12125017006E+01  0.10158248982E+02  0.51100000000E-03 0.  1.
        -11    1    3    3    0    0 -0.48067537933E+01  0.20886754906E+02 -0.21506318404E+02  0.30362528618E+02  0.51100000000E-03 0. -1.
        -12    1    3    3    0    0 -0.89452034871E+01  0.14306744338E+01 -0.42542076009E+01  0.10008085585E+02  0.00000000000E+00 0.  1.
</event>
<event>
 7    1  0.5019004E-011  0.5052886E+02  0.7816164E-02  0.1300439E+00
        -11   -1    0    0    0    0  0.00000000000E+00  0.00000000000E+00  0.45593999997E+02  0.45594000000E+02  0.51100000000E-03 0. -1.
         11   -1    0    0    0    0 -0.00000000000E+00 -0.00000000000E+00 -0.45593999997E+02  0.45594000000E+02  0.51100000000E-03 0.  1.
    9900012    2    1    2    0    0 -0.20424553417E+02 -0.34816200754E+02  0.48821356148E+01  0.50528862461E+02  0.30000007937E+02 0.  0.
        -12    1    1    2    0    0  0.20424553417E+02  0.34816200754E+02 -0.48821356148E+01  0.40659137539E+02  0.00000000000E+00 0.  1.
         11    1    3    3    0    0 -0.18674983238E+02 -0.26870566142E+02  0.71682216878E+01  0.33498742157E+02  0.51100000000E-03 0. -1.
        -11    1    3    3    0    0  0.19658015043E+01  0.39377653279E+01 -0.99872728560E+00  0.45130729867E+01  0.51100000000E-03 0.  1.
        -12    1    3    3    0    0 -0.37153716835E+01 -0.11883399941E+02 -0.12873587874E+01  0.12517047317E+02  0.00000000000E+00 0.  1.
</event>
<event>
 7    1  0.5019004E-011  0.5052886E+02  0.7816164E-02  0.1300439E+00
        -11   -1    0    0    0    0  0.00000000000E+00  0.00000000000E+00  0.45593999997E+02  0.45594000000E+02  0.51100000000E-03 0.  1.
         11   -1    0    0    0    0 -0.00000000000E+00 -0.00000000000E+00 -0.45593999997E+02  0.45594000000E+02  0.51100000000E-03 0. -1.
    9900012    2    1    2    0    0 -0.68032219132E+01 -0.27702963575E+01 -0.39990088499E+02  0.50528861439E+02  0.30000004831E+02 0.  0.
        -12    1    1    2    0    0  0.68032219132E+01  0.27702963575E+01  0.39990088499E+02  0.40659138561E+02  0.00000000000E+00 0.  1.
         11    1    3    3    0    0 -0.13655027709E+02 -0.19820355727E+01 -0.13248507000E+02  0.19128805104E+02  0.51100000000E-03 0. -1.
        -11    1    3    3    0    0  0.10731823352E+02  0.23603764802E+01 -0.14620487554E+02  0.18289397644E+02  0.51100000000E-03 0.  1.
        -12    1    3    3    0    0 -0.38800175568E+01 -0.31486372650E+01 -0.12121093946E+02  0.13110658691E+02  0.00000000000E+00 0.  1.
</event>
<event>
 7    1  0.5019004E-011  0.5052886E+02  0.7816164E-02  0.1300439E+00
        -11   -1    0    0    0    0  0.00000000000E+00  0.00000000000E+00  0.45593999997E+02  0.45594000000E+02  0.51100000000E-03 0.  1.
         11   -1    0    0    0    0 -0.00000000000E+00 -0.00000000000E+00 -0.45593999997E+02  0.45594000000E+02  0.51100000000E-03 0. -1.
    9900012    2    1    2    0    0 -0.37914939476E+02  0.60341209060E+01 -0.13387014759E+02  0.50528863084E+02  0.30000009829E+02 0.  0.
        -12    1    1    2    0    0  0.37914939476E+02 -0.60341209060E+01  0.13387014759E+02  0.40659136916E+02  0.00000000000E+00 0.  1.
         11    1    3    3    0    0 -0.24040014698E+02  0.90849786233E+01  0.76496946668E+00  0.25710782209E+02  0.51100000000E-03 0. -1.
        -11    1    3    3    0    0 -0.35769868037E+00 -0.55113416042E+01 -0.66068446245E+00  0.55623141626E+01  0.51100000000E-03 0.  1.
         12    1    3    3    0    0 -0.13517226098E+02  0.24604838868E+01 -0.13491299764E+02  0.19255766712E+02  0.00000000000E+00 0. -1.
</event>
<event>
 7    1  0.5019004E-011  0.5052886E+02  0.7816164E-02  0.1300439E+00
        -11   -1    0    0    0    0  0.00000000000E+00  0.00000000000E+00  0.45593999997E+02  0.45594000000E+02  0.51100000000E-03 0. -1.
         11   -1    0    0    0    0 -0.00000000000E+00 -0.00000000000E+00 -0.45593999997E+02  0.45594000000E+02  0.51100000000E-03 0.  1.
    9900012    2    1    2    0    0 -0.22311019527E+02  0.29661382374E+02  0.16600800445E+02  0.50528858690E+02  0.29999996474E+02 0.  0.
        -12    1    1    2    0    0  0.22311019527E+02 -0.29661382374E+02 -0.16600800445E+02  0.40659141310E+02  0.00000000000E+00 0.  1.
         11    1    3    3    0    0  0.38244747457E+00 -0.15292207770E-01  0.15322159447E+01  0.15792991752E+01  0.51100000000E-03 0. -1.
        -11    1    3    3    0    0 -0.13381625149E+02 -0.19577714702E+01  0.56276589933E+01  0.14648252686E+02  0.51100000000E-03 0.  1.
        -12    1    3    3    0    0 -0.93118418527E+01  0.31634446052E+02  0.94409255067E+01  0.34301306828E+02  0.00000000000E+00 0.  1.
</event>
<event>
 7    1  0.5019004E-011  0.5052886E+02  0.7816164E-02  0.1300439E+00
        -11   -1    0    0    0    0  0.00000000000E+00  0.00000000000E+00  0.45593999997E+02  0.45594000000E+02  0.51100000000E-03 0.  1.
         11   -1    0    0    0    0 -0.00000000000E+00 -0.00000000000E+00 -0.45593999997E+02  0.45594000000E+02  0.51100000000E-03 0. -1.
    9900012    2    1    2    0    0 -0.74002342904E+01 -0.30342760816E+02  0.26033042495E+02  0.50528857079E+02  0.29999991579E+02 0.  0.
        -12    1    1    2    0    0  0.74002342904E+01  0.30342760816E+02 -0.26033042495E+02  0.40659142921E+02  0.00000000000E+00 0.  1.
         11    1    3    3    0    0 -0.83756410721E+01 -0.33569568477E+02  0.17967519600E+02  0.38985882727E+02  0.51100000000E-03 0. -1.
        -11    1    3    3    0    0  0.15770770678E+00  0.55963925251E+01  0.65378738846E+01  0.86074546881E+01  0.51100000000E-03 0.  1.
         12    1    3    3    0    0  0.81769907493E+00 -0.23695848637E+01  0.15276490103E+01  0.29355196647E+01  0.00000000000E+00 0. -1.
</event>
<event>
 7    1  0.5019004E-011  0.5052887E+02  0.7816164E-02  0.1300439E+00
        -11   -1    0    0    0    0  0.00000000000E+00  0.00000000000E+00  0.45593999997E+02  0.45594000000E+02  0.51100000000E-03 0.  1.
         11   -1    0    0    0    0 -0.00000000000E+00 -0.00000000000E+00 -0.45593999997E+02  0.45594000000E+02  0.51100000000E-03 0. -1.
    9900012    2    1    2    0    0  0.16626637374E+02  0.24744617212E+02 -0.27648219140E+02  0.50528866058E+02  0.30000018869E+02 0.  0.
        -12    1    1    2    0    0 -0.16626637374E+02 -0.24744617212E+02  0.27648219140E+02  0.40659133942E+02  0.00000000000E+00 0.  1.
         11    1    3    3    0    0  0.22841000456E+02  0.11193446122E+02 -0.12546104717E+02  0.28362109967E+02  0.51100000000E-03 0. -1.
        -11    1    3    3    0    0 -0.40456189004E+01  0.13347883158E+02 -0.13841926954E+02  0.19650240689E+02  0.51100000000E-03 0.  1.
         12    1    3    3    0    0 -0.21687441821E+01  0.20328793231E+00 -0.12601874681E+01  0.25165154014E+01  0.00000000000E+00 0. -1.
</event>
<event>
 7    1  0.5019004E-011  0.5052889E+02  0.7816164E-02  0.1300439E+00
        -11   -1    0    0    0    0  0.00000000000E+00  0.00000000000E+00  0.45593999997E+02  0.45594000000E+02  0.51100000000E-03 0.  1.
         11   -1    0    0    0    0 -0.00000000000E+00 -0.00000000000E+00 -0.45593999997E+02  0.45594000000E+02  0.51100000000E-03 0. -1.
    9900012    2    1    2    0    0  0.13307075676E+02  0.16982705174E+01 -0.38382296451E+02  0.50528891960E+02  0.30000097600E+02 0.  0.
        -12    1    1    2    0    0 -0.13307075676E+02 -0.16982705174E+01  0.38382296451E+02  0.40659108040E+02  0.00000000000E+00 0.  1.
         11    1    3    3    0    0  0.12576721142E+02  0.68423215796E+01 -0.21982075569E+02  0.26233622050E+02  0.51100000000E-03 0. -1.
        -11    1    3    3    0    0 -0.81589476240E+01 -0.17363302655E+01 -0.66484065124E+01  0.10666985447E+02  0.51100000000E-03 0.  1.
        -12    1    3    3    0    0  0.88893021581E+01 -0.34077207967E+01 -0.97518143692E+01  0.13628284462E+02  0.00000000000E+00 0.  1.
</event>
<event>
 7    1  0.5019004E-011  0.5052886E+02  0.7816164E-02  0.1300439E+00
        -11   -1    0    0    0    0  0.00000000000E+00  0.00000000000E+00  0.45593999997E+02  0.45594000000E+02  0.51100000000E-03 0. -1.
         11   -1    0    0    0    0 -0.00000000000E+00 -0.00000000000E+00 -0.45593999997E+02  0.45594000000E+02  0.51100000000E-03 0.  1.
    9900012    2    1    2    0    0 -0.11657767374E+02  0.26990025401E+02  0.28085595164E+02  0.50528859982E+02  0.30000000400E+02 0.  0.
        -12    1    1    2    0    0  0.11657767374E+02 -0.26990025401E+02 -0.28085595164E+02  0.40659140018E+02  0.00000000000E+00 0.  1.
         11    1    3    3    0    0 -0.13330602924E+02  0.74582446107E+01  0.28692826407E+00  0.15277850473E+02  0.51100000000E-03 0. -1.
        -11    1    3    3    0    0  0.34649157636E+01  0.19050501732E+02  0.22763714409E+02  0.29885012154E+02  0.51100000000E-03 0.  1.
        -12    1    3    3    0    0 -0.17920802137E+01  0.48127905872E+00  0.50349524907E+01  0.53659973545E+01  0.00000000000E+00 0.  1.
</event>
<event>
 7    1  0.5019004E-011  0.5052887E+02  0.7816164E-02  0.1300439E+00
        -11   -1    0    0    0    0  0.00000000000E+00  0.00000000000E+00  0.45593999997E+02  0.45594000000E+02  0.51100000000E-03 0. -1.
         11   -1    0    0    0    0 -0.00000000000E+00 -0.00000000000E+00 -0.45593999997E+02  0.45594000000E+02  0.51100000000E-03 0.  1.
    9900012    2    1    2    0    0  0.29497165035E+00 -0.14357165540E+02  0.38038795477E+02  0.50528866070E+02  0.30000018906E+02 0.  0.
        -12    1    1    2    0    0 -0.29497165035E+00  0.14357165540E+02 -0.38038795477E+02  0.40659133930E+02  0.00000000000E+00 0.  1.
         11    1    3    3    0    0 -0.35258871156E+01  0.71518992639E+01  0.10003566660E+02  0.12792688897E+02  0.51100000000E-03 0. -1.
        -11    1    3    3    0    0 -0.23474836437E+01 -0.18002214291E+02  0.19689630213E+02  0.26781933034E+02  0.51100000000E-03 0.  1.
        -12    1    3    3    0    0  0.61683424096E+01 -0.35068505130E+01  0.83455986042E+01  0.10954244139E+02  0.00000000000E+00 0.  1.
</event>
<event>
 7    1  0.5019004E-011  0.5052874E+02  0.7816164E-02  0.1300439E+00
        -11   -1    0    0    0    0  0.00000000000E+00  0.00000000000E+00  0.45593999997E+02  0.45594000000E+02  0.51100000000E-03 0.  1.
         11   -1    0    0    0    0 -0.00000000000E+00 -0.00000000000E+00 -0.45593999997E+02  0.45594000000E+02  0.51100000000E-03 0. -1.
    9900012    2    1    2    0    0  0.33967403410E+02 -0.89497713162E+00 -0.22329125249E+02  0.50528741364E+02  0.29999639848E+02 0.  0.
        -12    1    1    2    0    0 -0.33967403410E+02  0.89497713162E+00  0.22329125249E+02  0.40659258636E+02  0.00000000000E+00 0.  1.
         11    1    3    3    0    0  0.12378119038E+02  0.80660100727E+01  0.18882269634E+01  0.14894420121E+02  0.51100000000E-03 0. -1.
        -11    1    3    3    0    0  0.87686285137E+01 -0.66653279524E+01 -0.42736866116E+01  0.11814391234E+02  0.51100000000E-03 0.  1.
         12    1    3    3    0    0  0.12820655858E+02 -0.22956592519E+01 -0.19943665600E+02  0.23819930008E+02  0.00000000000E+00 0. -1.
</event>
<event>
 7    1  0.5019004E-011  0.5052886E+02  0.7816164E-02  0.1300439E+00
        -11   -1    0    0    0    0  0.00000000000E+00  0.00000000000E+00  0.45593999997E+02  0.45594000000E+02  0.51100000000E-03 0. -1.
         11   -1    0    0    0    0 -0.00000000000E+00 -0.00000000000E+00 -0.45593999997E+02  0.45594000000E+02  0.51100000000E-03 0.  1.
    9900012    2    1    2    0    0  0.14284264882E+02  0.37818881082E+02  0.43425648975E+01  0.50528857616E+02  0.29999993210E+02 0.  0.
        -12    1    1    2    0    0 -0.14284264882E+02 -0.37818881082E+02 -0.43425648975E+01  0.40659142384E+02  0.00000000000E+00 0.  1.
         11    1    3    3    0    0 -0.62987169881E+01  0.33767577095E+01  0.21785521766E+01  0.74714401672E+01  0.51100000000E-03 0.  1.
        -11    1    3    3    0    0  0.18322640453E+02  0.16272022990E+02  0.32260071424E+01  0.24716492626E+02  0.51100000000E-03 0. -1.
         12    1    3    3    0    0  0.22603414173E+01  0.18170100382E+02 -0.10619944215E+01  0.18340924823E+02  0.00000000000E+00 0. -1.
</event>
<event>
 7    1  0.5019004E-011  0.5052888E+02  0.7816164E-02  0.1300439E+00
        -11   -1    0    0    0    0  0.00000000000E+00  0.00000000000E+00  0.45593999997E+02  0.45594000000E+02  0.51100000000E-03 0.  1.
         11   -1    0    0    0    0 -0.00000000000E+00 -0.00000000000E+00 -0.45593999997E+02  0.45594000000E+02  0.51100000000E-03 0. -1.
    9900012    2    1    2    0    0 -0.12842285928E+02 -0.34705932744E+02 -0.16844530202E+02  0.50528877122E+02  0.30000052500E+02 0.  0.
        -12    1    1    2    0    0  0.12842285928E+02  0.34705932744E+02  0.16844530202E+02  0.40659122878E+02  0.00000000000E+00 0.  1.
         11    1    3    3    0    0 -0.20737111929E+01 -0.93334530258E+01  0.25559631211E+00  0.95644630394E+01  0.51100000000E-03 0. -1.
        -11    1    3    3    0    0 -0.82188219794E+00  0.62633283505E+00 -0.12747836888E+02  0.12789649282E+02  0.51100000000E-03 0.  1.
        -12    1    3    3    0    0 -0.99466925370E+01 -0.25998812553E+02 -0.43522896264E+01  0.28174764801E+02  0.00000000000E+00 0.  1.
</event>
<event>
 7    1  0.5019004E-011  0.5052887E+02  0.7816164E-02  0.1300439E+00
        -11   -1    0    0    0    0  0.00000000000E+00  0.00000000000E+00  0.45593999997E+02  0.45594000000E+02  0.51100000000E-03 0. -1.
         11   -1    0    0    0    0 -0.00000000000E+00 -0.00000000000E+00 -0.45593999997E+02  0.45594000000E+02  0.51100000000E-03 0.  1.
    9900012    2    1    2    0    0 -0.20775161238E+01  0.35565682762E+02 -0.19594162528E+02  0.50528867339E+02  0.30000022764E+02 0.  0.
        -12    1    1    2    0    0  0.20775161238E+01 -0.35565682762E+02  0.19594162528E+02  0.40659132661E+02  0.00000000000E+00 0.  1.
         11    1    3    3    0    0  0.94762923527E+01  0.95820752895E+01 -0.10662729759E+02  0.17184588729E+02  0.51100000000E-03 0. -1.
        -11    1    3    3    0    0 -0.13910112334E+02  0.21742075560E+02 -0.11015783150E+02  0.28063438020E+02  0.51100000000E-03 0.  1.
         12    1    3    3    0    0  0.23563038574E+01  0.42415319124E+01  0.20843503814E+01  0.52808405907E+01  0.00000000000E+00 0. -1.
</event>
<event>
 7    1  0.5019004E-011  0.5052886E+02  0.7816164E-02  0.1300439E+00
        -11   -1    0    0    0    0  0.00000000000E+00  0.00000000000E+00  0.45593999997E+02  0.45594000000E+02  0.51100000000E-03 0.  1.
         11   -1    0    0    0    0 -0.00000000000E+00 -0.00000000000E+00 -0.45593999997E+02  0.45594000000E+02  0.51100000000E-03 0. -1.
    9900012    2    1    2    0    0  0.48425823468E+01  0.40343701992E+02 -0.14494831681E+01  0.50528857170E+02  0.29999991855E+02 0.  0.
        -12    1    1    2    0    0 -0.48425823468E+01 -0.40343701992E+02  0.14494831681E+01  0.40659142830E+02  0.00000000000E+00 0.  1.
         11    1    3    3    0    0 -0.24271843564E+01  0.12889598567E+02 -0.90822541398E+01  0.15953692853E+02  0.51100000000E-03 0. -1.
        -11    1    3    3    0    0  0.84825291704E+01  0.29011119779E+02  0.96736844234E+01  0.31736076357E+02  0.51100000000E-03 0.  1.
        -12    1    3    3    0    0 -0.12127624672E+01 -0.15570163544E+01 -0.20409134517E+01  0.28390879604E+01  0.00000000000E+00 0.  1.
</event>
<event>
 7    1  0.5019004E-011  0.5052886E+02  0.7816164E-02  0.1300439E+00
        -11   -1    0    0    0    0  0.00000000000E+00  0.00000000000E+00  0.45593999997E+02  0.45594000000E+02  0.51100000000E-03 0. -1.
         11   -1    0    0    0    0 -0.00000000000E+00 -0.00000000000E+00 -0.45593999997E+02  0.45594000000E+02  0.51100000000E-03 0.  1.
    9900012    2    1    2    0    0  0.40337016131E+02 -0.33865190654E+01  0.38238993369E+01  0.50528860956E+02  0.30000003360E+02 0.  0.
        -12    1    1    2    0    0 -0.40337016131E+02  0.33865190654E+01 -0.38238993369E+01  0.40659139044E+02  0.00000000000E+00 0.  1.
         11    1    3    3    0    0  0.11707124181E+02 -0.14865879762E+01  0.70568837457E+01  0.13750138503E+02  0.51100000000E-03 0. -1.
        -11    1    3    3    0    0  0.18767761228E+02 -0.38774538374E+01 -0.12680208951E+02  0.22979364853E+02  0.51100000000E-03 0.  1.
        -12    1    3    3    0    0  0.98621307219E+01  0.19775227482E+01  0.94472245421E+01  0.13799357599E+02  0.00000000000E+00 0.  1.
</event>
<event>
 7    1  0.5019004E-011  0.5052886E+02  0.7816164E-02  0.1300439E+00
        -11   -1    0    0    0    0  0.00000000000E+00  0.00000000000E+00  0.45593999997E+02  0.45594000000E+02  0.51100000000E-03 0.  1.
         11   -1    0    0    0    0 -0.00000000000E+00 -0.00000000000E+00 -0.45593999997E+02  0.45594000000E+02  0.51100000000E-03 0. -1.
    9900012    2    1    2    0    0  0.17596203594E+02 -0.33301621120E+01 -0.36502730517E+02  0.50528859628E+02  0.29999999326E+02 0.  0.
        -12    1    1    2    0    0 -0.17596203594E+02  0.33301621120E+01  0.36502730517E+02  0.40659140372E+02  0.00000000000E+00 0.  1.
         11    1    3    3    0    0  0.13483252282E+02 -0.35528068683E+00 -0.86267026159E+01  0.16010756220E+02  0.51100000000E-03 0. -1.
        -11    1    3    3    0    0 -0.68180342055E+01  0.21479337204E+01 -0.52364409176E+01  0.88611242763E+01  0.51100000000E-03 0.  1.
        -12    1    3    3    0    0  0.10930985517E+02 -0.51228151456E+01 -0.22639586983E+02  0.25656979132E+02  0.00000000000E+00 0.  1.
</event>
<event>
 7    1  0.5019004E-011  0.5052886E+02  0.7816164E-02  0.1300439E+00
        -11   -1    0    0    0    0  0.00000000000E+00  0.00000000000E+00  0.45593999997E+02  0.45594000000E+02  0.51100000000E-03 0.  1.
         11   -1    0    0    0    0 -0.00000000000E+00 -0.00000000000E+00 -0.45593999997E+02  0.45594000000E+02  0.51100000000E-03 0. -1.
    9900012    2    1    2    0    0 -0.39441638846E+02 -0.91087710763E+01 -0.38148058992E+01  0.50528864134E+02  0.30000013020E+02 0.  0.
        -12    1    1    2    0    0  0.39441638846E+02  0.91087710763E+01  0.38148058992E+01  0.40659135866E+02  0.00000000000E+00 0.  1.
         11    1    3    3    0    0 -0.18193757465E+02  0.71091077469E+01 -0.55932070609E+01  0.20318370731E+02  0.51100000000E-03 0. -1.
        -11    1    3    3    0    0 -0.21962445208E+02 -0.11196527593E+02  0.34010669956E+01  0.24885306641E+02  0.51100000000E-03 0.  1.
        -12    1    3    3    0    0  0.71456382749E+00 -0.50213512298E+01 -0.16226658339E+01  0.53251867616E+01  0.00000000000E+00 0.  1.
</event>
<event>
 7    1  0.5019004E-011  0.5052886E+02  0.7816164E-02  0.1300439E+00
        -11   -1    0    0    0    0  0.00000000000E+00  0.00000000000E+00  0.45593999997E+02  0.45594000000E+02  0.51100000000E-03 0.  1.
         11   -1    0    0    0    0 -0.00000000000E+00 -0.00000000000E+00 -0.45593999997E+02  0.45594000000E+02  0.51100000000E-03 0. -1.
    9900012    2    1    2    0    0  0.68436688588E+01  0.28880525288E+02 -0.27789301508E+02  0.50528858068E+02  0.29999994582E+02 0.  0.
        -12    1    1    2    0    0 -0.68436688588E+01 -0.28880525288E+02  0.27789301508E+02  0.40659141932E+02  0.00000000000E+00 0.  1.
         11    1    3    3    0    0 -0.70732701130E+01  0.38025312064E+01 -0.39780423629E+01  0.89618756390E+01  0.51100000000E-03 0. -1.
        -11    1    3    3    0    0  0.12815435405E+02  0.18968469445E+02 -0.74597710389E+01  0.24076677551E+02  0.51100000000E-03 0.  1.
        -12    1    3    3    0    0  0.11015035670E+01  0.61095246366E+01 -0.16351488107E+02  0.17490304877E+02  0.00000000000E+00 0.  1.
</event>
<event>
 7    1  0.5019004E-011  0.5052886E+02  0.7816164E-02  0.1300439E+00
        -11   -1    0    0    0    0  0.00000000000E+00  0.00000000000E+00  0.45593999997E+02  0.45594000000E+02  0.51100000000E-03 0.  1.
         11   -1    0    0    0    0 -0.00000000000E+00 -0.00000000000E+00 -0.45593999997E+02  0.45594000000E+02  0.51100000000E-03 0. -1.
    9900012    2    1    2    0    0  0.79659935973E+01 -0.27578857271E+02 -0.28794354271E+02  0.50528864984E+02  0.30000015605E+02 0.  0.
        -12    1    1    2    0    0 -0.79659935973E+01  0.27578857271E+02  0.28794354271E+02  0.40659135016E+02  0.00000000000E+00 0.  1.
         11    1    3    3    0    0  0.18876963604E+01 -0.19277578128E+02 -0.15957068556E+02  0.25096144189E+02  0.51100000000E-03 0. -1.
        -11    1    3    3    0    0  0.12963314724E+01  0.55478874311E+01  0.36700256193E+00  0.57091349061E+01  0.51100000000E-03 0.  1.
        -12    1    3    3    0    0  0.47819657644E+01 -0.13849166574E+02 -0.13204288277E+02  0.19723585888E+02  0.00000000000E+00 0.  1.
</event>
<event>
 7    1  0.5019004E-011  0.5052886E+02  0.7816164E-02  0.1300439E+00
        -11   -1    0    0    0    0  0.00000000000E+00  0.00000000000E+00  0.45593999997E+02  0.45594000000E+02  0.51100000000E-03 0. -1.
         11   -1    0    0    0    0 -0.00000000000E+00 -0.00000000000E+00 -0.45593999997E+02  0.45594000000E+02  0.51100000000E-03 0.  1.
    9900012    2    1    2    0    0  0.10955056105E+02 -0.26758767673E+02  0.28585320198E+02  0.50528862867E+02  0.30000009169E+02 0.  0.
        -12    1    1    2    0    0 -0.10955056105E+02  0.26758767673E+02 -0.28585320198E+02  0.40659137133E+02  0.00000000000E+00 0.  1.
         11    1    3    3    0    0 -0.74028907009E+01 -0.14436770478E+01  0.10322280169E+01  0.76126532226E+01  0.51100000000E-03 0. -1.
        -11    1    3    3    0    0  0.85388619675E+01 -0.52736288992E+01  0.50967807327E+01  0.11256131643E+02  0.51100000000E-03 0.  1.
         12    1    3    3    0    0  0.98190848381E+01 -0.20041461726E+02  0.22456311448E+02  0.31660078001E+02  0.00000000000E+00 0. -1.
</event>
<event>
 7    1  0.5019004E-011  0.5052886E+02  0.7816164E-02  0.1300439E+00
        -11   -1    0    0    0    0  0.00000000000E+00  0.00000000000E+00  0.45593999997E+02  0.45594000000E+02  0.51100000000E-03 0. -1.
         11   -1    0    0    0    0 -0.00000000000E+00 -0.00000000000E+00 -0.45593999997E+02  0.45594000000E+02  0.51100000000E-03 0.  1.
    9900012    2    1    2    0    0 -0.10238181328E+01  0.34671337286E+02  0.21213568870E+02  0.50528864041E+02  0.30000012739E+02 0.  0.
        -12    1    1    2    0    0  0.10238181328E+01 -0.34671337286E+02 -0.21213568870E+02  0.40659135959E+02  0.00000000000E+00 0.  1.
         11    1    3    3    0    0 -0.93067309414E+00  0.35007397066E+02  0.11300337215E+02  0.36797848078E+02  0.51100000000E-03 0. -1.
        -11    1    3    3    0    0  0.28617873923E+01 -0.35746790353E+01  0.73291702049E+01  0.86420422029E+01  0.51100000000E-03 0.  1.
         12    1    3    3    0    0 -0.29549324310E+01  0.32386192548E+01  0.25840614499E+01  0.50889737596E+01  0.00000000000E+00 0. -1.
</event>
<event>
 7    1  0.5019004E-011  0.5052886E+02  0.7816164E-02  0.1300439E+00
        -11   -1    0    0    0    0  0.00000000000E+00  0.00000000000E+00  0.45593999997E+02  0.45594000000E+02  0.51100000000E-03 0.  1.
         11   -1    0    0    0    0 -0.00000000000E+00 -0.00000000000E+00 -0.45593999997E+02  0.45594000000E+02  0.51100000000E-03 0. -1.
    9900012    2    1    2    0    0  0.15880861242E+02  0.19712662789E+02 -0.31817834917E+02  0.50528862690E+02  0.30000008632E+02 0.  0.
        -12    1    1    2    0    0 -0.15880861242E+02 -0.19712662789E+02  0.31817834917E+02  0.40659137310E+02  0.00000000000E+00 0.  1.
         11    1    3    3    0    0 -0.40739031470E+01  0.10787635168E+02 -0.85273289778E+01  0.14341725807E+02  0.51100000000E-03 0. -1.
        -11    1    3    3    0    0  0.15608735735E+02  0.67721380135E+01 -0.57056851548E+01  0.17945732859E+02  0.51100000000E-03 0.  1.
        -12    1    3    3    0    0  0.43460286542E+01  0.21528896075E+01 -0.17584820784E+02  0.18241404023E+02  0.00000000000E+00 0.  1.
</event>
<event>
 7    1  0.5019004E-011  0.5052886E+02  0.7816164E-02  0.1300439E+00
        -11   -1    0    0    0    0  0.00000000000E+00  0.00000000000E+00  0.45593999997E+02  0.45594000000E+02  0.51100000000E-03 0.  1.
         11   -1    0    0    0    0 -0.00000000000E+00 -0.00000000000E+00 -0.45593999997E+02  0.45594000000E+02  0.51100000000E-03 0. -1.
    9900012    2    1    2    0    0 -0.35637545100E+02 -0.17990724537E+02 -0.77113638149E+01  0.50528856846E+02  0.29999990870E+02 0.  0.
        -12    1    1    2    0    0  0.35637545100E+02  0.17990724537E+02  0.77113638149E+01  0.40659143154E+02  0.00000000000E+00 0.  1.
         11    1    3    3    0    0 -0.12655910892E+02 -0.15558291505E+02 -0.95813434854E+01  0.22226890433E+02  0.51100000000E-03 0. -1.
        -11    1    3    3    0    0 -0.23841477426E+01 -0.11849649773E+01  0.66128620106E+01  0.71286917936E+01  0.51100000000E-03 0.  1.
         12    1    3    3    0    0 -0.20597486465E+02 -0.12474680549E+01 -0.47428823401E+01  0.21173274620E+02  0.00000000000E+00 0. -1.
</event>
<event>
 7    1  0.5019004E-011  0.5052886E+02  0.7816164E-02  0.1300439E+00
        -11   -1    0    0    0    0  0.00000000000E+00  0.00000000000E+00  0.45593999997E+02  0.45594000000E+02  0.51100000000E-03 0.  1.
         11   -1    0    0    0    0 -0.00000000000E+00 -0.00000000000E+00 -0.45593999997E+02  0.45594000000E+02  0.51100000000E-03 0. -1.
    9900012    2    1    2    0    0 -0.10010444720E+02 -0.29482461441E+02 -0.26148444708E+02  0.50528859616E+02  0.29999999289E+02 0.  0.
        -12    1    1    2    0    0  0.10010444720E+02  0.29482461441E+02  0.26148444708E+02  0.40659140384E+02  0.00000000000E+00 0.  1.
         11    1    3    3    0    0 -0.13712434824E+01 -0.21291308115E+02 -0.86808666482E+01  0.23033835025E+02  0.51100000000E-03 0. -1.
        -11    1    3    3    0    0 -0.62462195049E+01  0.61739644055E+00 -0.17258926941E+02  0.18364830407E+02  0.51100000000E-03 0.  1.
        -12    1    3    3    0    0 -0.23929817323E+01 -0.88085497661E+01 -0.20865111953E+00  0.91301941843E+01  0.00000000000E+00 0.  1.
</event>
<event>
 7    1  0.5019004E-011  0.5052888E+02  0.7816164E-02  0.1300439E+00
        -11   -1    0    0    0    0  0.00000000000E+00  0.00000000000E+00  0.45593999997E+02  0.45594000000E+02  0.51100000000E-03 0.  1.
         11   -1    0    0    0    0 -0.00000000000E+00 -0.00000000000E+00 -0.45593999997E+02  0.45594000000E+02  0.51100000000E-03 0. -1.
    9900012    2    1    2    0    0  0.20909138020E+02 -0.34641815803E+02  0.39895490924E+01  0.50528881012E+02  0.30000064325E+02 0.  0.
        -12    1    1    2    0    0 -0.20909138020E+02  0.34641815803E+02 -0.39895490924E+01  0.40659118988E+02  0.00000000000E+00 0.  1.
         11    1    3    3    0    0 -0.11569899159E+01 -0.25907689735E+02  0.30250850734E+01  0.26109349915E+02  0.51100000000E-03 0. -1.
        -11    1    3    3    0    0  0.64753248283E+01  0.27924479181E-01 -0.36701608313E+00  0.64857777078E+01  0.51100000000E-03 0.  1.
         12    1    3    3    0    0  0.15590803108E+02 -0.87620505478E+01  0.13314801022E+01  0.17933753389E+02  0.00000000000E+00 0. -1.
</event>
<event>
 7    1  0.5019004E-011  0.5052886E+02  0.7816164E-02  0.1300439E+00
        -11   -1    0    0    0    0  0.00000000000E+00  0.00000000000E+00  0.45593999997E+02  0.45594000000E+02  0.51100000000E-03 0. -1.
         11   -1    0    0    0    0 -0.00000000000E+00 -0.00000000000E+00 -0.45593999997E+02  0.45594000000E+02  0.51100000000E-03 0.  1.
    9900012    2    1    2    0    0 -0.36609799358E+02 -0.98368295429E+01  0.14701189250E+02  0.50528860931E+02  0.30000003285E+02 0.  0.
        -12    1    1    2    0    0  0.36609799358E+02  0.98368295429E+01 -0.14701189250E+02  0.40659139069E+02  0.00000000000E+00 0.  1.
         11    1    3    3    0    0 -0.19677061968E+02 -0.12597070102E+02  0.17460488596E+02  0.29167475124E+02  0.51100000000E-03 0. -1.
        -11    1    3    3    0    0 -0.18095362750E+02  0.34450092670E+01 -0.46879946135E+01  0.19007565222E+02  0.51100000000E-03 0.  1.
        -12    1    3    3    0    0  0.11626253598E+01 -0.68476870750E+00  0.19286952679E+01  0.23538205850E+01  0.00000000000E+00 0.  1.
</event>
<event>
 7    1  0.5019004E-011  0.5052880E+02  0.7816164E-02  0.1300439E+00
        -11   -1    0    0    0    0  0.00000000000E+00  0.00000000000E+00  0.45593999997E+02  0.45594000000E+02  0.51100000000E-03 0. -1.
         11   -1    0    0    0    0 -0.00000000000E+00 -0.00000000000E+00 -0.45593999997E+02  0.45594000000E+02  0.51100000000E-03 0.  1.
    9900012    2    1    2    0    0 -0.21180558846E+02  0.33688780719E+02  0.83439017143E+01  0.50528797903E+02  0.29999811706E+02 0.  0.
        -12    1    1    2    0    0  0.21180558846E+02 -0.33688780719E+02 -0.83439017143E+01  0.40659202097E+02  0.00000000000E+00 0.  1.
         11    1    3    3    0    0 -0.14624057425E+02  0.26569268165E+01  0.97493388689E+01  0.17775599127E+02  0.51100000000E-03 0. -1.
        -11    1    3    3    0    0 -0.32320137401E+01  0.66028674528E+01 -0.32339464192E+01  0.80313249914E+01  0.51100000000E-03 0.  1.
         12    1    3    3    0    0 -0.33244876805E+01  0.24428986450E+02  0.18285092647E+01  0.24721873785E+02  0.00000000000E+00 0. -1.
</event>
<event>
 7    1  0.5019004E-011  0.5052885E+02  0.7816164E-02  0.1300439E+00
        -11   -1    0    0    0    0  0.00000000000E+00  0.00000000000E+00  0.45593999997E+02  0.45594000000E+02  0.51100000000E-03 0.  1.
         11   -1    0    0    0    0 -0.00000000000E+00 -0.00000000000E+00 -0.45593999997E+02  0.45594000000E+02  0.51100000000E-03 0. -1.
    9900012    2    1    2    0    0  0.82802620890E+01 -0.33870715384E+02 -0.20913590859E+02  0.50528851171E+02  0.29999973619E+02 0.  0.
        -12    1    1    2    0    0 -0.82802620890E+01  0.33870715384E+02  0.20913590859E+02  0.40659148829E+02  0.00000000000E+00 0.  1.
         11    1    3    3    0    0  0.11511693719E+02 -0.22788386500E+02 -0.89986790726E+00  0.25546808295E+02  0.51100000000E-03 0. -1.
        -11    1    3    3    0    0  0.19422501667E+01 -0.32181579565E+01 -0.12017068020E+01  0.39462609952E+01  0.51100000000E-03 0.  1.
         12    1    3    3    0    0 -0.51736817969E+01 -0.78641709274E+01 -0.18812016149E+02  0.21035781880E+02  0.00000000000E+00 0. -1.
</event>
<event>
 7    1  0.5019004E-011  0.5052889E+02  0.7816164E-02  0.1300439E+00
        -11   -1    0    0    0    0  0.00000000000E+00  0.00000000000E+00  0.45593999997E+02  0.45594000000E+02  0.51100000000E-03 0.  1.
         11   -1    0    0    0    0 -0.00000000000E+00 -0.00000000000E+00 -0.45593999997E+02  0.45594000000E+02  0.51100000000E-03 0. -1.
    9900012    2    1    2    0    0 -0.26129517353E+02  0.72763288672E+01 -0.30289706672E+02  0.50528893159E+02  0.30000101245E+02 0.  0.
        -12    1    1    2    0    0  0.26129517353E+02 -0.72763288672E+01  0.30289706672E+02  0.40659106841E+02  0.00000000000E+00 0.  1.
         11    1    3    3    0    0 -0.20250395006E+02  0.55251858753E+01 -0.36189870316E+02  0.41836740917E+02  0.51100000000E-03 0. -1.
        -11    1    3    3    0    0 -0.23144662435E+01  0.12752142567E+00  0.31287593342E+01  0.38938606727E+01  0.51100000000E-03 0.  1.
         12    1    3    3    0    0 -0.35646561037E+01  0.16236215662E+01  0.27714043099E+01  0.47982915686E+01  0.00000000000E+00 0. -1.
</event>
<event>
 7    1  0.5019004E-011  0.5052882E+02  0.7816164E-02  0.1300439E+00
        -11   -1    0    0    0    0  0.00000000000E+00  0.00000000000E+00  0.45593999997E+02  0.45594000000E+02  0.51100000000E-03 0.  1.
         11   -1    0    0    0    0 -0.00000000000E+00 -0.00000000000E+00 -0.45593999997E+02  0.45594000000E+02  0.51100000000E-03 0. -1.
    9900012    2    1    2    0    0  0.22464227763E+02  0.33056527467E+02 -0.74694764147E+01  0.50528823729E+02  0.29999890205E+02 0.  0.
        -12    1    1    2    0    0 -0.22464227763E+02 -0.33056527467E+02  0.74694764147E+01  0.40659176271E+02  0.00000000000E+00 0.  1.
         11    1    3    3    0    0  0.12253056879E+02  0.16282572723E+02  0.40381551816E+01  0.20774173266E+02  0.51100000000E-03 0. -1.
        -11    1    3    3    0    0 -0.19815368885E+00  0.85548700199E+00 -0.10680882887E+02  0.10716920379E+02  0.51100000000E-03 0.  1.
        -12    1    3    3    0    0  0.10409324573E+02  0.15918467742E+02 -0.82674870935E+00  0.19037730084E+02  0.00000000000E+00 0.  1.
</event>
<event>
 7    1  0.5019004E-011  0.5052886E+02  0.7816164E-02  0.1300439E+00
        -11   -1    0    0    0    0  0.00000000000E+00  0.00000000000E+00  0.45593999997E+02  0.45594000000E+02  0.51100000000E-03 0. -1.
         11   -1    0    0    0    0 -0.00000000000E+00 -0.00000000000E+00 -0.45593999997E+02  0.45594000000E+02  0.51100000000E-03 0.  1.
    9900012    2    1    2    0    0 -0.11798841680E+02 -0.28619868103E+01  0.38804148932E+02  0.50528860710E+02  0.30000002613E+02 0.  0.
        -12    1    1    2    0    0  0.11798841680E+02  0.28619868103E+01 -0.38804148932E+02  0.40659139290E+02  0.00000000000E+00 0.  1.
         11    1    3    3    0    0 -0.11982787605E+02  0.17807933594E+01  0.41217238367E+01  0.12796367900E+02  0.51100000000E-03 0. -1.
        -11    1    3    3    0    0 -0.31953000589E+01 -0.60715868048E+01  0.32983122893E+02  0.33689174891E+02  0.51100000000E-03 0.  1.
        -12    1    3    3    0    0  0.33792459835E+01  0.14288066351E+01  0.16993022019E+01  0.40433179186E+01  0.00000000000E+00 0.  1.
</event>
<event>
 7    1  0.5019004E-011  0.5052884E+02  0.7816164E-02  0.1300439E+00
        -11   -1    0    0    0    0  0.00000000000E+00  0.00000000000E+00  0.45593999997E+02  0.45594000000E+02  0.51100000000E-03 0.  1.
         11   -1    0    0    0    0 -0.00000000000E+00 -0.00000000000E+00 -0.45593999997E+02  0.45594000000E+02  0.51100000000E-03 0. -1.
    9900012    2    1    2    0    0 -0.27829279243E+02  0.26647264176E+02 -0.12985449317E+02  0.50528839099E+02  0.29999936924E+02 0.  0.
        -12    1    1    2    0    0  0.27829279243E+02 -0.26647264176E+02  0.12985449317E+02  0.40659160901E+02  0.00000000000E+00 0.  1.
         11    1    3    3    0    0  0.26338371201E+01  0.22479922309E+01  0.38489981208E+00  0.34840658966E+01  0.51100000000E-03 0.  1.
        -11    1    3    3    0    0 -0.25133799533E+02  0.24148473100E+02 -0.25104240447E+01  0.34945083505E+02  0.51100000000E-03 0. -1.
        -12    1    3    3    0    0 -0.53293168295E+01  0.25079884536E+00 -0.10859925084E+02  0.12099689697E+02  0.00000000000E+00 0.  1.
</event>
<event>
 7    1  0.5019004E-011  0.5052886E+02  0.7816164E-02  0.1300439E+00
        -11   -1    0    0    0    0  0.00000000000E+00  0.00000000000E+00  0.45593999997E+02  0.45594000000E+02  0.51100000000E-03 0.  1.
         11   -1    0    0    0    0 -0.00000000000E+00 -0.00000000000E+00 -0.45593999997E+02  0.45594000000E+02  0.51100000000E-03 0. -1.
    9900012    2    1    2    0    0 -0.33684455500E+01  0.28193718322E+02 -0.29102121231E+02  0.50528860333E+02  0.30000001469E+02 0.  0.
        -12    1    1    2    0    0  0.33684455500E+01 -0.28193718322E+02  0.29102121231E+02  0.40659139667E+02  0.00000000000E+00 0.  1.
         11    1    3    3    0    0  0.54212757700E+01  0.13820400580E+02 -0.90544888403E+01  0.17389004330E+02  0.51100000000E-03 0. -1.
        -11    1    3    3    0    0 -0.99138386603E+01  0.21299615252E+00 -0.19043185022E+01  0.10097326060E+02  0.51100000000E-03 0.  1.
        -12    1    3    3    0    0  0.11241173403E+01  0.14160321590E+02 -0.18143313889E+02  0.23042529943E+02  0.00000000000E+00 0.  1.
</event>
<event>
 7    1  0.5019004E-011  0.5052889E+02  0.7816164E-02  0.1300439E+00
        -11   -1    0    0    0    0  0.00000000000E+00  0.00000000000E+00  0.45593999997E+02  0.45594000000E+02  0.51100000000E-03 0.  1.
         11   -1    0    0    0    0 -0.00000000000E+00 -0.00000000000E+00 -0.45593999997E+02  0.45594000000E+02  0.51100000000E-03 0. -1.
    9900012    2    1    2    0    0 -0.38081911044E+02  0.11837494359E+02  0.79249677017E+01  0.50528888666E+02  0.30000087588E+02 0.  0.
        -12    1    1    2    0    0  0.38081911044E+02 -0.11837494359E+02 -0.79249677017E+01  0.40659111334E+02  0.00000000000E+00 0.  1.
         11    1    3    3    0    0 -0.21403611060E+02  0.15295678742E+02 -0.23847269691E+01  0.26415133495E+02  0.51100000000E-03 0. -1.
        -11    1    3    3    0    0 -0.34595870767E+01 -0.25460078848E+01  0.99736913328E+01  0.10859347032E+02  0.51100000000E-03 0.  1.
        -12    1    3    3    0    0 -0.13218712907E+02 -0.91217649812E+00  0.33600333793E+00  0.13254408139E+02  0.00000000000E+00 0.  1.
</event>
<event>
 7    1  0.5019004E-011  0.5052886E+02  0.7816164E-02  0.1300439E+00
        -11   -1    0    0    0    0  0.00000000000E+00  0.00000000000E+00  0.45593999997E+02  0.45594000000E+02  0.51100000000E-03 0.  1.
         11   -1    0    0    0    0 -0.00000000000E+00 -0.00000000000E+00 -0.45593999997E+02  0.45594000000E+02  0.51100000000E-03 0. -1.
    9900012    2    1    2    0    0 -0.11132231702E+02  0.39057509463E+02 -0.19364238989E+01  0.50528863688E+02  0.30000011667E+02 0.  0.
        -12    1    1    2    0    0  0.11132231702E+02 -0.39057509463E+02  0.19364238989E+01  0.40659136312E+02  0.00000000000E+00 0.  1.
         11    1    3    3    0    0 -0.18979100199E+00  0.18272154783E+02 -0.13211674534E+02  0.22548969052E+02  0.51100000000E-03 0. -1.
        -11    1    3    3    0    0 -0.12224974409E+02  0.16938003957E+02  0.68640296732E+01  0.21987743881E+02  0.51100000000E-03 0.  1.
         12    1    3    3    0    0  0.12825337089E+01  0.38473507218E+01  0.44112209623E+01  0.59921507549E+01  0.00000000000E+00 0. -1.
</event>
<event>
 7    1  0.5019004E-011  0.5052886E+02  0.7816164E-02  0.1300439E+00
        -11   -1    0    0    0    0  0.00000000000E+00  0.00000000000E+00  0.45593999997E+02  0.45594000000E+02  0.51100000000E-03 0. -1.
         11   -1    0    0    0    0 -0.00000000000E+00 -0.00000000000E+00 -0.45593999997E+02  0.45594000000E+02  0.51100000000E-03 0.  1.
    9900012    2    1    2    0    0  0.16052900035E+02 -0.25737077135E+02 -0.27075320232E+02  0.50528859519E+02  0.29999998993E+02 0.  0.
        -12    1    1    2    0    0 -0.16052900035E+02  0.25737077135E+02  0.27075320232E+02  0.40659140481E+02  0.00000000000E+00 0.  1.
         11    1    3    3    0    0  0.97045765238E+01 -0.28537273656E+02 -0.27010757190E+02  0.40473890318E+02  0.51100000000E-03 0. -1.
        -11    1    3    3    0    0  0.85694767428E+00  0.28828869481E+01  0.25771116486E+01  0.39606692846E+01  0.51100000000E-03 0.  1.
         12    1    3    3    0    0  0.54913758370E+01 -0.82690426733E-01 -0.26416746907E+01  0.60942999156E+01  0.00000000000E+00 0. -1.
</event>
<event>
 7    1  0.5019004E-011  0.5052886E+02  0.7816164E-02  0.1300439E+00
        -11   -1    0    0    0    0  0.00000000000E+00  0.00000000000E+00  0.45593999997E+02  0.45594000000E+02  0.51100000000E-03 0.  1.
         11   -1    0    0    0    0 -0.00000000000E+00 -0.00000000000E+00 -0.45593999997E+02  0.45594000000E+02  0.51100000000E-03 0. -1.
    9900012    2    1    2    0    0  0.65652299371E+01  0.21269611928E+02 -0.34024502321E+02  0.50528863341E+02  0.30000010610E+02 0.  0.
        -12    1    1    2    0    0 -0.65652299371E+01 -0.21269611928E+02  0.34024502321E+02  0.40659136659E+02  0.00000000000E+00 0.  1.
         11    1    3    3    0    0 -0.53550733552E+01  0.18362291223E+02 -0.14286861011E+02  0.23873938666E+02  0.51100000000E-03 0. -1.
        -11    1    3    3    0    0  0.94590064626E+01  0.63905549176E+01 -0.19225569031E+02  0.22359215108E+02  0.51100000000E-03 0.  1.
         12    1    3    3    0    0  0.24612968297E+01 -0.34832342129E+01 -0.51207227891E+00  0.42957095671E+01  0.00000000000E+00 0. -1.
</event>
<event>
 7    1  0.5019004E-011  0.5052887E+02  0.7816164E-02  0.1300439E+00
        -11   -1    0    0    0    0  0.00000000000E+00  0.00000000000E+00  0.45593999997E+02  0.45594000000E+02  0.51100000000E-03 0.  1.
         11   -1    0    0    0    0 -0.00000000000E+00 -0.00000000000E+00 -0.45593999997E+02  0.45594000000E+02  0.51100000000E-03 0. -1.
    9900012    2    1    2    0    0  0.24298199436E+02  0.25249871362E+02 -0.20620539533E+02  0.50528866337E+02  0.30000019718E+02 0.  0.
        -12    1    1    2    0    0 -0.24298199436E+02 -0.25249871362E+02  0.20620539533E+02  0.40659133663E+02  0.00000000000E+00 0.  1.
         11    1    3    3    0    0  0.13794327416E+02  0.46418514731E+01 -0.56193611732E+01  0.15601521535E+02  0.51100000000E-03 0. -1.
        -11    1    3    3    0    0 -0.60565034455E+01  0.14802101812E+01 -0.32489191435E+01  0.70304859027E+01  0.51100000000E-03 0.  1.
        -12    1    3    3    0    0  0.16560375465E+02  0.19127809707E+02 -0.11752259216E+02  0.27896858899E+02  0.00000000000E+00 0.  1.
</event>
<event>
 7    1  0.5019004E-011  0.5052886E+02  0.7816164E-02  0.1300439E+00
        -11   -1    0    0    0    0  0.00000000000E+00  0.00000000000E+00  0.45593999997E+02  0.45594000000E+02  0.51100000000E-03 0.  1.
         11   -1    0    0    0    0 -0.00000000000E+00 -0.00000000000E+00 -0.45593999997E+02  0.45594000000E+02  0.51100000000E-03 0. -1.
    9900012    2    1    2    0    0  0.32857058541E+01  0.21776599772E+02 -0.34178202664E+02  0.50528859602E+02  0.29999999246E+02 0.  0.
        -12    1    1    2    0    0 -0.32857058541E+01 -0.21776599772E+02  0.34178202664E+02  0.40659140398E+02  0.00000000000E+00 0.  1.
         11    1    3    3    0    0 -0.22322129664E+01  0.66776653473E+01 -0.12478944478E+02  0.14328225458E+02  0.51100000000E-03 0. -1.
        -11    1    3    3    0    0  0.13186643510E+02  0.10666553929E+02 -0.56635043154E+01  0.17881225382E+02  0.51100000000E-03 0.  1.
        -12    1    3    3    0    0 -0.76687246894E+01  0.44323804963E+01 -0.16035753870E+02  0.18319408763E+02  0.00000000000E+00 0.  1.
</event>
<event>
 7    1  0.5019004E-011  0.5052885E+02  0.7816164E-02  0.1300439E+00
        -11   -1    0    0    0    0  0.00000000000E+00  0.00000000000E+00  0.45593999997E+02  0.45594000000E+02  0.51100000000E-03 0.  1.
         11   -1    0    0    0    0 -0.00000000000E+00 -0.00000000000E+00 -0.45593999997E+02  0.45594000000E+02  0.51100000000E-03 0. -1.
    9900012    2    1    2    0    0 -0.47206022195E+01 -0.10946887262E+02 -0.38872198640E+02  0.50528852774E+02  0.29999978492E+02 0.  0.
        -12    1    1    2    0    0  0.47206022195E+01  0.10946887262E+02  0.38872198640E+02  0.40659147226E+02  0.00000000000E+00 0.  1.
         11    1    3    3    0    0 -0.98598592839E+01  0.78497469406E+00 -0.20030903475E+02  0.22339877006E+02  0.51100000000E-03 0. -1.
        -11    1    3    3    0    0  0.56379571049E+01 -0.12691207198E+02 -0.21343211537E+02  0.25463424346E+02  0.51100000000E-03 0.  1.
        -12    1    3    3    0    0 -0.49870004051E+00  0.95934524128E+00  0.25019163719E+01  0.27255514221E+01  0.00000000000E+00 0.  1.
</event>
<event>
 7    1  0.5019004E-011  0.5052886E+02  0.7816164E-02  0.1300439E+00
        -11   -1    0    0    0    0  0.00000000000E+00  0.00000000000E+00  0.45593999997E+02  0.45594000000E+02  0.51100000000E-03 0.  1.
         11   -1    0    0    0    0 -0.00000000000E+00 -0.00000000000E+00 -0.45593999997E+02  0.45594000000E+02  0.51100000000E-03 0. -1.
    9900012    2    1    2    0    0 -0.37024734757E+02 -0.14899442417E+02  0.77679539203E+01  0.50528862327E+02  0.30000007530E+02 0.  0.
        -12    1    1    2    0    0  0.37024734757E+02  0.14899442417E+02 -0.77679539203E+01  0.40659137673E+02  0.00000000000E+00 0.  1.
         11    1    3    3    0    0 -0.32105593350E+02 -0.17973876541E+02  0.11579689597E+02  0.38573547590E+02  0.51100000000E-03 0. -1.
        -11    1    3    3    0    0  0.12492726724E+01 -0.18864185456E+01  0.12250715815E+01  0.25729472945E+01  0.51100000000E-03 0.  1.
         12    1    3    3    0    0 -0.61684140799E+01  0.49608526692E+01 -0.50368072587E+01  0.93823674426E+01  0.00000000000E+00 0. -1.
</event>
<event>
 7    1  0.5019004E-011  0.5052874E+02  0.7816164E-02  0.1300439E+00
        -11   -1    0    0    0    0  0.00000000000E+00  0.00000000000E+00  0.45593999997E+02  0.45594000000E+02  0.51100000000E-03 0. -1.
         11   -1    0    0    0    0 -0.00000000000E+00 -0.00000000000E+00 -0.45593999997E+02  0.45594000000E+02  0.51100000000E-03 0.  1.
    9900012    2    1    2    0    0 -0.21413490898E+02 -0.27967938372E+02  0.20308422152E+02  0.50528743003E+02  0.29999644830E+02 0.  0.
        -12    1    1    2    0    0  0.21413490898E+02  0.27967938372E+02 -0.20308422152E+02  0.40659256997E+02  0.00000000000E+00 0.  1.
         11    1    3    3    0    0 -0.18042115907E+02 -0.17045421306E+02  0.25580043639E+02  0.35642712674E+02  0.51100000000E-03 0. -1.
        -11    1    3    3    0    0 -0.46158968283E+01 -0.53030232929E+01 -0.57889596205E+01  0.91071737286E+01  0.51100000000E-03 0.  1.
         12    1    3    3    0    0  0.12445218369E+01 -0.56194937729E+01  0.51733813307E+00  0.57788566006E+01  0.00000000000E+00 0. -1.
</event>
<event>
 7    1  0.5019004E-011  0.5052886E+02  0.7816164E-02  0.1300439E+00
        -11   -1    0    0    0    0  0.00000000000E+00  0.00000000000E+00  0.45593999997E+02  0.45594000000E+02  0.51100000000E-03 0.  1.
         11   -1    0    0    0    0 -0.00000000000E+00 -0.00000000000E+00 -0.45593999997E+02  0.45594000000E+02  0.51100000000E-03 0. -1.
    9900012    2    1    2    0    0  0.34238167589E+02 -0.21851916180E+02  0.18457852026E+01  0.50528864697E+02  0.30000014734E+02 0.  0.
        -12    1    1    2    0    0 -0.34238167589E+02  0.21851916180E+02 -0.18457852026E+01  0.40659135303E+02  0.00000000000E+00 0.  1.
         11    1    3    3    0    0  0.34928134925E+02 -0.77708304162E+01 -0.49744833094E+00  0.35785581870E+02  0.51100000000E-03 0. -1.
        -11    1    3    3    0    0 -0.20682797313E+01 -0.57477017276E+01  0.90838938774E+00  0.61756803461E+01  0.51100000000E-03 0.  1.
         12    1    3    3    0    0  0.13783123947E+01 -0.83333840359E+01  0.14348441458E+01  0.85676024808E+01  0.00000000000E+00 0. -1.
</event>
<event>
 7    1  0.5019004E-011  0.5052881E+02  0.7816164E-02  0.1300439E+00
        -11   -1    0    0    0    0  0.00000000000E+00  0.00000000000E+00  0.45593999997E+02  0.45594000000E+02  0.51100000000E-03 0.  1.
         11   -1    0    0    0    0 -0.00000000000E+00 -0.00000000000E+00 -0.45593999997E+02  0.45594000000E+02  0.51100000000E-03 0. -1.
    9900012    2    1    2    0    0  0.24447769214E+02  0.12526745188E+02 -0.29975936903E+02  0.50528812135E+02  0.29999854966E+02 0.  0.
        -12    1    1    2    0    0 -0.24447769214E+02 -0.12526745188E+02  0.29975936903E+02  0.40659187865E+02  0.00000000000E+00 0.  1.
         11    1    3    3    0    0  0.11052088600E+02  0.14426025417E+01 -0.11166813714E+02  0.15777436208E+02  0.51100000000E-03 0. -1.
        -11    1    3    3    0    0  0.63319387271E+01  0.14507338159E+02 -0.16906007781E+01  0.15918996192E+02  0.51100000000E-03 0.  1.
        -12    1    3    3    0    0  0.70637418878E+01 -0.34231955124E+01 -0.17118522411E+02  0.18832379735E+02  0.00000000000E+00 0.  1.
</event>
<event>
 7    1  0.5019004E-011  0.5052886E+02  0.7816164E-02  0.1300439E+00
        -11   -1    0    0    0    0  0.00000000000E+00  0.00000000000E+00  0.45593999997E+02  0.45594000000E+02  0.51100000000E-03 0.  1.
         11   -1    0    0    0    0 -0.00000000000E+00 -0.00000000000E+00 -0.45593999997E+02  0.45594000000E+02  0.51100000000E-03 0. -1.
    9900012    2    1    2    0    0 -0.37456954287E+02 -0.12620230463E+02  0.95326723735E+01  0.50528862233E+02  0.30000007242E+02 0.  0.
        -12    1    1    2    0    0  0.37456954287E+02  0.12620230463E+02 -0.95326723735E+01  0.40659137767E+02  0.00000000000E+00 0.  1.
         11    1    3    3    0    0 -0.13918144083E+01  0.23345908364E+01 -0.53206295733E+01  0.59746599098E+01  0.51100000000E-03 0. -1.
        -11    1    3    3    0    0 -0.37084670188E+02 -0.12376314041E+02  0.12923505185E+02  0.41175999061E+02  0.51100000000E-03 0.  1.
        -12    1    3    3    0    0  0.10195303090E+01 -0.25785072589E+01  0.19297967617E+01  0.33782032616E+01  0.00000000000E+00 0.  1.
</event>
<event>
 7    1  0.5019004E-011  0.5052885E+02  0.7816164E-02  0.1300439E+00
        -11   -1    0    0    0    0  0.00000000000E+00  0.00000000000E+00  0.45593999997E+02  0.45594000000E+02  0.51100000000E-03 0. -1.
         11   -1    0    0    0    0 -0.00000000000E+00 -0.00000000000E+00 -0.45593999997E+02  0.45594000000E+02  0.51100000000E-03 0.  1.
    9900012    2    1    2    0    0 -0.26734223661E+01 -0.40121097806E+02 -0.60263408024E+01  0.50528850233E+02  0.29999970769E+02 0.  0.
        -12    1    1    2    0    0  0.26734223661E+01  0.40121097806E+02  0.60263408024E+01  0.40659149767E+02  0.00000000000E+00 0.  1.
         11    1    3    3    0    0  0.47221100914E+01 -0.43626311417E+01  0.67616262455E+01  0.93300838120E+01  0.51100000000E-03 0. -1.
        -11    1    3    3    0    0 -0.59400586062E+01 -0.37233736200E+01 -0.33552908237E+01  0.77721158079E+01  0.51100000000E-03 0.  1.
         12    1    3    3    0    0 -0.14554738513E+01 -0.32035093044E+02 -0.94326762241E+01  0.33426650613E+02  0.00000000000E+00 0. -1.
</event>
<event>
 7    1  0.5019004E-011  0.5052884E+02  0.7816164E-02  0.1300439E+00
        -11   -1    0    0    0    0  0.00000000000E+00  0.00000000000E+00  0.45593999997E+02  0.45594000000E+02  0.51100000000E-03 0. -1.
         11   -1    0    0    0    0 -0.00000000000E+00 -0.00000000000E+00 -0.45593999997E+02  0.45594000000E+02  0.51100000000E-03 0.  1.
    9900012    2    1    2    0    0 -0.77808715685E+01 -0.18686950869E+01  0.39863931538E+02  0.50528843327E+02  0.29999949776E+02 0.  0.
        -12    1    1    2    0    0  0.77808715685E+01  0.18686950869E+01 -0.39863931538E+02  0.40659156673E+02  0.00000000000E+00 0.  1.
         11    1    3    3    0    0 -0.13556397730E+02 -0.74341039237E+01  0.29487483871E+02  0.33294947453E+02  0.51100000000E-03 0. -1.
        -11    1    3    3    0    0  0.81121150154E+01  0.35605202515E+01  0.10967776993E+02  0.14098788845E+02  0.51100000000E-03 0.  1.
         12    1    3    3    0    0 -0.23365888537E+01  0.20048885853E+01 -0.59132932529E+00  0.31351070288E+01  0.00000000000E+00 0. -1.
</event>
<event>
 7    1  0.5019004E-011  0.5052886E+02  0.7816164E-02  0.1300439E+00
        -11   -1    0    0    0    0  0.00000000000E+00  0.00000000000E+00  0.45593999997E+02  0.45594000000E+02  0.51100000000E-03 0. -1.
         11   -1    0    0    0    0 -0.00000000000E+00 -0.00000000000E+00 -0.45593999997E+02  0.45594000000E+02  0.51100000000E-03 0.  1.
    9900012    2    1    2    0    0  0.25411950330E+02 -0.30302465907E+02  0.94424106424E+01  0.50528858612E+02  0.29999996238E+02 0.  0.
        -12    1    1    2    0    0 -0.25411950330E+02  0.30302465907E+02 -0.94424106424E+01  0.40659141388E+02  0.00000000000E+00 0.  1.
         11    1    3    3    0    0  0.15272674648E+02 -0.22323033456E+02  0.88578737545E+01  0.28461102251E+02  0.51100000000E-03 0. -1.
        -11    1    3    3    0    0  0.67058298145E+01  0.49052201799E+01 -0.18530093532E+01  0.85125191594E+01  0.51100000000E-03 0.  1.
        -12    1    3    3    0    0  0.34334458677E+01 -0.12884652631E+02  0.24375462411E+01  0.13555237202E+02  0.00000000000E+00 0.  1.
</event>
<event>
 7    1  0.5019004E-011  0.5052883E+02  0.7816164E-02  0.1300439E+00
        -11   -1    0    0    0    0  0.00000000000E+00  0.00000000000E+00  0.45593999997E+02  0.45594000000E+02  0.51100000000E-03 0. -1.
         11   -1    0    0    0    0 -0.00000000000E+00 -0.00000000000E+00 -0.45593999997E+02  0.45594000000E+02  0.51100000000E-03 0.  1.
    9900012    2    1    2    0    0  0.33033672866E+02 -0.20082495779E+02  0.12595157191E+02  0.50528829271E+02  0.29999907051E+02 0.  0.
        -12    1    1    2    0    0 -0.33033672866E+02  0.20082495779E+02 -0.12595157191E+02  0.40659170729E+02  0.00000000000E+00 0.  1.
         11    1    3    3    0    0  0.25124875716E+02 -0.21416166170E+02  0.20649502190E+02  0.38939870237E+02  0.51100000000E-03 0. -1.
        -11    1    3    3    0    0  0.14876150979E+01  0.11616154215E+01 -0.14903929739E+01  0.24049159122E+01  0.51100000000E-03 0.  1.
         12    1    3    3    0    0  0.64211820523E+01  0.17205496883E+00 -0.65639520253E+01  0.91840431212E+01  0.00000000000E+00 0. -1.
</event>
<event>
 7    1  0.5019004E-011  0.5052886E+02  0.7816164E-02  0.1300439E+00
        -11   -1    0    0    0    0  0.00000000000E+00  0.00000000000E+00  0.45593999997E+02  0.45594000000E+02  0.51100000000E-03 0.  1.
         11   -1    0    0    0    0 -0.00000000000E+00 -0.00000000000E+00 -0.45593999997E+02  0.45594000000E+02  0.51100000000E-03 0. -1.
    9900012    2    1    2    0    0 -0.29586383247E+02  0.25189321982E+02 -0.11971192483E+02  0.50528862466E+02  0.30000007952E+02 0.  0.
        -12    1    1    2    0    0  0.29586383247E+02 -0.25189321982E+02  0.11971192483E+02  0.40659137534E+02  0.00000000000E+00 0.  1.
         11    1    3    3    0    0 -0.32943616808E+02  0.24921937995E+02 -0.16430995544E+02  0.44456298728E+02  0.51100000000E-03 0. -1.
        -11    1    3    3    0    0  0.28236358260E+01  0.92006010995E+00  0.23068849664E+01  0.37604718312E+01  0.51100000000E-03 0.  1.
         12    1    3    3    0    0  0.53359773478E+00 -0.65267612274E+00  0.21529180945E+01  0.23120919068E+01  0.00000000000E+00 0. -1.
</event>
<event>
 7    1  0.5019004E-011  0.5052886E+02  0.7816164E-02  0.1300439E+00
        -11   -1    0    0    0    0  0.00000000000E+00  0.00000000000E+00  0.45593999997E+02  0.45594000000E+02  0.51100000000E-03 0.  1.
         11   -1    0    0    0    0 -0.00000000000E+00 -0.00000000000E+00 -0.45593999997E+02  0.45594000000E+02  0.51100000000E-03 0. -1.
    9900012    2    1    2    0    0 -0.25392760982E+02  0.16680383694E+02 -0.27021070362E+02  0.50528858912E+02  0.29999997150E+02 0.  0.
        -12    1    1    2    0    0  0.25392760982E+02 -0.16680383694E+02  0.27021070362E+02  0.40659141088E+02  0.00000000000E+00 0.  1.
         11    1    3    3    0    0 -0.55694078034E+01  0.79943019540E+01 -0.99881541089E+01  0.13953149816E+02  0.51100000000E-03 0. -1.
        -11    1    3    3    0    0 -0.85982677419E+01 -0.69438165743E+01 -0.12728483230E+02  0.16857078109E+02  0.51100000000E-03 0.  1.
        -12    1    3    3    0    0 -0.11225085437E+02  0.15629898314E+02 -0.43044330232E+01  0.19718630988E+02  0.00000000000E+00 0.  1.
</event>
<event>
 7    1  0.5019004E-011  0.5052886E+02  0.7816164E-02  0.1300439E+00
        -11   -1    0    0    0    0  0.00000000000E+00  0.00000000000E+00  0.45593999997E+02  0.45594000000E+02  0.51100000000E-03 0. -1.
         11   -1    0    0    0    0 -0.00000000000E+00 -0.00000000000E+00 -0.45593999997E+02  0.45594000000E+02  0.51100000000E-03 0.  1.
    9900012    2    1    2    0    0 -0.39462112879E+02  0.39147616376E+00 -0.97854016387E+01  0.50528859678E+02  0.29999999479E+02 0.  0.
        -12    1    1    2    0    0  0.39462112879E+02 -0.39147616376E+00  0.97854016387E+01  0.40659140322E+02  0.00000000000E+00 0.  1.
         11    1    3    3    0    0 -0.33292184674E+02  0.34155672889E+01  0.46913018034E+01  0.33794141107E+02  0.51100000000E-03 0. -1.
        -11    1    3    3    0    0 -0.65803883631E+01 -0.34850853862E+01 -0.11540087626E+02  0.13733934390E+02  0.51100000000E-03 0.  1.
         12    1    3    3    0    0  0.41046015837E+00  0.46099426106E+00 -0.29366158164E+01  0.30007841814E+01  0.00000000000E+00 0. -1.
</event>
<event>
 7    1  0.5019004E-011  0.5052898E+02  0.7816164E-02  0.1300438E+00
        -11   -1    0    0    0    0  0.00000000000E+00  0.00000000000E+00  0.45593999997E+02  0.45594000000E+02  0.51100000000E-03 0.  1.
         11   -1    0    0    0    0 -0.00000000000E+00 -0.00000000000E+00 -0.45593999997E+02  0.45594000000E+02  0.51100000000E-03 0. -1.
    9900012    2    1    2    0    0  0.22012637176E+02 -0.31491006347E+02 -0.13300987494E+02  0.50528979543E+02  0.30000363816E+02 0.  0.
        -12    1    1    2    0    0 -0.22012637176E+02  0.31491006347E+02  0.13300987494E+02  0.40659020457E+02  0.00000000000E+00 0.  1.
         11    1    3    3    0    0  0.16184910630E+02 -0.27693174500E+02 -0.10175978203E+02  0.33651356268E+02  0.51100000000E-03 0. -1.
        -11    1    3    3    0    0  0.83669173690E+01  0.32393941420E+01 -0.64215792727E+00  0.89950735257E+01  0.51100000000E-03 0.  1.
         12    1    3    3    0    0 -0.25391908230E+01 -0.70372259890E+01 -0.24828513638E+01  0.78825497493E+01  0.00000000000E+00 0. -1.
</event>
<event>
 7    1  0.5019004E-011  0.5052886E+02  0.7816164E-02  0.1300439E+00
        -11   -1    0    0    0    0  0.00000000000E+00  0.00000000000E+00  0.45593999997E+02  0.45594000000E+02  0.51100000000E-03 0. -1.
         11   -1    0    0    0    0 -0.00000000000E+00 -0.00000000000E+00 -0.45593999997E+02  0.45594000000E+02  0.51100000000E-03 0.  1.
    9900012    2    1    2    0    0 -0.19007156079E+02  0.28704635521E+02  0.21631856524E+02  0.50528864504E+02  0.30000014147E+02 0.  0.
        -12    1    1    2    0    0  0.19007156079E+02 -0.28704635521E+02 -0.21631856524E+02  0.40659135496E+02  0.00000000000E+00 0.  1.
         11    1    3    3    0    0 -0.29823803412E+01  0.11362919212E+02  0.16975467988E+02  0.20644055784E+02  0.51100000000E-03 0. -1.
        -11    1    3    3    0    0 -0.19580830680E+02  0.17022208403E+02  0.39316520664E+01  0.26241615752E+02  0.51100000000E-03 0.  1.
         12    1    3    3    0    0  0.35560549424E+01  0.31950790582E+00  0.72473646946E+00  0.36431929685E+01  0.00000000000E+00 0. -1.
</event>
<event>
 7    1  0.5019004E-011  0.5052889E+02  0.7816164E-02  0.1300439E+00
        -11   -1    0    0    0    0  0.00000000000E+00  0.00000000000E+00  0.45593999997E+02  0.45594000000E+02  0.51100000000E-03 0.  1.
         11   -1    0    0    0    0 -0.00000000000E+00 -0.00000000000E+00 -0.45593999997E+02  0.45594000000E+02  0.51100000000E-03 0. -1.
    9900012    2    1    2    0    0  0.55947250535E+01 -0.39105617112E+01 -0.40082038347E+02  0.50528889836E+02  0.30000091144E+02 0.  0.
        -12    1    1    2    0    0 -0.55947250535E+01  0.39105617112E+01  0.40082038347E+02  0.40659110164E+02  0.00000000000E+00 0.  1.
         11    1    3    3    0    0 -0.49776561183E+01 -0.55380680150E+01 -0.23429154387E+02  0.24583989370E+02  0.51100000000E-03 0. -1.
        -11    1    3    3    0    0  0.15022255781E+02 -0.34507052210E+00 -0.12714730915E+02  0.19683790918E+02  0.51100000000E-03 0.  1.
        -12    1    3    3    0    0 -0.44498746087E+01  0.19725768259E+01 -0.39381530444E+01  0.62611095477E+01  0.00000000000E+00 0.  1.
</event>
<event>
 7    1  0.5019004E-011  0.5052874E+02  0.7816164E-02  0.1300439E+00
        -11   -1    0    0    0    0  0.00000000000E+00  0.00000000000E+00  0.45593999997E+02  0.45594000000E+02  0.51100000000E-03 0.  1.
         11   -1    0    0    0    0 -0.00000000000E+00 -0.00000000000E+00 -0.45593999997E+02  0.45594000000E+02  0.51100000000E-03 0. -1.
    9900012    2    1    2    0    0 -0.15575970305E+02  0.31371309412E+02 -0.20649591049E+02  0.50528738870E+02  0.29999632267E+02 0.  0.
        -12    1    1    2    0    0  0.15575970305E+02 -0.31371309412E+02  0.20649591049E+02  0.40659261130E+02  0.00000000000E+00 0.  1.
         11    1    3    3    0    0 -0.12939692516E+02  0.14286527288E+02 -0.93118233866E+01  0.21406787695E+02  0.51100000000E-03 0. -1.
        -11    1    3    3    0    0 -0.38400522648E+00 -0.17582214258E+01  0.42167566304E+01  0.45847398331E+01  0.51100000000E-03 0.  1.
        -12    1    3    3    0    0 -0.22522725621E+01  0.18843003550E+02 -0.15554524293E+02  0.24537211342E+02  0.00000000000E+00 0.  1.
</event>
<event>
 7    1  0.5019004E-011  0.5052886E+02  0.7816164E-02  0.1300439E+00
        -11   -1    0    0    0    0  0.00000000000E+00  0.00000000000E+00  0.45593999997E+02  0.45594000000E+02  0.51100000000E-03 0.  1.
         11   -1    0    0    0    0 -0.00000000000E+00 -0.00000000000E+00 -0.45593999997E+02  0.45594000000E+02  0.51100000000E-03 0. -1.
    9900012    2    1    2    0    0  0.18104556215E+02 -0.27346434094E+02 -0.24032538370E+02  0.50528864325E+02  0.30000013601E+02 0.  0.
        -12    1    1    2    0    0 -0.18104556215E+02  0.27346434094E+02  0.24032538370E+02  0.40659135675E+02  0.00000000000E+00 0.  1.
         11    1    3    3    0    0  0.11052415047E+02 -0.76738392881E+01 -0.26205122310E+02  0.29457632684E+02  0.51100000000E-03 0. -1.
        -11    1    3    3    0    0  0.42779740962E+01 -0.10853075724E+02  0.19164870945E+01  0.11822150316E+02  0.51100000000E-03 0.  1.
         12    1    3    3    0    0  0.27741670715E+01 -0.88195190811E+01  0.25609684536E+00  0.92490813250E+01  0.00000000000E+00 0. -1.
</event>
<event>
 7    1  0.5019004E-011  0.5052886E+02  0.7816164E-02  0.1300439E+00
        -11   -1    0    0    0    0  0.00000000000E+00  0.00000000000E+00  0.45593999997E+02  0.45594000000E+02  0.51100000000E-03 0. -1.
         11   -1    0    0    0    0 -0.00000000000E+00 -0.00000000000E+00 -0.45593999997E+02  0.45594000000E+02  0.51100000000E-03 0.  1.
    9900012    2    1    2    0    0  0.39202069728E+02  0.89358406460E+01 -0.60426807448E+01  0.50528861918E+02  0.30000006286E+02 0.  0.
        -12    1    1    2    0    0 -0.39202069728E+02 -0.89358406460E+01  0.60426807448E+01  0.40659138082E+02  0.00000000000E+00 0.  1.
         11    1    3    3    0    0  0.47265517478E+01  0.58955593487E+01  0.18125618495E+01  0.77706687085E+01  0.51100000000E-03 0. -1.
        -11    1    3    3    0    0  0.29249164538E+01 -0.80656614307E+01 -0.17959591776E+01  0.87655861302E+01  0.51100000000E-03 0.  1.
        -12    1    3    3    0    0  0.31550601526E+02  0.11105942728E+02 -0.60592834167E+01  0.33992607079E+02  0.00000000000E+00 0.  1.
</event>
<event>
 7    1  0.5019004E-011  0.5052886E+02  0.7816164E-02  0.1300439E+00
        -11   -1    0    0    0    0  0.00000000000E+00  0.00000000000E+00  0.45593999997E+02  0.45594000000E+02  0.51100000000E-03 0. -1.
         11   -1    0    0    0    0 -0.00000000000E+00 -0.00000000000E+00 -0.45593999997E+02  0.45594000000E+02  0.51100000000E-03 0.  1.
    9900012    2    1    2    0    0 -0.30582405135E+02 -0.10069424490E+02  0.24829190333E+02  0.50528861962E+02  0.30000006419E+02 0.  0.
        -12    1    1    2    0    0  0.30582405135E+02  0.10069424490E+02 -0.24829190333E+02  0.40659138038E+02  0.00000000000E+00 0.  1.
         11    1    3    3    0    0 -0.28102029814E+02 -0.52757058534E+01  0.10220921542E+02  0.30364854509E+02  0.51100000000E-03 0. -1.
        -11    1    3    3    0    0  0.10937419284E+01 -0.75517060845E+01  0.13512959173E+02  0.15518524481E+02  0.51100000000E-03 0.  1.
         12    1    3    3    0    0 -0.35741172492E+01  0.27579874482E+01  0.10953096179E+01  0.46454829711E+01  0.00000000000E+00 0. -1.
</event>
<event>
 7    1  0.5019004E-011  0.5052886E+02  0.7816164E-02  0.1300439E+00
        -11   -1    0    0    0    0  0.00000000000E+00  0.00000000000E+00  0.45593999997E+02  0.45594000000E+02  0.51100000000E-03 0.  1.
         11   -1    0    0    0    0 -0.00000000000E+00 -0.00000000000E+00 -0.45593999997E+02  0.45594000000E+02  0.51100000000E-03 0. -1.
    9900012    2    1    2    0    0  0.39111524459E+02 -0.30105172686E+01 -0.10695359242E+02  0.50528864876E+02  0.30000015277E+02 0.  0.
        -12    1    1    2    0    0 -0.39111524459E+02  0.30105172686E+01  0.10695359242E+02  0.40659135124E+02  0.00000000000E+00 0.  1.
         11    1    3    3    0    0  0.33216166998E+01 -0.59599519226E+00  0.82536628460E+01  0.89169108107E+01  0.51100000000E-03 0. -1.
        -11    1    3    3    0    0  0.14622720282E+02 -0.45995121830E+01 -0.11120669057E+02  0.18938023690E+02  0.51100000000E-03 0.  1.
         12    1    3    3    0    0  0.21167187478E+02  0.21849901066E+01 -0.78283530311E+01  0.22673930375E+02  0.00000000000E+00 0. -1.
</event>
<event>
 7    1  0.5019004E-011  0.5052885E+02  0.7816164E-02  0.1300439E+00
        -11   -1    0    0    0    0  0.00000000000E+00  0.00000000000E+00  0.45593999997E+02  0.45594000000E+02  0.51100000000E-03 0. -1.
         11   -1    0    0    0    0 -0.00000000000E+00 -0.00000000000E+00 -0.45593999997E+02  0.45594000000E+02  0.51100000000E-03 0.  1.
    9900012    2    1    2    0    0 -0.19505668303E+02 -0.22939198239E+02  0.27321943057E+02  0.50528849933E+02  0.29999969856E+02 0.  0.
        -12    1    1    2    0    0  0.19505668303E+02  0.22939198239E+02 -0.27321943057E+02  0.40659150067E+02  0.00000000000E+00 0.  1.
         11    1    3    3    0    0  0.30587074507E+01 -0.15016080643E+00  0.13473521213E+02  0.13817163735E+02  0.51100000000E-03 0. -1.
        -11    1    3    3    0    0 -0.75046488296E+01 -0.13386345160E+02  0.22641240378E+01  0.15512583560E+02  0.51100000000E-03 0.  1.
         12    1    3    3    0    0 -0.15059726924E+02 -0.94026922726E+01  0.11584297806E+02  0.21199102638E+02  0.00000000000E+00 0. -1.
</event>
<event>
 7    1  0.5019004E-011  0.5052884E+02  0.7816164E-02  0.1300439E+00
        -11   -1    0    0    0    0  0.00000000000E+00  0.00000000000E+00  0.45593999997E+02  0.45594000000E+02  0.51100000000E-03 0.  1.
         11   -1    0    0    0    0 -0.00000000000E+00 -0.00000000000E+00 -0.45593999997E+02  0.45594000000E+02  0.51100000000E-03 0. -1.
    9900012    2    1    2    0    0 -0.27123138045E+02  0.10327506521E+02 -0.28475348996E+02  0.50528837333E+02  0.29999931558E+02 0.  0.
        -12    1    1    2    0    0  0.27123138045E+02 -0.10327506521E+02  0.28475348996E+02  0.40659162667E+02  0.00000000000E+00 0.  1.
         11    1    3    3    0    0 -0.13368524971E+02  0.67209320640E+01 -0.20726300463E+02  0.25563018578E+02  0.51100000000E-03 0. -1.
        -11    1    3    3    0    0  0.13853865565E+00  0.55163007240E+01  0.38816904066E+01  0.67465759694E+01  0.51100000000E-03 0.  1.
        -12    1    3    3    0    0 -0.13893151730E+02 -0.19097262668E+01 -0.11630738939E+02  0.18219242786E+02  0.00000000000E+00 0.  1.
</event>
<event>
 7    1  0.5019004E-011  0.5052887E+02  0.7816164E-02  0.1300439E+00
        -11   -1    0    0    0    0  0.00000000000E+00  0.00000000000E+00  0.45593999997E+02  0.45594000000E+02  0.51100000000E-03 0. -1.
         11   -1    0    0    0    0 -0.00000000000E+00 -0.00000000000E+00 -0.45593999997E+02  0.45594000000E+02  0.51100000000E-03 0.  1.
    9900012    2    1    2    0    0 -0.26287435310E+02  0.10029417235E+02  0.29352115827E+02  0.50528866109E+02  0.30000019023E+02 0.  0.
        -12    1    1    2    0    0  0.26287435310E+02 -0.10029417235E+02 -0.29352115827E+02  0.40659133891E+02  0.00000000000E+00 0.  1.
         11    1    3    3    0    0  0.70025056627E+00 -0.28802128297E+01  0.11574362347E+02  0.11947880180E+02  0.51100000000E-03 0. -1.
        -11    1    3    3    0    0 -0.13506749123E+02  0.62240965290E-01  0.10479908894E+01  0.13547487995E+02  0.51100000000E-03 0.  1.
         12    1    3    3    0    0 -0.13480936753E+02  0.12847389099E+02  0.16729762591E+02  0.25033497933E+02  0.00000000000E+00 0. -1.
</event>
<event>
 7    1  0.5019004E-011  0.5052886E+02  0.7816164E-02  0.1300439E+00
        -11   -1    0    0    0    0  0.00000000000E+00  0.00000000000E+00  0.45593999997E+02  0.45594000000E+02  0.51100000000E-03 0. -1.
         11   -1    0    0    0    0 -0.00000000000E+00 -0.00000000000E+00 -0.45593999997E+02  0.45594000000E+02  0.51100000000E-03 0.  1.
    9900012    2    1    2    0    0 -0.37203550956E+02  0.17126307513E+01  0.16313441682E+02  0.50528859732E+02  0.29999999642E+02 0.  0.
        -12    1    1    2    0    0  0.37203550956E+02 -0.17126307513E+01 -0.16313441682E+02  0.40659140268E+02  0.00000000000E+00 0.  1.
         11    1    3    3    0    0  0.54133424852E+00 -0.38607242509E+00  0.64345423188E+01  0.64688043563E+01  0.51100000000E-03 0. -1.
        -11    1    3    3    0    0 -0.33097228694E+02  0.80206081152E+01  0.12212463323E+02  0.36178736330E+02  0.51100000000E-03 0.  1.
        -12    1    3    3    0    0 -0.46476565102E+01 -0.59219049389E+01 -0.23335639602E+01  0.78813190456E+01  0.00000000000E+00 0.  1.
</event>
<event>
 7    1  0.5019004E-011  0.5052886E+02  0.7816164E-02  0.1300439E+00
        -11   -1    0    0    0    0  0.00000000000E+00  0.00000000000E+00  0.45593999997E+02  0.45594000000E+02  0.51100000000E-03 0.  1.
         11   -1    0    0    0    0 -0.00000000000E+00 -0.00000000000E+00 -0.45593999997E+02  0.45594000000E+02  0.51100000000E-03 0. -1.
    9900012    2    1    2    0    0 -0.77010264520E+01  0.38842055867E+02 -0.92279266167E+01  0.50528859059E+02  0.29999997597E+02 0.  0.
        -12    1    1    2    0    0  0.77010264520E+01 -0.38842055867E+02  0.92279266167E+01  0.40659140941E+02  0.00000000000E+00 0.  1.
         11    1    3    3    0    0 -0.18880904400E+00  0.84843141557E-01 -0.15035218852E+01  0.15177040338E+01  0.51100000000E-03 0. -1.
        -11    1    3    3    0    0 -0.17497547391E+02  0.28964770131E+02 -0.19980714349E+01  0.33898589398E+02  0.51100000000E-03 0.  1.
        -12    1    3    3    0    0  0.99853299829E+01  0.97924425947E+01 -0.57263332965E+01  0.15112565628E+02  0.00000000000E+00 0.  1.
</event>
<event>
 7    1  0.5019004E-011  0.5052887E+02  0.7816164E-02  0.1300439E+00
        -11   -1    0    0    0    0  0.00000000000E+00  0.00000000000E+00  0.45593999997E+02  0.45594000000E+02  0.51100000000E-03 0.  1.
         11   -1    0    0    0    0 -0.00000000000E+00 -0.00000000000E+00 -0.45593999997E+02  0.45594000000E+02  0.51100000000E-03 0. -1.
    9900012    2    1    2    0    0  0.37660886231E+02  0.14559560155E+02 -0.47792616974E+01  0.50528874506E+02  0.30000044547E+02 0.  0.
        -12    1    1    2    0    0 -0.37660886231E+02 -0.14559560155E+02  0.47792616974E+01  0.40659125494E+02  0.00000000000E+00 0.  1.
         11    1    3    3    0    0  0.10911243893E+02  0.39340704168E+01 -0.82787517152E+01  0.14250259070E+02  0.51100000000E-03 0. -1.
        -11    1    3    3    0    0  0.64419749871E+01  0.49284229455E+01  0.11197108233E+02  0.13826193529E+02  0.51100000000E-03 0.  1.
        -12    1    3    3    0    0  0.20307667351E+02  0.56970667932E+01 -0.76976182155E+01  0.22452421906E+02  0.00000000000E+00 0.  1.
</event>
<event>
 7    1  0.5019004E-011  0.5052886E+02  0.7816164E-02  0.1300439E+00
        -11   -1    0    0    0    0  0.00000000000E+00  0.00000000000E+00  0.45593999997E+02  0.45594000000E+02  0.51100000000E-03 0.  1.
         11   -1    0    0    0    0 -0.00000000000E+00 -0.00000000000E+00 -0.45593999997E+02  0.45594000000E+02  0.51100000000E-03 0. -1.
    9900012    2    1    2    0    0 -0.95262265633E+01 -0.28742343070E+02 -0.27134749672E+02  0.50528856902E+02  0.29999991040E+02 0.  0.
        -12    1    1    2    0    0  0.95262265633E+01  0.28742343070E+02  0.27134749672E+02  0.40659143098E+02  0.00000000000E+00 0.  1.
         11    1    3    3    0    0 -0.16966992445E+01  0.26801052535E+01  0.41700446175E+01  0.52393725644E+01  0.51100000000E-03 0. -1.
        -11    1    3    3    0    0 -0.84497575576E-01 -0.46745564247E+01 -0.64339136071E+01  0.79532296693E+01  0.51100000000E-03 0.  1.
         12    1    3    3    0    0 -0.77450297433E+01 -0.26747891898E+02 -0.24870880683E+02  0.37336254668E+02  0.00000000000E+00 0. -1.
</event>
<event>
 7    1  0.5019004E-011  0.5052883E+02  0.7816164E-02  0.1300439E+00
        -11   -1    0    0    0    0  0.00000000000E+00  0.00000000000E+00  0.45593999997E+02  0.45594000000E+02  0.51100000000E-03 0.  1.
         11   -1    0    0    0    0 -0.00000000000E+00 -0.00000000000E+00 -0.45593999997E+02  0.45594000000E+02  0.51100000000E-03 0. -1.
    9900012    2    1    2    0    0 -0.35714572824E+02 -0.18698733638E+02 -0.52909936845E+01  0.50528831712E+02  0.29999914472E+02 0.  0.
        -12    1    1    2    0    0  0.35714572824E+02  0.18698733638E+02  0.52909936845E+01  0.40659168288E+02  0.00000000000E+00 0.  1.
         11    1    3    3    0    0 -0.26356025290E+02 -0.85909829823E+01 -0.73618444733E+01  0.28681733072E+02  0.51100000000E-03 0. -1.
        -11    1    3    3    0    0 -0.40468757984E+01  0.18951500328E+01  0.65926151998E+01  0.79643815082E+01  0.51100000000E-03 0.  1.
         12    1    3    3    0    0 -0.53116717352E+01 -0.12002900689E+02 -0.45217644110E+01  0.13882717132E+02  0.00000000000E+00 0. -1.
</event>
<event>
 7    1  0.5019004E-011  0.5052884E+02  0.7816164E-02  0.1300439E+00
        -11   -1    0    0    0    0  0.00000000000E+00  0.00000000000E+00  0.45593999997E+02  0.45594000000E+02  0.51100000000E-03 0.  1.
         11   -1    0    0    0    0 -0.00000000000E+00 -0.00000000000E+00 -0.45593999997E+02  0.45594000000E+02  0.51100000000E-03 0. -1.
    9900012    2    1    2    0    0 -0.36961026127E+02 -0.27429564498E+01 -0.16719023574E+02  0.50528843446E+02  0.29999950137E+02 0.  0.
        -12    1    1    2    0    0  0.36961026127E+02  0.27429564498E+01  0.16719023574E+02  0.40659156554E+02  0.00000000000E+00 0.  1.
         11    1    3    3    0    0 -0.22292918947E+02  0.51587972824E+01 -0.13849621060E+02  0.26746951758E+02  0.51100000000E-03 0. -1.
        -11    1    3    3    0    0 -0.43602606422E+01 -0.43710732644E+01  0.68210880345E+01  0.92002932880E+01  0.51100000000E-03 0.  1.
        -12    1    3    3    0    0 -0.10307846538E+02 -0.35306804678E+01 -0.96904905486E+01  0.14581598399E+02  0.00000000000E+00 0.  1.
</event>
<event>
 7    1  0.5019004E-011  0.5052885E+02  0.7816164E-02  0.1300439E+00
        -11   -1    0    0    0    0  0.00000000000E+00  0.00000000000E+00  0.45593999997E+02  0.45594000000E+02  0.51100000000E-03 0.  1.
         11   -1    0    0    0    0 -0.00000000000E+00 -0.00000000000E+00 -0.45593999997E+02  0.45594000000E+02  0.51100000000E-03 0. -1.
    9900012    2    1    2    0    0  0.79323889975E+01  0.16709609210E+02 -0.36208180001E+02  0.50528854237E+02  0.29999982940E+02 0.  0.
        -12    1    1    2    0    0 -0.79323889975E+01 -0.16709609210E+02  0.36208180001E+02  0.40659145763E+02  0.00000000000E+00 0.  1.
         11    1    3    3    0    0 -0.39178281465E+01  0.17295293558E+01 -0.30206526688E+01  0.52407052946E+01  0.51100000000E-03 0. -1.
        -11    1    3    3    0    0  0.80704235683E+01  0.54521886636E+01 -0.33646357298E+02  0.35027638480E+02  0.51100000000E-03 0.  1.
        -12    1    3    3    0    0  0.37797935758E+01  0.95278911904E+01  0.45882996612E+00  0.10260510462E+02  0.00000000000E+00 0.  1.
</event>
<event>
 7    1  0.5019004E-011  0.5052885E+02  0.7816164E-02  0.1300439E+00
        -11   -1    0    0    0    0  0.00000000000E+00  0.00000000000E+00  0.45593999997E+02  0.45594000000E+02  0.51100000000E-03 0. -1.
         11   -1    0    0    0    0 -0.00000000000E+00 -0.00000000000E+00 -0.45593999997E+02  0.45594000000E+02  0.51100000000E-03 0.  1.
    9900012    2    1    2    0    0 -0.19610312451E+01 -0.28013971947E+02  0.29403024293E+02  0.50528854592E+02  0.29999984017E+02 0.  0.
        -12    1    1    2    0    0  0.19610312451E+01  0.28013971947E+02 -0.29403024293E+02  0.40659145408E+02  0.00000000000E+00 0.  1.
         11    1    3    3    0    0  0.54898588255E+01 -0.11711722996E+02  0.20331353116E+02  0.24097031461E+02  0.51100000000E-03 0. -1.
        -11    1    3    3    0    0 -0.87579101383E+01 -0.60331521869E+01 -0.24802433911E+01  0.10920234560E+02  0.51100000000E-03 0.  1.
        -12    1    3    3    0    0  0.13070200677E+01 -0.10269096764E+02  0.11551914568E+02  0.15511588571E+02  0.00000000000E+00 0.  1.
</event>
<event>
 7    1  0.5019004E-011  0.5052885E+02  0.7816164E-02  0.1300439E+00
        -11   -1    0    0    0    0  0.00000000000E+00  0.00000000000E+00  0.45593999997E+02  0.45594000000E+02  0.51100000000E-03 0. -1.
         11   -1    0    0    0    0 -0.00000000000E+00 -0.00000000000E+00 -0.45593999997E+02  0.45594000000E+02  0.51100000000E-03 0.  1.
    9900012    2    1    2    0    0 -0.23241566068E+02  0.32071397464E+02 -0.91881420282E+01  0.50528845034E+02  0.29999954966E+02 0.  0.
        -12    1    1    2    0    0  0.23241566068E+02 -0.32071397464E+02  0.91881420282E+01  0.40659154966E+02  0.00000000000E+00 0.  1.
         11    1    3    3    0    0 -0.14152116832E+02 -0.80625946328E-01 -0.14372852153E+01  0.14225143247E+02  0.51100000000E-03 0. -1.
        -11    1    3    3    0    0 -0.80155844755E+00  0.11104050513E+02 -0.79530614875E+01  0.13681871985E+02  0.51100000000E-03 0.  1.
         12    1    3    3    0    0 -0.82878907892E+01  0.21047972898E+02  0.20220467461E+00  0.22621829802E+02  0.00000000000E+00 0. -1.
</event>
<event>
 7    1  0.5019004E-011  0.5052890E+02  0.7816164E-02  0.1300439E+00
        -11   -1    0    0    0    0  0.00000000000E+00  0.00000000000E+00  0.45593999997E+02  0.45594000000E+02  0.51100000000E-03 0. -1.
         11   -1    0    0    0    0 -0.00000000000E+00 -0.00000000000E+00 -0.45593999997E+02  0.45594000000E+02  0.51100000000E-03 0.  1.
    9900012    2    1    2    0    0 -0.66626029806E+01  0.12858411246E+02  0.37992548832E+02  0.50528895423E+02  0.30000108129E+02 0.  0.
        -12    1    1    2    0    0  0.66626029806E+01 -0.12858411246E+02 -0.37992548832E+02  0.40659104577E+02  0.00000000000E+00 0.  1.
         11    1    3    3    0    0 -0.69139263975E+01 -0.59124615428E+01  0.15681731896E+02  0.18129431741E+02  0.51100000000E-03 0. -1.
        -11    1    3    3    0    0  0.61227380664E+01  0.97605300662E+01  0.63570277019E+01  0.13159318754E+02  0.51100000000E-03 0.  1.
        -12    1    3    3    0    0 -0.58714146494E+01  0.90103427226E+01  0.15953789234E+02  0.19240144929E+02  0.00000000000E+00 0.  1.
</event>
<event>
 7    1  0.5019004E-011  0.5052887E+02  0.7816164E-02  0.1300439E+00
        -11   -1    0    0    0    0  0.00000000000E+00  0.00000000000E+00  0.45593999997E+02  0.45594000000E+02  0.51100000000E-03 0. -1.
         11   -1    0    0    0    0 -0.00000000000E+00 -0.00000000000E+00 -0.45593999997E+02  0.45594000000E+02  0.51100000000E-03 0.  1.
    9900012    2    1    2    0    0  0.12197725339E+02 -0.32505137072E+02  0.21161199179E+02  0.50528870764E+02  0.30000033175E+02 0.  0.
        -12    1    1    2    0    0 -0.12197725339E+02  0.32505137072E+02 -0.21161199179E+02  0.40659129236E+02  0.00000000000E+00 0.  1.
         11    1    3    3    0    0  0.14279834239E+02 -0.17507375097E+02  0.10285049430E+02  0.24823458476E+02  0.51100000000E-03 0. -1.
        -11    1    3    3    0    0 -0.12633461813E+01  0.16597980886E+01 -0.32415503695E+01  0.38546883568E+01  0.51100000000E-03 0.  1.
        -12    1    3    3    0    0 -0.81876271919E+00 -0.16657560064E+02  0.14117700119E+02  0.21850723931E+02  0.00000000000E+00 0.  1.
</event>
<event>
 7    1  0.5019004E-011  0.5052885E+02  0.7816164E-02  0.1300439E+00
        -11   -1    0    0    0    0  0.00000000000E+00  0.00000000000E+00  0.45593999997E+02  0.45594000000E+02  0.51100000000E-03 0.  1.
         11   -1    0    0    0    0 -0.00000000000E+00 -0.00000000000E+00 -0.45593999997E+02  0.45594000000E+02  0.51100000000E-03 0. -1.
    9900012    2    1    2    0    0  0.40405609017E+02 -0.36789554134E+01 -0.26492280251E+01  0.50528851434E+02  0.29999974418E+02 0.  0.
        -12    1    1    2    0    0 -0.40405609017E+02  0.36789554134E+01  0.26492280251E+01  0.40659148566E+02  0.00000000000E+00 0.  1.
         11    1    3    3    0    0  0.29985505871E+02 -0.91434498098E+00  0.83265447426E+01  0.31133550017E+02  0.51100000000E-03 0. -1.
        -11    1    3    3    0    0  0.21671884529E+01 -0.46156813812E+01 -0.95387371100E+01  0.10816132688E+02  0.51100000000E-03 0.  1.
        -12    1    3    3    0    0  0.82529146939E+01  0.18510709488E+01 -0.14370356577E+01  0.85791687291E+01  0.00000000000E+00 0.  1.
</event>
<event>
 7    1  0.5019004E-011  0.5052886E+02  0.7816164E-02  0.1300439E+00
        -11   -1    0    0    0    0  0.00000000000E+00  0.00000000000E+00  0.45593999997E+02  0.45594000000E+02  0.51100000000E-03 0.  1.
         11   -1    0    0    0    0 -0.00000000000E+00 -0.00000000000E+00 -0.45593999997E+02  0.45594000000E+02  0.51100000000E-03 0. -1.
    9900012    2    1    2    0    0 -0.33025429787E+02  0.21155152484E+02 -0.10721293125E+02  0.50528860615E+02  0.30000002325E+02 0.  0.
        -12    1    1    2    0    0  0.33025429787E+02 -0.21155152484E+02  0.10721293125E+02  0.40659139385E+02  0.00000000000E+00 0.  1.
         11    1    3    3    0    0 -0.18948274196E+02  0.20759704005E+02  0.49958243257E+01  0.28547515940E+02  0.51100000000E-03 0. -1.
        -11    1    3    3    0    0 -0.60202643276E+01  0.29161475202E+01 -0.88817665258E+01  0.11119050131E+02  0.51100000000E-03 0.  1.
         12    1    3    3    0    0 -0.80568912639E+01 -0.25206990410E+01 -0.68353509253E+01  0.10862294544E+02  0.00000000000E+00 0. -1.
</event>
<event>
 7    1  0.5019004E-011  0.5052887E+02  0.7816164E-02  0.1300439E+00
        -11   -1    0    0    0    0  0.00000000000E+00  0.00000000000E+00  0.45593999997E+02  0.45594000000E+02  0.51100000000E-03 0. -1.
         11   -1    0    0    0    0 -0.00000000000E+00 -0.00000000000E+00 -0.45593999997E+02  0.45594000000E+02  0.51100000000E-03 0.  1.
    9900012    2    1    2    0    0 -0.96238716490E+01  0.12563080528E+01  0.39483759897E+02  0.50528874197E+02  0.30000043610E+02 0.  0.
        -12    1    1    2    0    0  0.96238716490E+01 -0.12563080528E+01 -0.39483759897E+02  0.40659125803E+02  0.00000000000E+00 0.  1.
         11    1    3    3    0    0  0.63863622144E+01  0.21806640928E+01  0.24104236717E+02  0.25031083600E+02  0.51100000000E-03 0.  1.
        -11    1    3    3    0    0 -0.16952277418E+02  0.12923005336E+01  0.10305056544E+02  0.19880742968E+02  0.51100000000E-03 0. -1.
         12    1    3    3    0    0  0.94204355472E+00 -0.22166565736E+01  0.50744666367E+01  0.56170476295E+01  0.00000000000E+00 0. -1.
</event>
<event>
 7    1  0.5019004E-011  0.5052883E+02  0.7816164E-02  0.1300439E+00
        -11   -1    0    0    0    0  0.00000000000E+00  0.00000000000E+00  0.45593999997E+02  0.45594000000E+02  0.51100000000E-03 0. -1.
         11   -1    0    0    0    0 -0.00000000000E+00 -0.00000000000E+00 -0.45593999997E+02  0.45594000000E+02  0.51100000000E-03 0.  1.
    9900012    2    1    2    0    0  0.21173816064E+02 -0.24630494484E+02  0.24457647902E+02  0.50528827774E+02  0.29999902501E+02 0.  0.
        -12    1    1    2    0    0 -0.21173816064E+02  0.24630494484E+02 -0.24457647902E+02  0.40659172226E+02  0.00000000000E+00 0.  1.
         11    1    3    3    0    0  0.25149431863E+02 -0.23457620582E+02  0.15241576150E+02  0.37617277017E+02  0.51100000000E-03 0. -1.
        -11    1    3    3    0    0  0.10949120641E+01 -0.42091506858E+00 -0.96101635012E+00  0.15164282408E+01  0.51100000000E-03 0.  1.
         12    1    3    3    0    0 -0.50705278636E+01 -0.75195883353E+00  0.10177088102E+02  0.11395122515E+02  0.00000000000E+00 0. -1.
</event>
<event>
 7    1  0.5019004E-011  0.5052886E+02  0.7816164E-02  0.1300439E+00
        -11   -1    0    0    0    0  0.00000000000E+00  0.00000000000E+00  0.45593999997E+02  0.45594000000E+02  0.51100000000E-03 0.  1.
         11   -1    0    0    0    0 -0.00000000000E+00 -0.00000000000E+00 -0.45593999997E+02  0.45594000000E+02  0.51100000000E-03 0. -1.
    9900012    2    1    2    0    0  0.13587230084E+02 -0.30778530402E+02 -0.22830570888E+02  0.50528859304E+02  0.29999998341E+02 0.  0.
        -12    1    1    2    0    0 -0.13587230084E+02  0.30778530402E+02  0.22830570888E+02  0.40659140696E+02  0.00000000000E+00 0.  1.
         11    1    3    3    0    0 -0.18893376202E+01 -0.62959051372E+01 -0.76775814772E+00  0.66179657732E+01  0.51100000000E-03 0. -1.
        -11    1    3    3    0    0  0.11912328695E+02 -0.24163008369E+01 -0.17157426942E+02  0.21026635114E+02  0.51100000000E-03 0.  1.
        -12    1    3    3    0    0  0.35642390092E+01 -0.22066324428E+02 -0.49053857976E+01  0.22884258417E+02  0.00000000000E+00 0.  1.
</event>
<event>
 7    1  0.5019004E-011  0.5052882E+02  0.7816164E-02  0.1300439E+00
        -11   -1    0    0    0    0  0.00000000000E+00  0.00000000000E+00  0.45593999997E+02  0.45594000000E+02  0.51100000000E-03 0.  1.
         11   -1    0    0    0    0 -0.00000000000E+00 -0.00000000000E+00 -0.45593999997E+02  0.45594000000E+02  0.51100000000E-03 0. -1.
    9900012    2    1    2    0    0  0.97842394483E+01  0.17040484694E+01 -0.39427579924E+02  0.50528816764E+02  0.29999869035E+02 0.  0.
        -12    1    1    2    0    0 -0.97842394483E+01 -0.17040484694E+01  0.39427579924E+02  0.40659183236E+02  0.00000000000E+00 0.  1.
         11    1    3    3    0    0  0.55957075185E+00 -0.32622830484E+01 -0.39299889722E+02  0.39439028164E+02  0.51100000000E-03 0. -1.
        -11    1    3    3    0    0  0.66853648345E+01  0.37402087038E+01 -0.17203108497E+01  0.78512886713E+01  0.51100000000E-03 0.  1.
         12    1    3    3    0    0  0.25393038620E+01  0.12261228140E+01  0.15926206475E+01  0.32384999282E+01  0.00000000000E+00 0. -1.
</event>
<event>
 7    1  0.5019004E-011  0.5052886E+02  0.7816164E-02  0.1300439E+00
        -11   -1    0    0    0    0  0.00000000000E+00  0.00000000000E+00  0.45593999997E+02  0.45594000000E+02  0.51100000000E-03 0. -1.
         11   -1    0    0    0    0 -0.00000000000E+00 -0.00000000000E+00 -0.45593999997E+02  0.45594000000E+02  0.51100000000E-03 0.  1.
    9900012    2    1    2    0    0  0.10199516084E+02  0.37927239797E+02 -0.10519512074E+02  0.50528858577E+02  0.29999996131E+02 0.  0.
        -12    1    1    2    0    0 -0.10199516084E+02 -0.37927239797E+02  0.10519512074E+02  0.40659141423E+02  0.00000000000E+00 0.  1.
         11    1    3    3    0    0  0.86222607269E+01  0.34789227585E+02 -0.55437207564E+01  0.36267982796E+02  0.51100000000E-03 0. -1.
        -11    1    3    3    0    0 -0.25647136667E+01 -0.15149336386E+01  0.29417512073E+01  0.41864878537E+01  0.51100000000E-03 0.  1.
        -12    1    3    3    0    0  0.41419690236E+01  0.46529458510E+01 -0.79175425252E+01  0.10074387928E+02  0.00000000000E+00 0.  1.
</event>
<event>
 7    1  0.5019004E-011  0.5052886E+02  0.7816164E-02  0.1300439E+00
        -11   -1    0    0    0    0  0.00000000000E+00  0.00000000000E+00  0.45593999997E+02  0.45594000000E+02  0.51100000000E-03 0. -1.
         11   -1    0    0    0    0 -0.00000000000E+00 -0.00000000000E+00 -0.45593999997E+02  0.45594000000E+02  0.51100000000E-03 0.  1.
    9900012    2    1    2    0    0 -0.34909133074E+02 -0.24657645771E+00  0.20843638217E+02  0.50528860485E+02  0.30000001931E+02 0.  0.
        -12    1    1    2    0    0  0.34909133074E+02  0.24657645771E+00 -0.20843638217E+02  0.40659139515E+02  0.00000000000E+00 0.  1.
         11    1    3    3    0    0 -0.36761720751E+02  0.62515795433E+01  0.20848212037E+02  0.42721824689E+02  0.51100000000E-03 0. -1.
        -11    1    3    3    0    0 -0.56689102923E+00 -0.11055584261E+01 -0.12547225624E+01  0.17657728739E+01  0.51100000000E-03 0.  1.
         12    1    3    3    0    0  0.24194787064E+01 -0.53925975750E+01  0.12501487426E+01  0.60412629222E+01  0.00000000000E+00 0. -1.
</event>
<event>
 7    1  0.5019004E-011  0.5052887E+02  0.7816164E-02  0.1300439E+00
        -11   -1    0    0    0    0  0.00000000000E+00  0.00000000000E+00  0.45593999997E+02  0.45594000000E+02  0.51100000000E-03 0.  1.
         11   -1    0    0    0    0 -0.00000000000E+00 -0.00000000000E+00 -0.45593999997E+02  0.45594000000E+02  0.51100000000E-03 0. -1.
    9900012    2    1    2    0    0 -0.15658523175E+02 -0.31315834462E+02 -0.20671090741E+02  0.50528870293E+02  0.30000031743E+02 0.  0.
        -12    1    1    2    0    0  0.15658523175E+02  0.31315834462E+02  0.20671090741E+02  0.40659129707E+02  0.00000000000E+00 0.  1.
         11    1    3    3    0    0  0.54290480122E+00  0.20129403783E+01  0.32527606544E+01  0.38635639927E+01  0.51100000000E-03 0. -1.
        -11    1    3    3    0    0 -0.73808249291E+01 -0.16002003084E+02 -0.26078178307E+01  0.17814078518E+02  0.51100000000E-03 0.  1.
         12    1    3    3    0    0 -0.88206030471E+01 -0.17326771756E+02 -0.21316033565E+02  0.28851227782E+02  0.00000000000E+00 0. -1.
</event>
<event>
 7    1  0.5019004E-011  0.5052885E+02  0.7816164E-02  0.1300439E+00
        -11   -1    0    0    0    0  0.00000000000E+00  0.00000000000E+00  0.45593999997E+02  0.45594000000E+02  0.51100000000E-03 0. -1.
         11   -1    0    0    0    0 -0.00000000000E+00 -0.00000000000E+00 -0.45593999997E+02  0.45594000000E+02  0.51100000000E-03 0.  1.
    9900012    2    1    2    0    0 -0.28296213034E+02  0.82459841472E+01  0.28008828637E+02  0.50528850867E+02  0.29999972694E+02 0.  0.
        -12    1    1    2    0    0  0.28296213034E+02 -0.82459841472E+01 -0.28008828637E+02  0.40659149133E+02  0.00000000000E+00 0.  1.
         11    1    3    3    0    0 -0.27920394149E+02  0.54324967723E+01  0.15036653460E+02  0.32173923885E+02  0.51100000000E-03 0. -1.
        -11    1    3    3    0    0  0.23671134580E+01  0.67526774916E+01  0.11091903308E+02  0.13199704492E+02  0.51100000000E-03 0.  1.
         12    1    3    3    0    0 -0.27429323428E+01 -0.39391901167E+01  0.18802718692E+01  0.51552224894E+01  0.00000000000E+00 0. -1.
</event>
<event>
 7    1  0.5019004E-011  0.5052887E+02  0.7816164E-02  0.1300439E+00
        -11   -1    0    0    0    0  0.00000000000E+00  0.00000000000E+00  0.45593999997E+02  0.45594000000E+02  0.51100000000E-03 0. -1.
         11   -1    0    0    0    0 -0.00000000000E+00 -0.00000000000E+00 -0.45593999997E+02  0.45594000000E+02  0.51100000000E-03 0.  1.
    9900012    2    1    2    0    0 -0.31560889035E+02  0.24023855882E+02 -0.89403507349E+01  0.50528865241E+02  0.30000016386E+02 0.  0.
        -12    1    1    2    0    0  0.31560889035E+02 -0.24023855882E+02  0.89403507349E+01  0.40659134759E+02  0.00000000000E+00 0.  1.
         11    1    3    3    0    0 -0.37983799887E+01  0.36741995375E+01 -0.55635728072E+01  0.76733809642E+01  0.51100000000E-03 0. -1.
        -11    1    3    3    0    0 -0.20691648706E+02  0.19876067719E+02  0.76990414620E+01  0.29706525105E+02  0.51100000000E-03 0.  1.
        -12    1    3    3    0    0 -0.70708603402E+01  0.47358862577E+00 -0.11075819390E+02  0.13148959171E+02  0.00000000000E+00 0.  1.
</event>
<event>
 7    1  0.5019004E-011  0.5052886E+02  0.7816164E-02  0.1300439E+00
        -11   -1    0    0    0    0  0.00000000000E+00  0.00000000000E+00  0.45593999997E+02  0.45594000000E+02  0.51100000000E-03 0. -1.
         11   -1    0    0    0    0 -0.00000000000E+00 -0.00000000000E+00 -0.45593999997E+02  0.45594000000E+02  0.51100000000E-03 0.  1.
    9900012    2    1    2    0    0  0.13135599986E+02 -0.34985784275E+02  0.16019263411E+02  0.50528857258E+02  0.29999992121E+02 0.  0.
        -12    1    1    2    0    0 -0.13135599986E+02  0.34985784275E+02 -0.16019263411E+02  0.40659142742E+02  0.00000000000E+00 0.  1.
         11    1    3    3    0    0 -0.68284551593E+01 -0.16890062105E+02  0.34866052511E+01  0.18548811666E+02  0.51100000000E-03 0. -1.
        -11    1    3    3    0    0  0.19212126501E+02 -0.14421772090E+02  0.65167183896E+01  0.24890980971E+02  0.51100000000E-03 0.  1.
        -12    1    3    3    0    0  0.75192864413E+00 -0.36739500795E+01  0.60159397701E+01  0.70890646203E+01  0.00000000000E+00 0.  1.
</event>
<event>
 7    1  0.5019004E-011  0.5052884E+02  0.7816164E-02  0.1300439E+00
        -11   -1    0    0    0    0  0.00000000000E+00  0.00000000000E+00  0.45593999997E+02  0.45594000000E+02  0.51100000000E-03 0. -1.
         11   -1    0    0    0    0 -0.00000000000E+00 -0.00000000000E+00 -0.45593999997E+02  0.45594000000E+02  0.51100000000E-03 0.  1.
    9900012    2    1    2    0    0 -0.35220040737E+02  0.11489231501E+02  0.16754502670E+02  0.50528842732E+02  0.29999947969E+02 0.  0.
        -12    1    1    2    0    0  0.35220040737E+02 -0.11489231501E+02 -0.16754502670E+02  0.40659157268E+02  0.00000000000E+00 0.  1.
         11    1    3    3    0    0 -0.72285338867E+00 -0.21059519564E+01  0.11539064951E+02  0.11751917753E+02  0.51100000000E-03 0. -1.
        -11    1    3    3    0    0 -0.17522523554E+02  0.64234921880E+01 -0.24417463977E+01  0.18821854566E+02  0.51100000000E-03 0.  1.
         12    1    3    3    0    0 -0.16974663795E+02  0.71716912692E+01  0.76571841164E+01  0.19955070413E+02  0.00000000000E+00 0. -1.
</event>
<event>
 7    1  0.5019004E-011  0.5052886E+02  0.7816164E-02  0.1300439E+00
        -11   -1    0    0    0    0  0.00000000000E+00  0.00000000000E+00  0.45593999997E+02  0.45594000000E+02  0.51100000000E-03 0.  1.
         11   -1    0    0    0    0 -0.00000000000E+00 -0.00000000000E+00 -0.45593999997E+02  0.45594000000E+02  0.51100000000E-03 0. -1.
    9900012    2    1    2    0    0 -0.14526259779E+02  0.59225661696E+01 -0.37511021147E+02  0.50528859322E+02  0.29999998395E+02 0.  0.
        -12    1    1    2    0    0  0.14526259779E+02 -0.59225661696E+01  0.37511021147E+02  0.40659140678E+02  0.00000000000E+00 0.  1.
         11    1    3    3    0    0 -0.22232256592E+02  0.36553301122E+01 -0.24018515967E+02  0.32932108662E+02  0.51100000000E-03 0. -1.
        -11    1    3    3    0    0  0.57650684245E+01  0.13663121185E+01 -0.14164657675E+02  0.15353838284E+02  0.51100000000E-03 0.  1.
         12    1    3    3    0    0  0.19409283878E+01  0.90092393886E+00  0.67215249542E+00  0.22429123762E+01  0.00000000000E+00 0. -1.
</event>
<event>
 7    1  0.5019004E-011  0.5052886E+02  0.7816164E-02  0.1300439E+00
        -11   -1    0    0    0    0  0.00000000000E+00  0.00000000000E+00  0.45593999997E+02  0.45594000000E+02  0.51100000000E-03 0.  1.
         11   -1    0    0    0    0 -0.00000000000E+00 -0.00000000000E+00 -0.45593999997E+02  0.45594000000E+02  0.51100000000E-03 0. -1.
    9900012    2    1    2    0    0 -0.23908174766E+02 -0.32419250783E+02 -0.55278194495E+01  0.50528862898E+02  0.30000009265E+02 0.  0.
        -12    1    1    2    0    0  0.23908174766E+02  0.32419250783E+02  0.55278194495E+01  0.40659137102E+02  0.00000000000E+00 0.  1.
         11    1    3    3    0    0 -0.14217950301E+02 -0.19742648740E+02 -0.10907243256E+02  0.26662525120E+02  0.51100000000E-03 0. -1.
        -11    1    3    3    0    0  0.13896122107E+01 -0.87733185893E+01  0.78589494373E+01  0.11860237252E+02  0.51100000000E-03 0.  1.
        -12    1    3    3    0    0 -0.11079836676E+02 -0.39032834535E+01 -0.24795256305E+01  0.12006100526E+02  0.00000000000E+00 0.  1.
</event>
<event>
 7    1  0.5019004E-011  0.5052893E+02  0.7816164E-02  0.1300439E+00
        -11   -1    0    0    0    0  0.00000000000E+00  0.00000000000E+00  0.45593999997E+02  0.45594000000E+02  0.51100000000E-03 0.  1.
         11   -1    0    0    0    0 -0.00000000000E+00 -0.00000000000E+00 -0.45593999997E+02  0.45594000000E+02  0.51100000000E-03 0. -1.
    9900012    2    1    2    0    0  0.28275486829E+02 -0.10181440820E+02 -0.27386045097E+02  0.50528925261E+02  0.30000198822E+02 0.  0.
        -12    1    1    2    0    0 -0.28275486829E+02  0.10181440820E+02  0.27386045097E+02  0.40659074739E+02  0.00000000000E+00 0.  1.
         11    1    3    3    0    0  0.16143425078E+02 -0.13617967461E+02 -0.17243511395E+02  0.27265324068E+02  0.51100000000E-03 0. -1.
        -11    1    3    3    0    0  0.95541761746E+01  0.76957610564E+01 -0.12707439699E+02  0.17663126693E+02  0.51100000000E-03 0.  1.
        -12    1    3    3    0    0  0.25778855764E+01 -0.42592344157E+01  0.25649059969E+01  0.56004745001E+01  0.00000000000E+00 0.  1.
</event>
<event>
 7    1  0.5019004E-011  0.5052886E+02  0.7816164E-02  0.1300439E+00
        -11   -1    0    0    0    0  0.00000000000E+00  0.00000000000E+00  0.45593999997E+02  0.45594000000E+02  0.51100000000E-03 0. -1.
         11   -1    0    0    0    0 -0.00000000000E+00 -0.00000000000E+00 -0.45593999997E+02  0.45594000000E+02  0.51100000000E-03 0.  1.
    9900012    2    1    2    0    0 -0.30056612362E+02  0.12665539385E+02  0.24276526188E+02  0.50528861318E+02  0.30000004461E+02 0.  0.
        -12    1    1    2    0    0  0.30056612362E+02 -0.12665539385E+02 -0.24276526188E+02  0.40659138682E+02  0.00000000000E+00 0.  1.
         11    1    3    3    0    0 -0.85046365813E+01  0.47718051216E+01  0.49680292932E+01  0.10944417884E+02  0.51100000000E-03 0. -1.
        -11    1    3    3    0    0  0.60407415779E+01  0.12874399102E+01  0.37584189950E+01  0.72300604380E+01  0.51100000000E-03 0.  1.
        -12    1    3    3    0    0 -0.27592717359E+02  0.66062943535E+01  0.15550077900E+02  0.32354382996E+02  0.00000000000E+00 0.  1.
</event>
<event>
 7    1  0.5019004E-011  0.5052886E+02  0.7816164E-02  0.1300439E+00
        -11   -1    0    0    0    0  0.00000000000E+00  0.00000000000E+00  0.45593999997E+02  0.45594000000E+02  0.51100000000E-03 0. -1.
         11   -1    0    0    0    0 -0.00000000000E+00 -0.00000000000E+00 -0.45593999997E+02  0.45594000000E+02  0.51100000000E-03 0.  1.
    9900012    2    1    2    0    0  0.33881930026E+01  0.23624911871E+02  0.32917305758E+02  0.50528864113E+02  0.30000012958E+02 0.  0.
        -12    1    1    2    0    0 -0.33881930026E+01 -0.23624911871E+02 -0.32917305758E+02  0.40659135887E+02  0.00000000000E+00 0.  1.
         11    1    3    3    0    0 -0.27082292399E+01 -0.45615169934E+01 -0.89624369868E-01  0.53056550666E+01  0.51100000000E-03 0. -1.
        -11    1    3    3    0    0  0.79079289855E+01  0.26887437671E+02  0.27423261459E+02  0.39211030522E+02  0.51100000000E-03 0.  1.
        -12    1    3    3    0    0 -0.18115067430E+01  0.12989911935E+01  0.55836686691E+01  0.60121785242E+01  0.00000000000E+00 0.  1.
</event>
<event>
 7    1  0.5019004E-011  0.5052885E+02  0.7816164E-02  0.1300439E+00
        -11   -1    0    0    0    0  0.00000000000E+00  0.00000000000E+00  0.45593999997E+02  0.45594000000E+02  0.51100000000E-03 0.  1.
         11   -1    0    0    0    0 -0.00000000000E+00 -0.00000000000E+00 -0.45593999997E+02  0.45594000000E+02  0.51100000000E-03 0. -1.
    9900012    2    1    2    0    0  0.87154670463E+00 -0.10907727101E+02 -0.39159016033E+02  0.50528848007E+02  0.29999964001E+02 0.  0.
        -12    1    1    2    0    0 -0.87154670463E+00  0.10907727101E+02  0.39159016033E+02  0.40659151993E+02  0.00000000000E+00 0.  1.
         11    1    3    3    0    0  0.60584888276E+01 -0.58103641095E+00 -0.13366132273E+02  0.14686605543E+02  0.51100000000E-03 0. -1.
        -11    1    3    3    0    0 -0.71722741794E+01 -0.16510735500E+02 -0.21572343435E+02  0.28096474960E+02  0.51100000000E-03 0.  1.
        -12    1    3    3    0    0  0.19853320564E+01  0.61840448097E+01 -0.42205403254E+01  0.77457675037E+01  0.00000000000E+00 0.  1.
</event>
<event>
 7    1  0.5019004E-011  0.5052887E+02  0.7816164E-02  0.1300439E+00
        -11   -1    0    0    0    0  0.00000000000E+00  0.00000000000E+00  0.45593999997E+02  0.45594000000E+02  0.51100000000E-03 0.  1.
         11   -1    0    0    0    0 -0.00000000000E+00 -0.00000000000E+00 -0.45593999997E+02  0.45594000000E+02  0.51100000000E-03 0. -1.
    9900012    2    1    2    0    0 -0.13674645511E+02 -0.72876577336E+01 -0.37590677107E+02  0.50528869531E+02  0.30000029428E+02 0.  0.
        -12    1    1    2    0    0  0.13674645511E+02  0.72876577336E+01  0.37590677107E+02  0.40659130469E+02  0.00000000000E+00 0.  1.
         11    1    3    3    0    0 -0.40005585094E+01  0.72138094206E+01 -0.14130214880E+01  0.83689990280E+01  0.51100000000E-03 0. -1.
        -11    1    3    3    0    0 -0.76443294800E+00 -0.12250956162E+02 -0.17933098469E+02  0.21731688972E+02  0.51100000000E-03 0.  1.
         12    1    3    3    0    0 -0.89096540538E+01 -0.22505109921E+01 -0.18244557150E+02  0.20428181531E+02  0.00000000000E+00 0. -1.
</event>
<event>
 7    1  0.5019004E-011  0.5052885E+02  0.7816164E-02  0.1300439E+00
        -11   -1    0    0    0    0  0.00000000000E+00  0.00000000000E+00  0.45593999997E+02  0.45594000000E+02  0.51100000000E-03 0.  1.
         11   -1    0    0    0    0 -0.00000000000E+00 -0.00000000000E+00 -0.45593999997E+02  0.45594000000E+02  0.51100000000E-03 0. -1.
    9900012    2    1    2    0    0 -0.16401167646E+02 -0.29954061280E+02 -0.22066324462E+02  0.50528846509E+02  0.29999959450E+02 0.  0.
        -12    1    1    2    0    0  0.16401167646E+02  0.29954061280E+02  0.22066324462E+02  0.40659153491E+02  0.00000000000E+00 0.  1.
         11    1    3    3    0    0 -0.17635276928E+02 -0.12875882939E+02 -0.23335059546E+02  0.31958040585E+02  0.51100000000E-03 0. -1.
        -11    1    3    3    0    0 -0.26982787425E+01 -0.51312039265E+01 -0.70227519308E+00  0.58397904599E+01  0.51100000000E-03 0.  1.
         12    1    3    3    0    0  0.39323880246E+01 -0.11946974415E+02  0.19710102770E+01  0.12731015464E+02  0.00000000000E+00 0. -1.
</event>
<event>
 7    1  0.5019004E-011  0.5052886E+02  0.7816164E-02  0.1300439E+00
        -11   -1    0    0    0    0  0.00000000000E+00  0.00000000000E+00  0.45593999997E+02  0.45594000000E+02  0.51100000000E-03 0. -1.
         11   -1    0    0    0    0 -0.00000000000E+00 -0.00000000000E+00 -0.45593999997E+02  0.45594000000E+02  0.51100000000E-03 0.  1.
    9900012    2    1    2    0    0  0.18975210881E+02  0.26226888593E+02  0.24601973370E+02  0.50528863180E+02  0.30000010122E+02 0.  0.
        -12    1    1    2    0    0 -0.18975210881E+02 -0.26226888593E+02 -0.24601973370E+02  0.40659136820E+02  0.00000000000E+00 0.  1.
         11    1    3    3    0    0 -0.63864279243E+01 -0.17798788891E+00  0.50637266705E+00  0.64089433497E+01  0.51100000000E-03 0.  1.
        -11    1    3    3    0    0  0.36449132784E+01  0.65855714689E+01  0.56517471867E+01  0.94126187059E+01  0.51100000000E-03 0. -1.
         12    1    3    3    0    0  0.21716725527E+02  0.19819305013E+02  0.18443853517E+02  0.34707301124E+02  0.00000000000E+00 0. -1.
</event>
<event>
 7    1  0.5019004E-011  0.5052887E+02  0.7816164E-02  0.1300439E+00
        -11   -1    0    0    0    0  0.00000000000E+00  0.00000000000E+00  0.45593999997E+02  0.45594000000E+02  0.51100000000E-03 0.  1.
         11   -1    0    0    0    0 -0.00000000000E+00 -0.00000000000E+00 -0.45593999997E+02  0.45594000000E+02  0.51100000000E-03 0. -1.
    9900012    2    1    2    0    0 -0.36926034692E+02  0.38858929607E-01 -0.17018555500E+02  0.50528870897E+02  0.30000033579E+02 0.  0.
        -12    1    1    2    0    0  0.36926034692E+02 -0.38858929607E-01  0.17018555500E+02  0.40659129103E+02  0.00000000000E+00 0.  1.
         11    1    3    3    0    0 -0.12327627344E+02 -0.25099099589E+01  0.57321238376E+01  0.13824879308E+02  0.51100000000E-03 0. -1.
        -11    1    3    3    0    0 -0.10285537672E+02  0.84506218823E+01 -0.10971404266E+02  0.17250420495E+02  0.51100000000E-03 0.  1.
         12    1    3    3    0    0 -0.14312869676E+02 -0.59018529938E+01 -0.11779275071E+02  0.19453571094E+02  0.00000000000E+00 0. -1.
</event>
<event>
 7    1  0.5019004E-011  0.5052886E+02  0.7816164E-02  0.1300439E+00
        -11   -1    0    0    0    0  0.00000000000E+00  0.00000000000E+00  0.45593999997E+02  0.45594000000E+02  0.51100000000E-03 0.  1.
         11   -1    0    0    0    0 -0.00000000000E+00 -0.00000000000E+00 -0.45593999997E+02  0.45594000000E+02  0.51100000000E-03 0. -1.
    9900012    2    1    2    0    0 -0.27271913875E+02  0.50995885564E+01 -0.29722084796E+02  0.50528863087E+02  0.30000009840E+02 0.  0.
        -12    1    1    2    0    0  0.27271913875E+02 -0.50995885564E+01  0.29722084796E+02  0.40659136913E+02  0.00000000000E+00 0.  1.
         11    1    3    3    0    0 -0.16321090240E+02 -0.82255671365E+01 -0.11151220199E+02  0.21409989573E+02  0.51100000000E-03 0. -1.
        -11    1    3    3    0    0  0.22286507442E+00  0.77173792488E+01 -0.13652355057E+02  0.15684208944E+02  0.51100000000E-03 0.  1.
        -12    1    3    3    0    0 -0.11173688709E+02  0.56077764440E+01 -0.49185095397E+01  0.13434664570E+02  0.00000000000E+00 0.  1.
</event>
<event>
 7    1  0.5019004E-011  0.5052879E+02  0.7816164E-02  0.1300439E+00
        -11   -1    0    0    0    0  0.00000000000E+00  0.00000000000E+00  0.45593999997E+02  0.45594000000E+02  0.51100000000E-03 0.  1.
         11   -1    0    0    0    0 -0.00000000000E+00 -0.00000000000E+00 -0.45593999997E+02  0.45594000000E+02  0.51100000000E-03 0. -1.
    9900012    2    1    2    0    0  0.40417308899E+02 -0.91912001364E+00 -0.43322109034E+01  0.50528785896E+02  0.29999775208E+02 0.  0.
        -12    1    1    2    0    0 -0.40417308899E+02  0.91912001364E+00  0.43322109034E+01  0.40659214104E+02  0.00000000000E+00 0.  1.
         11    1    3    3    0    0  0.34347100660E+02  0.28757247927E+01 -0.95647850561E+01  0.35769794943E+02  0.51100000000E-03 0. -1.
        -11    1    3    3    0    0  0.13741235799E+01  0.13224609177E+01  0.72738708746E+01  0.75197284694E+01  0.51100000000E-03 0.  1.
         12    1    3    3    0    0  0.46960846592E+01 -0.51173057240E+01 -0.20412967220E+01  0.72392624836E+01  0.00000000000E+00 0. -1.
</event>
<event>
 7    1  0.5019004E-011  0.5052887E+02  0.7816164E-02  0.1300439E+00
        -11   -1    0    0    0    0  0.00000000000E+00  0.00000000000E+00  0.45593999997E+02  0.45594000000E+02  0.51100000000E-03 0.  1.
         11   -1    0    0    0    0 -0.00000000000E+00 -0.00000000000E+00 -0.45593999997E+02  0.45594000000E+02  0.51100000000E-03 0. -1.
    9900012    2    1    2    0    0 -0.14855946547E+02 -0.55664094950E+01 -0.37436360695E+02  0.50528866161E+02  0.30000019183E+02 0.  0.
        -12    1    1    2    0    0  0.14855946547E+02  0.55664094950E+01  0.37436360695E+02  0.40659133839E+02  0.00000000000E+00 0.  1.
         11    1    3    3    0    0 -0.14943967664E+02 -0.10546900709E+02 -0.27495810709E+02  0.33023913925E+02  0.51100000000E-03 0. -1.
        -11    1    3    3    0    0  0.33934241254E+01 -0.10556975288E+01  0.17329633317E+01  0.39538571974E+01  0.51100000000E-03 0.  1.
        -12    1    3    3    0    0 -0.33054030082E+01  0.60361887426E+01 -0.11673513317E+02  0.13551095039E+02  0.00000000000E+00 0.  1.
</event>
<event>
 7    1  0.5019004E-011  0.5052886E+02  0.7816164E-02  0.1300439E+00
        -11   -1    0    0    0    0  0.00000000000E+00  0.00000000000E+00  0.45593999997E+02  0.45594000000E+02  0.51100000000E-03 0. -1.
         11   -1    0    0    0    0 -0.00000000000E+00 -0.00000000000E+00 -0.45593999997E+02  0.45594000000E+02  0.51100000000E-03 0.  1.
    9900012    2    1    2    0    0 -0.39920095060E+02  0.17836642122E+01  0.75080094695E+01  0.50528860144E+02  0.30000000894E+02 0.  0.
        -12    1    1    2    0    0  0.39920095060E+02 -0.17836642122E+01 -0.75080094695E+01  0.40659139856E+02  0.00000000000E+00 0.  1.
         11    1    3    3    0    0 -0.17856814868E+02 -0.13507021178E+01  0.16030137276E+02  0.24034465561E+02  0.51100000000E-03 0. -1.
        -11    1    3    3    0    0 -0.19806886112E+02  0.60065944373E+01 -0.94087385493E+01  0.22735792828E+02  0.51100000000E-03 0.  1.
        -12    1    3    3    0    0 -0.22563940800E+01 -0.28722281073E+01  0.88661074329E+00  0.37586017552E+01  0.00000000000E+00 0.  1.
</event>
<event>
 7    1  0.5019004E-011  0.5052886E+02  0.7816164E-02  0.1300439E+00
        -11   -1    0    0    0    0  0.00000000000E+00  0.00000000000E+00  0.45593999997E+02  0.45594000000E+02  0.51100000000E-03 0. -1.
         11   -1    0    0    0    0 -0.00000000000E+00 -0.00000000000E+00 -0.45593999997E+02  0.45594000000E+02  0.51100000000E-03 0.  1.
    9900012    2    1    2    0    0  0.53329445998E+01  0.16166492343E+02  0.36923838596E+02  0.50528860444E+02  0.30000001806E+02 0.  0.
        -12    1    1    2    0    0 -0.53329445998E+01 -0.16166492343E+02 -0.36923838596E+02  0.40659139556E+02  0.00000000000E+00 0.  1.
         11    1    3    3    0    0  0.22849906349E+00 -0.31489151927E+01  0.26225781585E+02  0.26415137682E+02  0.51100000000E-03 0. -1.
        -11    1    3    3    0    0  0.23304001672E+01  0.17847141878E+02  0.10768884184E+02  0.20974272454E+02  0.51100000000E-03 0.  1.
        -12    1    3    3    0    0  0.27740453691E+01  0.14682656577E+01 -0.70827174158E-01  0.31394503085E+01  0.00000000000E+00 0.  1.
</event>
<event>
 7    1  0.5019004E-011  0.5052886E+02  0.7816164E-02  0.1300439E+00
        -11   -1    0    0    0    0  0.00000000000E+00  0.00000000000E+00  0.45593999997E+02  0.45594000000E+02  0.51100000000E-03 0.  1.
         11   -1    0    0    0    0 -0.00000000000E+00 -0.00000000000E+00 -0.45593999997E+02  0.45594000000E+02  0.51100000000E-03 0. -1.
    9900012    2    1    2    0    0 -0.11536052328E+01  0.80948263946E+01 -0.39828490249E+02  0.50528860131E+02  0.30000000855E+02 0.  0.
        -12    1    1    2    0    0  0.11536052328E+01 -0.80948263946E+01  0.39828490249E+02  0.40659139869E+02  0.00000000000E+00 0.  1.
         11    1    3    3    0    0  0.57881331764E+01  0.11215629830E+02 -0.14304684247E+02  0.19076604253E+02  0.51100000000E-03 0. -1.
        -11    1    3    3    0    0 -0.37396890061E+01 -0.98727021217E+01 -0.11856939499E+02  0.15875847555E+02  0.51100000000E-03 0.  1.
        -12    1    3    3    0    0 -0.32020494031E+01  0.67518986861E+01 -0.13666866503E+02  0.15576408323E+02  0.00000000000E+00 0.  1.
</event>
<event>
 7    1  0.5019004E-011  0.5052886E+02  0.7816164E-02  0.1300439E+00
        -11   -1    0    0    0    0  0.00000000000E+00  0.00000000000E+00  0.45593999997E+02  0.45594000000E+02  0.51100000000E-03 0.  1.
         11   -1    0    0    0    0 -0.00000000000E+00 -0.00000000000E+00 -0.45593999997E+02  0.45594000000E+02  0.51100000000E-03 0. -1.
    9900012    2    1    2    0    0  0.97522678867E+01  0.25659110210E+02 -0.29994483050E+02  0.50528859833E+02  0.29999999948E+02 0.  0.
        -12    1    1    2    0    0 -0.97522678867E+01 -0.25659110210E+02  0.29994483050E+02  0.40659140167E+02  0.00000000000E+00 0.  1.
         11    1    3    3    0    0  0.11318133275E+02  0.17154644779E+02 -0.61796134718E+01  0.21460885379E+02  0.51100000000E-03 0. -1.
        -11    1    3    3    0    0 -0.79029775388E+01  0.55727648938E+01 -0.13223437207E+02  0.16382065021E+02  0.51100000000E-03 0.  1.
        -12    1    3    3    0    0  0.63371121508E+01  0.29317005366E+01 -0.10591432372E+02  0.12685909433E+02  0.00000000000E+00 0.  1.
</event>
<event>
 7    1  0.5019004E-011  0.5052886E+02  0.7816164E-02  0.1300439E+00
        -11   -1    0    0    0    0  0.00000000000E+00  0.00000000000E+00  0.45593999997E+02  0.45594000000E+02  0.51100000000E-03 0. -1.
         11   -1    0    0    0    0 -0.00000000000E+00 -0.00000000000E+00 -0.45593999997E+02  0.45594000000E+02  0.51100000000E-03 0.  1.
    9900012    2    1    2    0    0 -0.34187177154E+01 -0.39939982620E+02 -0.68026382704E+01  0.50528859208E+02  0.29999998049E+02 0.  0.
        -12    1    1    2    0    0  0.34187177154E+01  0.39939982620E+02  0.68026382704E+01  0.40659140792E+02  0.00000000000E+00 0.  1.
         11    1    3    3    0    0 -0.10734230937E+02 -0.22686006792E+02  0.41682288781E+00  0.25100843802E+02  0.51100000000E-03 0. -1.
        -11    1    3    3    0    0  0.73532259820E+01 -0.14399760996E+01 -0.59410111027E+01  0.95623781924E+01  0.51100000000E-03 0.  1.
        -12    1    3    3    0    0 -0.37712760389E-01 -0.15813999728E+02 -0.12784500555E+01  0.15865637214E+02  0.00000000000E+00 0.  1.
</event>
<event>
 7    1  0.5019004E-011  0.5052886E+02  0.7816164E-02  0.1300439E+00
        -11   -1    0    0    0    0  0.00000000000E+00  0.00000000000E+00  0.45593999997E+02  0.45594000000E+02  0.51100000000E-03 0.  1.
         11   -1    0    0    0    0 -0.00000000000E+00 -0.00000000000E+00 -0.45593999997E+02  0.45594000000E+02  0.51100000000E-03 0. -1.
    9900012    2    1    2    0    0  0.11390160539E+02  0.23829602527E+00 -0.39030414845E+02  0.50528858038E+02  0.29999994492E+02 0.  0.
        -12    1    1    2    0    0 -0.11390160539E+02 -0.23829602527E+00  0.39030414845E+02  0.40659141962E+02  0.00000000000E+00 0.  1.
         11    1    3    3    0    0 -0.17390969658E+01  0.99903160717E+00 -0.12223863742E+02  0.12387306707E+02  0.51100000000E-03 0. -1.
        -11    1    3    3    0    0  0.14000002194E+02  0.94461117313E+01 -0.16632246344E+02  0.23703601140E+02  0.51100000000E-03 0.  1.
        -12    1    3    3    0    0 -0.87074468999E+00 -0.10206847313E+02 -0.10174304759E+02  0.14437950191E+02  0.00000000000E+00 0.  1.
</event>
<event>
 7    1  0.5019004E-011  0.5052886E+02  0.7816164E-02  0.1300439E+00
        -11   -1    0    0    0    0  0.00000000000E+00  0.00000000000E+00  0.45593999997E+02  0.45594000000E+02  0.51100000000E-03 0. -1.
         11   -1    0    0    0    0 -0.00000000000E+00 -0.00000000000E+00 -0.45593999997E+02  0.45594000000E+02  0.51100000000E-03 0.  1.
    9900012    2    1    2    0    0  0.11884462153E+02 -0.17529939392E+02  0.34707724786E+02  0.50528863566E+02  0.30000011295E+02 0.  0.
        -12    1    1    2    0    0 -0.11884462153E+02  0.17529939392E+02 -0.34707724786E+02  0.40659136434E+02  0.00000000000E+00 0.  1.
         11    1    3    3    0    0  0.69651601959E+01 -0.79044827805E+01 -0.16410835673E+01  0.10662432186E+02  0.51100000000E-03 0. -1.
        -11    1    3    3    0    0 -0.29022572348E+01 -0.77621314052E+01  0.16950404360E+02  0.18867696977E+02  0.51100000000E-03 0.  1.
         12    1    3    3    0    0  0.78215591920E+01 -0.18633252061E+01  0.19398403994E+02  0.20998734403E+02  0.00000000000E+00 0. -1.
</event>
<event>
 7    1  0.5019004E-011  0.5052884E+02  0.7816164E-02  0.1300439E+00
        -11   -1    0    0    0    0  0.00000000000E+00  0.00000000000E+00  0.45593999997E+02  0.45594000000E+02  0.51100000000E-03 0.  1.
         11   -1    0    0    0    0 -0.00000000000E+00 -0.00000000000E+00 -0.45593999997E+02  0.45594000000E+02  0.51100000000E-03 0. -1.
    9900012    2    1    2    0    0  0.47662406651E+01  0.40195849979E+02  0.38397844386E+01  0.50528839284E+02  0.29999937487E+02 0.  0.
        -12    1    1    2    0    0 -0.47662406651E+01 -0.40195849979E+02 -0.38397844386E+01  0.40659160716E+02  0.00000000000E+00 0.  1.
         11    1    3    3    0    0 -0.41225387573E+01  0.15021708862E+02 -0.10622727013E+02  0.18854426334E+02  0.51100000000E-03 0.  1.
        -11    1    3    3    0    0  0.44761648314E+01  0.20996177219E+02  0.13892489455E+02  0.25571014311E+02  0.51100000000E-03 0. -1.
        -12    1    3    3    0    0  0.44126145910E+01  0.41779638978E+01  0.57002199671E+00  0.61033986382E+01  0.00000000000E+00 0.  1.
</event>
<event>
 7    1  0.5019004E-011  0.5052887E+02  0.7816164E-02  0.1300439E+00
        -11   -1    0    0    0    0  0.00000000000E+00  0.00000000000E+00  0.45593999997E+02  0.45594000000E+02  0.51100000000E-03 0.  1.
         11   -1    0    0    0    0 -0.00000000000E+00 -0.00000000000E+00 -0.45593999997E+02  0.45594000000E+02  0.51100000000E-03 0. -1.
    9900012    2    1    2    0    0  0.40320506825E+02 -0.25207567290E-01  0.52365253357E+01  0.50528866910E+02  0.30000021459E+02 0.  0.
        -12    1    1    2    0    0 -0.40320506825E+02  0.25207567290E-01 -0.52365253357E+01  0.40659133090E+02  0.00000000000E+00 0.  1.
         11    1    3    3    0    0  0.21682530225E+02  0.48361025760E+01 -0.57602934548E+01  0.22949967016E+02  0.51100000000E-03 0. -1.
        -11    1    3    3    0    0 -0.59050509620E+00 -0.59819466337E+01  0.30809848509E+01  0.67546169181E+01  0.51100000000E-03 0.  1.
        -12    1    3    3    0    0  0.19228481696E+02  0.11206364905E+01  0.79158339395E+01  0.20824282975E+02  0.00000000000E+00 0.  1.
</event>
<event>
 7    1  0.5019004E-011  0.5052886E+02  0.7816164E-02  0.1300439E+00
        -11   -1    0    0    0    0  0.00000000000E+00  0.00000000000E+00  0.45593999997E+02  0.45594000000E+02  0.51100000000E-03 0.  1.
         11   -1    0    0    0    0 -0.00000000000E+00 -0.00000000000E+00 -0.45593999997E+02  0.45594000000E+02  0.51100000000E-03 0. -1.
    9900012    2    1    2    0    0 -0.37746610319E+01 -0.40188093649E+02 -0.48820721262E+01  0.50528861233E+02  0.30000004204E+02 0.  0.
        -12    1    1    2    0    0  0.37746610319E+01  0.40188093649E+02  0.48820721262E+01  0.40659138767E+02  0.00000000000E+00 0.  1.
         11    1    3    3    0    0 -0.33907693901E+01 -0.38333295280E+02 -0.45906006855E+00  0.38485706184E+02  0.51100000000E-03 0. -1.
        -11    1    3    3    0    0  0.33270782311E+01  0.31809138646E+01 -0.33581509871E+01  0.56977926325E+01  0.51100000000E-03 0.  1.
        -12    1    3    3    0    0 -0.37109698729E+01 -0.50357122339E+01 -0.10648610706E+01  0.63453624168E+01  0.00000000000E+00 0.  1.
</event>
<event>
 7    1  0.5019004E-011  0.5052896E+02  0.7816164E-02  0.1300438E+00
        -11   -1    0    0    0    0  0.00000000000E+00  0.00000000000E+00  0.45593999997E+02  0.45594000000E+02  0.51100000000E-03 0. -1.
         11   -1    0    0    0    0 -0.00000000000E+00 -0.00000000000E+00 -0.45593999997E+02  0.45594000000E+02  0.51100000000E-03 0.  1.
    9900012    2    1    2    0    0  0.18709417330E+02  0.13076139663E+01  0.36074995212E+02  0.50528961268E+02  0.30000308268E+02 0.  0.
        -12    1    1    2    0    0 -0.18709417330E+02 -0.13076139663E+01 -0.36074995212E+02  0.40659038732E+02  0.00000000000E+00 0.  1.
         11    1    3    3    0    0  0.86997821837E+01  0.79319397925E+00 -0.81108221175E+00  0.87734383994E+01  0.51100000000E-03 0. -1.
        -11    1    3    3    0    0  0.97521673841E+01  0.40831207924E+01  0.36678162141E+02  0.38171510612E+02  0.51100000000E-03 0.  1.
        -12    1    3    3    0    0  0.25746776228E+00 -0.35687008054E+01  0.20791528192E+00  0.35840122560E+01  0.00000000000E+00 0.  1.
</event>
<event>
 7    1  0.5019004E-011  0.5052886E+02  0.7816164E-02  0.1300439E+00
        -11   -1    0    0    0    0  0.00000000000E+00  0.00000000000E+00  0.45593999997E+02  0.45594000000E+02  0.51100000000E-03 0.  1.
         11   -1    0    0    0    0 -0.00000000000E+00 -0.00000000000E+00 -0.45593999997E+02  0.45594000000E+02  0.51100000000E-03 0. -1.
    9900012    2    1    2    0    0 -0.15807132800E+01  0.35098968513E+02 -0.20462873291E+02  0.50528862915E+02  0.30000009317E+02 0.  0.
        -12    1    1    2    0    0  0.15807132800E+01 -0.35098968513E+02  0.20462873291E+02  0.40659137085E+02  0.00000000000E+00 0.  1.
         11    1    3    3    0    0  0.38452936684E+01 -0.38661024573E+01 -0.26708510777E+01  0.60717771161E+01  0.51100000000E-03 0.  1.
        -11    1    3    3    0    0 -0.39382681458E+00  0.13004569254E+02 -0.11289144909E+02  0.17225525074E+02  0.51100000000E-03 0. -1.
         12    1    3    3    0    0 -0.50321801338E+01  0.25960501716E+02 -0.65028773039E+01  0.27231560725E+02  0.00000000000E+00 0. -1.
</event>
<event>
 7    1  0.5019004E-011  0.5052886E+02  0.7816164E-02  0.1300439E+00
        -11   -1    0    0    0    0  0.00000000000E+00  0.00000000000E+00  0.45593999997E+02  0.45594000000E+02  0.51100000000E-03 0. -1.
         11   -1    0    0    0    0 -0.00000000000E+00 -0.00000000000E+00 -0.45593999997E+02  0.45594000000E+02  0.51100000000E-03 0.  1.
    9900012    2    1    2    0    0  0.14714754250E+02  0.32855292352E+02  0.18898982720E+02  0.50528858641E+02  0.29999996326E+02 0.  0.
        -12    1    1    2    0    0 -0.14714754250E+02 -0.32855292352E+02 -0.18898982720E+02  0.40659141359E+02  0.00000000000E+00 0.  1.
         11    1    3    3    0    0  0.11014491933E+02  0.46917037223E+01  0.12513968186E+02  0.17318502140E+02  0.51100000000E-03 0. -1.
        -11    1    3    3    0    0 -0.59907817913E+01  0.81423366943E+01  0.38742202945E+01  0.10825742306E+02  0.51100000000E-03 0.  1.
         12    1    3    3    0    0  0.96910441091E+01  0.20021251935E+02  0.25107942396E+01  0.22384614195E+02  0.00000000000E+00 0. -1.
</event>
<event>
 7    1  0.5019004E-011  0.5052885E+02  0.7816164E-02  0.1300439E+00
        -11   -1    0    0    0    0  0.00000000000E+00  0.00000000000E+00  0.45593999997E+02  0.45594000000E+02  0.51100000000E-03 0. -1.
         11   -1    0    0    0    0 -0.00000000000E+00 -0.00000000000E+00 -0.45593999997E+02  0.45594000000E+02  0.51100000000E-03 0.  1.
    9900012    2    1    2    0    0 -0.37200200300E+02 -0.14430750206E+02 -0.78144123581E+01  0.50528849807E+02  0.29999969474E+02 0.  0.
        -12    1    1    2    0    0  0.37200200300E+02  0.14430750206E+02  0.78144123581E+01  0.40659150193E+02  0.00000000000E+00 0.  1.
         11    1    3    3    0    0 -0.97038539666E+01  0.42509415825E+01 -0.81473216386E+01  0.13364659976E+02  0.51100000000E-03 0. -1.
        -11    1    3    3    0    0 -0.19473210048E+02 -0.33689092156E+01  0.16215490823E+01  0.19828890049E+02  0.51100000000E-03 0.  1.
        -12    1    3    3    0    0 -0.80231362852E+01 -0.15312782573E+02 -0.12886398018E+01  0.17335299782E+02  0.00000000000E+00 0.  1.
</event>
<event>
 7    1  0.5019004E-011  0.5052886E+02  0.7816164E-02  0.1300439E+00
        -11   -1    0    0    0    0  0.00000000000E+00  0.00000000000E+00  0.45593999997E+02  0.45594000000E+02  0.51100000000E-03 0. -1.
         11   -1    0    0    0    0 -0.00000000000E+00 -0.00000000000E+00 -0.45593999997E+02  0.45594000000E+02  0.51100000000E-03 0.  1.
    9900012    2    1    2    0    0 -0.36594470844E+02  0.16455765037E+02 -0.65740746800E+01  0.50528856413E+02  0.29999989553E+02 0.  0.
        -12    1    1    2    0    0  0.36594470844E+02 -0.16455765037E+02  0.65740746800E+01  0.40659143587E+02  0.00000000000E+00 0.  1.
         11    1    3    3    0    0 -0.24247340118E+02  0.77658123721E+01  0.34195452781E+01  0.25689192957E+02  0.51100000000E-03 0. -1.
        -11    1    3    3    0    0  0.25278475553E+01 -0.25477297495E+01 -0.37214739734E+01  0.51701362588E+01  0.51100000000E-03 0.  1.
        -12    1    3    3    0    0 -0.14874978282E+02  0.11237682414E+02 -0.62721459847E+01  0.19669527198E+02  0.00000000000E+00 0.  1.
</event>
<event>
 7    1  0.5019004E-011  0.5052884E+02  0.7816164E-02  0.1300439E+00
        -11   -1    0    0    0    0  0.00000000000E+00  0.00000000000E+00  0.45593999997E+02  0.45594000000E+02  0.51100000000E-03 0.  1.
         11   -1    0    0    0    0 -0.00000000000E+00 -0.00000000000E+00 -0.45593999997E+02  0.45594000000E+02  0.51100000000E-03 0. -1.
    9900012    2    1    2    0    0  0.27046930864E+02  0.10863441859E+02 -0.28348136209E+02  0.50528835416E+02  0.29999925730E+02 0.  0.
        -12    1    1    2    0    0 -0.27046930864E+02 -0.10863441859E+02  0.28348136209E+02  0.40659164584E+02  0.00000000000E+00 0.  1.
         11    1    3    3    0    0  0.73230258876E+01  0.18790743536E+02 -0.13068134569E+02  0.24031123406E+02  0.51100000000E-03 0. -1.
        -11    1    3    3    0    0  0.14032192851E+02 -0.45226100659E+01 -0.12410990204E+02  0.19271458588E+02  0.51100000000E-03 0.  1.
         12    1    3    3    0    0  0.56917121255E+01 -0.34046916118E+01 -0.28690114349E+01  0.72262534210E+01  0.00000000000E+00 0. -1.
</event>
<event>
 7    1  0.5648774E-011  0.5052886E+02  0.7816164E-02  0.1300439E+00
        -11   -1    0    0    0    0  0.00000000000E+00  0.00000000000E+00  0.45593999997E+02  0.45594000000E+02  0.51100000000E-03 0.  1.
         11   -1    0    0    0    0 -0.00000000000E+00 -0.00000000000E+00 -0.45593999997E+02  0.45594000000E+02  0.51100000000E-03 0. -1.
    9900012    2    1    2    0    0 -0.38240482834E+02  0.50171307091E+01 -0.12870878219E+02  0.50528860387E+02  0.30000001632E+02 0.  0.
        -12    1    1    2    0    0  0.38240482834E+02 -0.50171307091E+01  0.12870878219E+02  0.40659139613E+02  0.00000000000E+00 0.  1.
         11    1    3    3    0    0 -0.20230909663E+02  0.96083267904E+01 -0.15562069891E+02  0.27272470901E+02  0.51100000000E-03 0. -1.
        -11    1    3    3    0    0  0.93634065660E+00  0.55740455008E+00  0.34406264439E+01  0.36090641786E+01  0.51100000000E-03 0.  1.
         12    1    3    3    0    0 -0.18945913828E+02 -0.51486006313E+01 -0.74943477155E+00  0.19647325307E+02  0.00000000000E+00 0. -1.
</event>
<event>
 7    1  0.5019004E-011  0.5052887E+02  0.7816164E-02  0.1300439E+00
        -11   -1    0    0    0    0  0.00000000000E+00  0.00000000000E+00  0.45593999997E+02  0.45594000000E+02  0.51100000000E-03 0.  1.
         11   -1    0    0    0    0 -0.00000000000E+00 -0.00000000000E+00 -0.45593999997E+02  0.45594000000E+02  0.51100000000E-03 0. -1.
    9900012    2    1    2    0    0 -0.21430957935E+02 -0.27789866345E+02 -0.20532954992E+02  0.50528869781E+02  0.30000030186E+02 0.  0.
        -12    1    1    2    0    0  0.21430957935E+02  0.27789866345E+02  0.20532954992E+02  0.40659130219E+02  0.00000000000E+00 0.  1.
         11    1    3    3    0    0 -0.22759334379E+02 -0.11918764013E+02 -0.12976636216E+02  0.28782587179E+02  0.51100000000E-03 0. -1.
        -11    1    3    3    0    0 -0.35667596374E+01 -0.13165335864E+02 -0.85034743346E+01  0.16073484959E+02  0.51100000000E-03 0.  1.
         12    1    3    3    0    0  0.48951360817E+01 -0.27057664685E+01  0.94715555938E+00  0.56727976426E+01  0.00000000000E+00 0. -1.
</event>
<event>
 7    1  0.5019004E-011  0.5052886E+02  0.7816164E-02  0.1300439E+00
        -11   -1    0    0    0    0  0.00000000000E+00  0.00000000000E+00  0.45593999997E+02  0.45594000000E+02  0.51100000000E-03 0. -1.
         11   -1    0    0    0    0 -0.00000000000E+00 -0.00000000000E+00 -0.45593999997E+02  0.45594000000E+02  0.51100000000E-03 0.  1.
    9900012    2    1    2    0    0 -0.21843384164E+02 -0.20452982084E+01  0.34232284044E+02  0.50528856534E+02  0.29999989921E+02 0.  0.
        -12    1    1    2    0    0  0.21843384164E+02  0.20452982084E+01 -0.34232284044E+02  0.40659143466E+02  0.00000000000E+00 0.  1.
         11    1    3    3    0    0  0.22609679083E+01 -0.25921532093E+01  0.10296098123E+01  0.35904499397E+01  0.51100000000E-03 0.  1.
        -11    1    3    3    0    0 -0.11341035919E+02  0.11608299983E+02  0.17681134774E+02  0.23999880237E+02  0.51100000000E-03 0. -1.
        -12    1    3    3    0    0 -0.12763316153E+02 -0.11061444982E+02  0.15521539458E+02  0.22938526358E+02  0.00000000000E+00 0.  1.
</event>
<event>
 7    1  0.5019004E-011  0.5052886E+02  0.7816164E-02  0.1300439E+00
        -11   -1    0    0    0    0  0.00000000000E+00  0.00000000000E+00  0.45593999997E+02  0.45594000000E+02  0.51100000000E-03 0. -1.
         11   -1    0    0    0    0 -0.00000000000E+00 -0.00000000000E+00 -0.45593999997E+02  0.45594000000E+02  0.51100000000E-03 0.  1.
    9900012    2    1    2    0    0 -0.74189746276E+01  0.23563742413E+02  0.32293569426E+02  0.50528858749E+02  0.29999996654E+02 0.  0.
        -12    1    1    2    0    0  0.74189746276E+01 -0.23563742413E+02 -0.32293569426E+02  0.40659141251E+02  0.00000000000E+00 0.  1.
         11    1    3    3    0    0 -0.24200977843E+01  0.13851968732E+02 -0.50111464120E+00  0.14070715234E+02  0.51100000000E-03 0. -1.
        -11    1    3    3    0    0 -0.57476077949E+01 -0.41888716820E+00  0.11355967761E+02  0.12734538306E+02  0.51100000000E-03 0.  1.
         12    1    3    3    0    0  0.74873095159E+00  0.10130660849E+02  0.21438716306E+02  0.23723605209E+02  0.00000000000E+00 0. -1.
</event>
<event>
 7    1  0.5019004E-011  0.5052887E+02  0.7816164E-02  0.1300439E+00
        -11   -1    0    0    0    0  0.00000000000E+00  0.00000000000E+00  0.45593999997E+02  0.45594000000E+02  0.51100000000E-03 0. -1.
         11   -1    0    0    0    0 -0.00000000000E+00 -0.00000000000E+00 -0.45593999997E+02  0.45594000000E+02  0.51100000000E-03 0.  1.
    9900012    2    1    2    0    0  0.34443983158E+02 -0.19325659688E+02  0.96589594565E+01  0.50528873153E+02  0.30000040437E+02 0.  0.
        -12    1    1    2    0    0 -0.34443983158E+02  0.19325659688E+02 -0.96589594565E+01  0.40659126847E+02  0.00000000000E+00 0.  1.
         11    1    3    3    0    0  0.25786154150E+02 -0.15630122242E+02  0.88873232625E+00  0.30166476634E+02  0.51100000000E-03 0. -1.
        -11    1    3    3    0    0  0.63577322322E+01  0.20353441124E+01  0.11743799040E+02  0.13508523270E+02  0.51100000000E-03 0.  1.
        -12    1    3    3    0    0  0.23000967762E+01 -0.57308815580E+01 -0.29735719093E+01  0.68538732489E+01  0.00000000000E+00 0.  1.
</event>
<event>
 7    1  0.5019004E-011  0.5052885E+02  0.7816164E-02  0.1300439E+00
        -11   -1    0    0    0    0  0.00000000000E+00  0.00000000000E+00  0.45593999997E+02  0.45594000000E+02  0.51100000000E-03 0. -1.
         11   -1    0    0    0    0 -0.00000000000E+00 -0.00000000000E+00 -0.45593999997E+02  0.45594000000E+02  0.51100000000E-03 0.  1.
    9900012    2    1    2    0    0 -0.30630432450E+02  0.24278659583E+02  0.11202204056E+02  0.50528854917E+02  0.29999985004E+02 0.  0.
        -12    1    1    2    0    0  0.30630432450E+02 -0.24278659583E+02 -0.11202204056E+02  0.40659145083E+02  0.00000000000E+00 0.  1.
         11    1    3    3    0    0 -0.12905852529E+02  0.65733692711E+00  0.15939895069E+02  0.20520072524E+02  0.51100000000E-03 0. -1.
        -11    1    3    3    0    0 -0.95089331264E+01  0.12124149274E+02 -0.12821221921E+01  0.15461521348E+02  0.51100000000E-03 0.  1.
         12    1    3    3    0    0 -0.82156467945E+01  0.11497173381E+02 -0.34555688205E+01  0.14547261044E+02  0.00000000000E+00 0. -1.
</event>
<event>
 7    1  0.5019004E-011  0.5052886E+02  0.7816164E-02  0.1300439E+00
        -11   -1    0    0    0    0  0.00000000000E+00  0.00000000000E+00  0.45593999997E+02  0.45594000000E+02  0.51100000000E-03 0. -1.
         11   -1    0    0    0    0 -0.00000000000E+00 -0.00000000000E+00 -0.45593999997E+02  0.45594000000E+02  0.51100000000E-03 0.  1.
    9900012    2    1    2    0    0  0.20324888443E+01  0.13480435436E+02  0.38305514584E+02  0.50528860831E+02  0.30000002981E+02 0.  0.
        -12    1    1    2    0    0 -0.20324888443E+01 -0.13480435436E+02 -0.38305514584E+02  0.40659139169E+02  0.00000000000E+00 0.  1.
         11    1    3    3    0    0  0.12314493466E+02  0.56612738969E+01  0.71373061404E+01  0.15317895112E+02  0.51100000000E-03 0.  1.
        -11    1    3    3    0    0 -0.97381467269E+01  0.28285329104E+01  0.13757554738E+02  0.17091003853E+02  0.51100000000E-03 0. -1.
        -12    1    3    3    0    0 -0.54385789476E+00  0.49906286285E+01  0.17410653706E+02  0.18119961865E+02  0.00000000000E+00 0.  1.
</event>
<event>
 7    1  0.5019004E-011  0.5052886E+02  0.7816164E-02  0.1300439E+00
        -11   -1    0    0    0    0  0.00000000000E+00  0.00000000000E+00  0.45593999997E+02  0.45594000000E+02  0.51100000000E-03 0. -1.
         11   -1    0    0    0    0 -0.00000000000E+00 -0.00000000000E+00 -0.45593999997E+02  0.45594000000E+02  0.51100000000E-03 0.  1.
    9900012    2    1    2    0    0 -0.25127104580E+02 -0.29087202509E+02  0.13256269578E+02  0.50528863050E+02  0.30000009728E+02 0.  0.
        -12    1    1    2    0    0  0.25127104580E+02  0.29087202509E+02 -0.13256269578E+02  0.40659136950E+02  0.00000000000E+00 0.  1.
         11    1    3    3    0    0 -0.23125850759E+02 -0.24941518203E+02  0.10486682486E+02  0.35592903975E+02  0.51100000000E-03 0. -1.
        -11    1    3    3    0    0 -0.24838714800E+01  0.31154841308E+01 -0.35206174998E+01  0.53170110720E+01  0.51100000000E-03 0.  1.
        -12    1    3    3    0    0  0.48261765916E+00 -0.72611684370E+01  0.62902045921E+01  0.96189480031E+01  0.00000000000E+00 0.  1.
</event>
<event>
 7    1  0.5019004E-011  0.5052886E+02  0.7816164E-02  0.1300439E+00
        -11   -1    0    0    0    0  0.00000000000E+00  0.00000000000E+00  0.45593999997E+02  0.45594000000E+02  0.51100000000E-03 0.  1.
         11   -1    0    0    0    0 -0.00000000000E+00 -0.00000000000E+00 -0.45593999997E+02  0.45594000000E+02  0.51100000000E-03 0. -1.
    9900012    2    1    2    0    0 -0.24053701040E+02  0.32727822303E+02 -0.18640278392E+01  0.50528862205E+02  0.30000007159E+02 0.  0.
        -12    1    1    2    0    0  0.24053701040E+02 -0.32727822303E+02  0.18640278392E+01  0.40659137795E+02  0.00000000000E+00 0.  1.
         11    1    3    3    0    0  0.11387151464E+01  0.36258119113E+01  0.11839968721E+01  0.39805819995E+01  0.51100000000E-03 0. -1.
        -11    1    3    3    0    0 -0.12439658026E+02 -0.21020620615E+01 -0.23412956027E+01  0.12831423229E+02  0.51100000000E-03 0.  1.
        -12    1    3    3    0    0 -0.12752758160E+02  0.31204072453E+02 -0.70672910869E+00  0.33716856977E+02  0.00000000000E+00 0.  1.
</event>
<event>
 7    1  0.5019004E-011  0.5052886E+02  0.7816164E-02  0.1300439E+00
        -11   -1    0    0    0    0  0.00000000000E+00  0.00000000000E+00  0.45593999997E+02  0.45594000000E+02  0.51100000000E-03 0. -1.
         11   -1    0    0    0    0 -0.00000000000E+00 -0.00000000000E+00 -0.45593999997E+02  0.45594000000E+02  0.51100000000E-03 0.  1.
    9900012    2    1    2    0    0  0.37206549811E+02  0.46697476928E+00  0.16389639076E+02  0.50528859781E+02  0.29999999791E+02 0.  0.
        -12    1    1    2    0    0 -0.37206549811E+02 -0.46697476928E+00 -0.16389639076E+02  0.40659140219E+02  0.00000000000E+00 0.  1.
         11    1    3    3    0    0  0.85217596603E+01 -0.10549475704E+02  0.69929836157E+01  0.15258232055E+02  0.51100000000E-03 0.  1.
        -11    1    3    3    0    0  0.23070832676E+02  0.63442582998E+01  0.12885559596E+02  0.27176287092E+02  0.51100000000E-03 0. -1.
        -12    1    3    3    0    0  0.56139574752E+01  0.46721921737E+01 -0.34889041354E+01  0.80943406345E+01  0.00000000000E+00 0.  1.
</event>
<event>
 7    1  0.5019004E-011  0.5052884E+02  0.7816164E-02  0.1300439E+00
        -11   -1    0    0    0    0  0.00000000000E+00  0.00000000000E+00  0.45593999997E+02  0.45594000000E+02  0.51100000000E-03 0.  1.
         11   -1    0    0    0    0 -0.00000000000E+00 -0.00000000000E+00 -0.45593999997E+02  0.45594000000E+02  0.51100000000E-03 0. -1.
    9900012    2    1    2    0    0 -0.10845558702E+01 -0.28746100526E+02 -0.28734168269E+02  0.50528843799E+02  0.29999951211E+02 0.  0.
        -12    1    1    2    0    0  0.10845558702E+01  0.28746100526E+02  0.28734168269E+02  0.40659156201E+02  0.00000000000E+00 0.  1.
         11    1    3    3    0    0  0.10447402522E+02 -0.11942729508E+02 -0.21421919654E+01  0.16011433235E+02  0.51100000000E-03 0. -1.
        -11    1    3    3    0    0 -0.11871883355E+02 -0.12568965990E+02 -0.18149410769E+02  0.25066344607E+02  0.51100000000E-03 0.  1.
         12    1    3    3    0    0  0.33992496253E+00 -0.42344050277E+01 -0.84425655349E+01  0.94510659573E+01  0.00000000000E+00 0. -1.
</event>
<event>
 7    1  0.5019004E-011  0.5052886E+02  0.7816164E-02  0.1300439E+00
        -11   -1    0    0    0    0  0.00000000000E+00  0.00000000000E+00  0.45593999997E+02  0.45594000000E+02  0.51100000000E-03 0.  1.
         11   -1    0    0    0    0 -0.00000000000E+00 -0.00000000000E+00 -0.45593999997E+02  0.45594000000E+02  0.51100000000E-03 0. -1.
    9900012    2    1    2    0    0  0.30250888525E+02 -0.20025285949E+02 -0.18358582115E+02  0.50528857472E+02  0.29999992771E+02 0.  0.
        -12    1    1    2    0    0 -0.30250888525E+02  0.20025285949E+02  0.18358582115E+02  0.40659142528E+02  0.00000000000E+00 0.  1.
         11    1    3    3    0    0  0.45394963766E-01  0.30810888860E+01 -0.39122739123E+01  0.49800659486E+01  0.51100000000E-03 0.  1.
        -11    1    3    3    0    0  0.29054785109E+02 -0.14638251247E+02 -0.51807482792E+01  0.32943877888E+02  0.51100000000E-03 0. -1.
         12    1    3    3    0    0  0.11507084516E+01 -0.84681235880E+01 -0.92655599237E+01  0.12604913635E+02  0.00000000000E+00 0. -1.
</event>
<event>
 7    1  0.5019004E-011  0.5052886E+02  0.7816164E-02  0.1300439E+00
        -11   -1    0    0    0    0  0.00000000000E+00  0.00000000000E+00  0.45593999997E+02  0.45594000000E+02  0.51100000000E-03 0.  1.
         11   -1    0    0    0    0 -0.00000000000E+00 -0.00000000000E+00 -0.45593999997E+02  0.45594000000E+02  0.51100000000E-03 0. -1.
    9900012    2    1    2    0    0  0.24251731901E+02 -0.14060740650E+02 -0.29450202881E+02  0.50528863541E+02  0.30000011220E+02 0.  0.
        -12    1    1    2    0    0 -0.24251731901E+02  0.14060740650E+02  0.29450202881E+02  0.40659136459E+02  0.00000000000E+00 0.  1.
         11    1    3    3    0    0  0.92803881719E+01  0.35312004014E+01 -0.20302550645E+02  0.22600631493E+02  0.51100000000E-03 0.  1.
        -11    1    3    3    0    0  0.47903254128E+01 -0.14124254623E+02 -0.20807593549E+01  0.15058929111E+02  0.51100000000E-03 0. -1.
         12    1    3    3    0    0  0.10181018316E+02 -0.34676864294E+01 -0.70668928804E+01  0.12869302938E+02  0.00000000000E+00 0. -1.
</event>
<event>
 7    1  0.5019004E-011  0.5052886E+02  0.7816164E-02  0.1300439E+00
        -11   -1    0    0    0    0  0.00000000000E+00  0.00000000000E+00  0.45593999997E+02  0.45594000000E+02  0.51100000000E-03 0. -1.
         11   -1    0    0    0    0 -0.00000000000E+00 -0.00000000000E+00 -0.45593999997E+02  0.45594000000E+02  0.51100000000E-03 0.  1.
    9900012    2    1    2    0    0  0.97215789379E+01  0.17653302720E+02  0.35313134983E+02  0.50528859622E+02  0.29999999308E+02 0.  0.
        -12    1    1    2    0    0 -0.97215789379E+01 -0.17653302720E+02 -0.35313134983E+02  0.40659140378E+02  0.00000000000E+00 0.  1.
         11    1    3    3    0    0  0.33855494674E+00  0.23289778853E+02  0.27464471463E+02  0.36011465000E+02  0.51100000000E-03 0. -1.
        -11    1    3    3    0    0  0.49982760692E+01 -0.59186623216E+01  0.57531345949E+01  0.96494499983E+01  0.51100000000E-03 0.  1.
         12    1    3    3    0    0  0.43847479220E+01  0.28218618861E+00  0.20955289244E+01  0.48679446235E+01  0.00000000000E+00 0. -1.
</event>
<event>
 7    1  0.5019004E-011  0.5052888E+02  0.7816164E-02  0.1300439E+00
        -11   -1    0    0    0    0  0.00000000000E+00  0.00000000000E+00  0.45593999997E+02  0.45594000000E+02  0.51100000000E-03 0.  1.
         11   -1    0    0    0    0 -0.00000000000E+00 -0.00000000000E+00 -0.45593999997E+02  0.45594000000E+02  0.51100000000E-03 0. -1.
    9900012    2    1    2    0    0 -0.21338577522E+02 -0.34410468951E+02 -0.37079544952E+01  0.50528878138E+02  0.30000055588E+02 0.  0.
        -12    1    1    2    0    0  0.21338577522E+02  0.34410468951E+02  0.37079544952E+01  0.40659121862E+02  0.00000000000E+00 0.  1.
         11    1    3    3    0    0 -0.14739349905E+02 -0.36420241712E+01  0.26478993795E+01  0.15411818422E+02  0.51100000000E-03 0.  1.
        -11    1    3    3    0    0 -0.13770851498E+01 -0.19849818674E+02  0.25917159853E+01  0.20065608810E+02  0.51100000000E-03 0. -1.
        -12    1    3    3    0    0 -0.52221424670E+01 -0.10918626106E+02 -0.89475698600E+01  0.15051450906E+02  0.00000000000E+00 0.  1.
</event>
<event>
 7    1  0.5019004E-011  0.5052887E+02  0.7816164E-02  0.1300439E+00
        -11   -1    0    0    0    0  0.00000000000E+00  0.00000000000E+00  0.45593999997E+02  0.45594000000E+02  0.51100000000E-03 0.  1.
         11   -1    0    0    0    0 -0.00000000000E+00 -0.00000000000E+00 -0.45593999997E+02  0.45594000000E+02  0.51100000000E-03 0. -1.
    9900012    2    1    2    0    0 -0.96542429118E+01 -0.48092405322E+01 -0.39202447165E+02  0.50528867392E+02  0.30000022925E+02 0.  0.
        -12    1    1    2    0    0  0.96542429118E+01  0.48092405322E+01  0.39202447165E+02  0.40659132608E+02  0.00000000000E+00 0.  1.
         11    1    3    3    0    0  0.50355374327E+01 -0.63907024196E+01 -0.41505755630E+01  0.91337282869E+01  0.51100000000E-03 0. -1.
        -11    1    3    3    0    0 -0.16408981459E+02  0.40073957517E+01 -0.20595821793E+02  0.26636474407E+02  0.51100000000E-03 0.  1.
        -12    1    3    3    0    0  0.17192011147E+01 -0.24259338643E+01 -0.14456049809E+02  0.14758664698E+02  0.00000000000E+00 0.  1.
</event>
<event>
 7    1  0.5019004E-011  0.5052883E+02  0.7816164E-02  0.1300439E+00
        -11   -1    0    0    0    0  0.00000000000E+00  0.00000000000E+00  0.45593999997E+02  0.45594000000E+02  0.51100000000E-03 0. -1.
         11   -1    0    0    0    0 -0.00000000000E+00 -0.00000000000E+00 -0.45593999997E+02  0.45594000000E+02  0.51100000000E-03 0.  1.
    9900012    2    1    2    0    0  0.53590531355E+01  0.14199974116E+02  0.37720141537E+02  0.50528833838E+02  0.29999920934E+02 0.  0.
        -12    1    1    2    0    0 -0.53590531355E+01 -0.14199974116E+02 -0.37720141537E+02  0.40659166162E+02  0.00000000000E+00 0.  1.
         11    1    3    3    0    0  0.11880812863E+02  0.32215308409E+01  0.21191342607E+02  0.24507243358E+02  0.51100000000E-03 0. -1.
        -11    1    3    3    0    0 -0.57981417910E+01  0.14627967964E+02  0.15662339654E+02  0.22201458932E+02  0.51100000000E-03 0.  1.
        -12    1    3    3    0    0 -0.72361793620E+00 -0.36495246890E+01  0.86645927597E+00  0.38201315488E+01  0.00000000000E+00 0.  1.
</event>
<event>
 7    1  0.5019004E-011  0.5052886E+02  0.7816164E-02  0.1300439E+00
        -11   -1    0    0    0    0  0.00000000000E+00  0.00000000000E+00  0.45593999997E+02  0.45594000000E+02  0.51100000000E-03 0.  1.
         11   -1    0    0    0    0 -0.00000000000E+00 -0.00000000000E+00 -0.45593999997E+02  0.45594000000E+02  0.51100000000E-03 0. -1.
    9900012    2    1    2    0    0  0.15435987290E+02 -0.90029193122E+01 -0.36521824292E+02  0.50528857002E+02  0.29999991342E+02 0.  0.
        -12    1    1    2    0    0 -0.15435987290E+02  0.90029193122E+01  0.36521824292E+02  0.40659142998E+02  0.00000000000E+00 0.  1.
         11    1    3    3    0    0  0.10918399982E+02  0.68672052038E+01 -0.18590905984E+02  0.22627234719E+02  0.51100000000E-03 0. -1.
        -11    1    3    3    0    0  0.90597485113E+01 -0.12612960833E+02 -0.11169644238E+02  0.19129212653E+02  0.51100000000E-03 0.  1.
         12    1    3    3    0    0 -0.45421612034E+01 -0.32571636829E+01 -0.67612740697E+01  0.87724096290E+01  0.00000000000E+00 0. -1.
</event>
<event>
 7    1  0.5019004E-011  0.5052886E+02  0.7816164E-02  0.1300439E+00
        -11   -1    0    0    0    0  0.00000000000E+00  0.00000000000E+00  0.45593999997E+02  0.45594000000E+02  0.51100000000E-03 0.  1.
         11   -1    0    0    0    0 -0.00000000000E+00 -0.00000000000E+00 -0.45593999997E+02  0.45594000000E+02  0.51100000000E-03 0. -1.
    9900012    2    1    2    0    0 -0.93163972684E+01 -0.12988514751E+02 -0.37385408980E+02  0.50528861075E+02  0.30000003724E+02 0.  0.
        -12    1    1    2    0    0  0.93163972684E+01  0.12988514751E+02  0.37385408980E+02  0.40659138925E+02  0.00000000000E+00 0.  1.
         11    1    3    3    0    0 -0.14164272827E+02 -0.24567612482E+01 -0.32753921639E+02  0.35769843214E+02  0.51100000000E-03 0. -1.
        -11    1    3    3    0    0  0.37511885847E+01 -0.81042755363E+01 -0.68799687951E+01  0.11273183607E+02  0.51100000000E-03 0.  1.
         12    1    3    3    0    0  0.10966869740E+01 -0.24274779668E+01  0.22484814536E+01  0.34858342539E+01  0.00000000000E+00 0. -1.
</event>
<event>
 7    1  0.5019004E-011  0.5052891E+02  0.7816164E-02  0.1300439E+00
        -11   -1    0    0    0    0  0.00000000000E+00  0.00000000000E+00  0.45593999997E+02  0.45594000000E+02  0.51100000000E-03 0.  1.
         11   -1    0    0    0    0 -0.00000000000E+00 -0.00000000000E+00 -0.45593999997E+02  0.45594000000E+02  0.51100000000E-03 0. -1.
    9900012    2    1    2    0    0  0.37911716898E+02  0.45262456682E+01  0.13977716281E+02  0.50528908391E+02  0.30000147546E+02 0.  0.
        -12    1    1    2    0    0 -0.37911716898E+02 -0.45262456682E+01 -0.13977716281E+02  0.40659091609E+02  0.00000000000E+00 0.  1.
         11    1    3    3    0    0  0.19093948655E+02 -0.74761733515E+01 -0.47136794625E+01  0.21040219047E+02  0.51100000000E-03 0. -1.
        -11    1    3    3    0    0  0.15748313694E+02  0.11354331311E+02  0.14396216073E+02  0.24169841977E+02  0.51100000000E-03 0.  1.
        -12    1    3    3    0    0  0.30694545496E+01  0.64808770846E+00  0.42951796708E+01  0.53188473671E+01  0.00000000000E+00 0.  1.
</event>
<event>
 7    1  0.5019004E-011  0.5052885E+02  0.7816164E-02  0.1300439E+00
        -11   -1    0    0    0    0  0.00000000000E+00  0.00000000000E+00  0.45593999997E+02  0.45594000000E+02  0.51100000000E-03 0.  1.
         11   -1    0    0    0    0 -0.00000000000E+00 -0.00000000000E+00 -0.45593999997E+02  0.45594000000E+02  0.51100000000E-03 0. -1.
    9900012    2    1    2    0    0 -0.39956637576E+02  0.52185302974E+01  0.54221981893E+01  0.50528853697E+02  0.29999981299E+02 0.  0.
        -12    1    1    2    0    0  0.39956637576E+02 -0.52185302974E+01 -0.54221981893E+01  0.40659146303E+02  0.00000000000E+00 0.  1.
         11    1    3    3    0    0 -0.66122630923E+01 -0.11731915854E+01 -0.55846563831E+01  0.87342308692E+01  0.51100000000E-03 0. -1.
        -11    1    3    3    0    0 -0.10487137817E+02 -0.52016535422E+01  0.11147591264E+02  0.16164963669E+02  0.51100000000E-03 0.  1.
        -12    1    3    3    0    0 -0.22857236667E+02  0.11593375425E+02 -0.14073669203E+00  0.25629659159E+02  0.00000000000E+00 0.  1.
</event>
<event>
 7    1  0.5019004E-011  0.5052884E+02  0.7816164E-02  0.1300439E+00
        -11   -1    0    0    0    0  0.00000000000E+00  0.00000000000E+00  0.45593999997E+02  0.45594000000E+02  0.51100000000E-03 0. -1.
         11   -1    0    0    0    0 -0.00000000000E+00 -0.00000000000E+00 -0.45593999997E+02  0.45594000000E+02  0.51100000000E-03 0.  1.
    9900012    2    1    2    0    0 -0.15379217415E+02  0.34583245295E+02  0.14854150045E+02  0.50528844118E+02  0.29999952182E+02 0.  0.
        -12    1    1    2    0    0  0.15379217415E+02 -0.34583245295E+02 -0.14854150045E+02  0.40659155882E+02  0.00000000000E+00 0.  1.
         11    1    3    3    0    0 -0.25927974284E+01 -0.25164719162E+01  0.65530142556E+01  0.74831293925E+01  0.51100000000E-03 0. -1.
        -11    1    3    3    0    0 -0.88412484123E+01  0.15108247924E+02 -0.33883719838E+01  0.17829971783E+02  0.51100000000E-03 0.  1.
         12    1    3    3    0    0 -0.39451715746E+01  0.21991469287E+02  0.11689507773E+02  0.25215742942E+02  0.00000000000E+00 0. -1.
</event>
<event>
 7    1  0.5019004E-011  0.5052885E+02  0.7816164E-02  0.1300439E+00
        -11   -1    0    0    0    0  0.00000000000E+00  0.00000000000E+00  0.45593999997E+02  0.45594000000E+02  0.51100000000E-03 0. -1.
         11   -1    0    0    0    0 -0.00000000000E+00 -0.00000000000E+00 -0.45593999997E+02  0.45594000000E+02  0.51100000000E-03 0.  1.
    9900012    2    1    2    0    0 -0.38757955363E+02  0.10123669078E+02 -0.69641014031E+01  0.50528849887E+02  0.29999969717E+02 0.  0.
        -12    1    1    2    0    0  0.38757955363E+02 -0.10123669078E+02  0.69641014031E+01  0.40659150113E+02  0.00000000000E+00 0.  1.
         11    1    3    3    0    0 -0.15420364261E+02  0.97331306334E+01 -0.42168580665E+01  0.18716392763E+02  0.51100000000E-03 0. -1.
        -11    1    3    3    0    0 -0.59017584646E+00 -0.18982505988E+01 -0.80929606806E+01  0.83335272067E+01  0.51100000000E-03 0.  1.
        -12    1    3    3    0    0 -0.22747415256E+02  0.22887890431E+01  0.53457173440E+01  0.23478929917E+02  0.00000000000E+00 0.  1.
</event>
<event>
 7    1  0.5019004E-011  0.5052886E+02  0.7816164E-02  0.1300439E+00
        -11   -1    0    0    0    0  0.00000000000E+00  0.00000000000E+00  0.45593999997E+02  0.45594000000E+02  0.51100000000E-03 0.  1.
         11   -1    0    0    0    0 -0.00000000000E+00 -0.00000000000E+00 -0.45593999997E+02  0.45594000000E+02  0.51100000000E-03 0. -1.
    9900012    2    1    2    0    0 -0.26469837933E+02  0.19388872953E+02 -0.24012181760E+02  0.50528860960E+02  0.30000003375E+02 0.  0.
        -12    1    1    2    0    0  0.26469837933E+02 -0.19388872953E+02  0.24012181760E+02  0.40659139040E+02  0.00000000000E+00 0.  1.
         11    1    3    3    0    0 -0.14832627687E+02 -0.42298419492E+01 -0.14215571694E+02  0.20975721343E+02  0.51100000000E-03 0. -1.
        -11    1    3    3    0    0 -0.85256363536E+01  0.11980529875E+02 -0.11996892059E+01  0.14753264919E+02  0.51100000000E-03 0.  1.
         12    1    3    3    0    0 -0.31115738926E+01  0.11638185027E+02 -0.85969208601E+01  0.14799874699E+02  0.00000000000E+00 0. -1.
</event>
<event>
 7    1  0.5019004E-011  0.5052884E+02  0.7816164E-02  0.1300439E+00
        -11   -1    0    0    0    0  0.00000000000E+00  0.00000000000E+00  0.45593999997E+02  0.45594000000E+02  0.51100000000E-03 0.  1.
         11   -1    0    0    0    0 -0.00000000000E+00 -0.00000000000E+00 -0.45593999997E+02  0.45594000000E+02  0.51100000000E-03 0. -1.
    9900012    2    1    2    0    0  0.13007218598E+02 -0.26303449049E+02 -0.28144415161E+02  0.50528840242E+02  0.29999940399E+02 0.  0.
        -12    1    1    2    0    0 -0.13007218598E+02  0.26303449049E+02  0.28144415161E+02  0.40659159758E+02  0.00000000000E+00 0.  1.
         11    1    3    3    0    0  0.92600877030E+01 -0.21695554121E+02 -0.14391602247E+02  0.27632671032E+02  0.51100000000E-03 0. -1.
        -11    1    3    3    0    0  0.55524491577E+01  0.45041914402E+01 -0.11526123683E+01  0.72419574503E+01  0.51100000000E-03 0.  1.
         12    1    3    3    0    0 -0.18053182631E+01 -0.91120863676E+01 -0.12600200546E+02  0.15654211759E+02  0.00000000000E+00 0. -1.
</event>
<event>
 7    1  0.5019004E-011  0.5052884E+02  0.7816164E-02  0.1300439E+00
        -11   -1    0    0    0    0  0.00000000000E+00  0.00000000000E+00  0.45593999997E+02  0.45594000000E+02  0.51100000000E-03 0.  1.
         11   -1    0    0    0    0 -0.00000000000E+00 -0.00000000000E+00 -0.45593999997E+02  0.45594000000E+02  0.51100000000E-03 0. -1.
    9900012    2    1    2    0    0  0.19186441990E+02 -0.35683124382E+02  0.34295783859E+01  0.50528844453E+02  0.29999953200E+02 0.  0.
        -12    1    1    2    0    0 -0.19186441990E+02  0.35683124382E+02 -0.34295783859E+01  0.40659155547E+02  0.00000000000E+00 0.  1.
         11    1    3    3    0    0  0.20665663045E+02 -0.26533749985E+02 -0.53879577319E+01  0.34060822159E+02  0.51100000000E-03 0. -1.
        -11    1    3    3    0    0 -0.70472538363E+00 -0.87445826807E+01  0.11027531993E+02  0.14091516109E+02  0.51100000000E-03 0.  1.
        -12    1    3    3    0    0 -0.77449567151E+00 -0.40479171583E+00 -0.22099958757E+01  0.23765061853E+01  0.00000000000E+00 0.  1.
</event>
<event>
 7    1  0.5019004E-011  0.5052886E+02  0.7816164E-02  0.1300439E+00
        -11   -1    0    0    0    0  0.00000000000E+00  0.00000000000E+00  0.45593999997E+02  0.45594000000E+02  0.51100000000E-03 0.  1.
         11   -1    0    0    0    0 -0.00000000000E+00 -0.00000000000E+00 -0.45593999997E+02  0.45594000000E+02  0.51100000000E-03 0. -1.
    9900012    2    1    2    0    0 -0.20887655801E+02 -0.28313303692E+02  0.20377151996E+02  0.50528860139E+02  0.30000000877E+02 0.  0.
        -12    1    1    2    0    0  0.20887655801E+02  0.28313303692E+02 -0.20377151996E+02  0.40659139861E+02  0.00000000000E+00 0.  1.
         11    1    3    3    0    0 -0.25167467961E+02 -0.11953990529E+02  0.72637700783E+01  0.28793431354E+02  0.51100000000E-03 0. -1.
        -11    1    3    3    0    0 -0.48742332740E+00 -0.48397143601E+01  0.38553899853E+01  0.62068066498E+01  0.51100000000E-03 0.  1.
         12    1    3    3    0    0  0.47672354878E+01 -0.11519598803E+02  0.92579919326E+01  0.15528622135E+02  0.00000000000E+00 0. -1.
</event>
<event>
 7    1  0.5019004E-011  0.5052886E+02  0.7816164E-02  0.1300439E+00
        -11   -1    0    0    0    0  0.00000000000E+00  0.00000000000E+00  0.45593999997E+02  0.45594000000E+02  0.51100000000E-03 0.  1.
         11   -1    0    0    0    0 -0.00000000000E+00 -0.00000000000E+00 -0.45593999997E+02  0.45594000000E+02  0.51100000000E-03 0. -1.
    9900012    2    1    2    0    0 -0.63711262585E+00  0.95599423677E+01 -0.39514136459E+02  0.50528863380E+02  0.30000010731E+02 0.  0.
        -12    1    1    2    0    0  0.63711262585E+00 -0.95599423677E+01  0.39514136459E+02  0.40659136620E+02  0.00000000000E+00 0.  1.
         11    1    3    3    0    0 -0.64268601926E+01  0.14958812844E+02 -0.31893761322E+02  0.35808974087E+02  0.51100000000E-03 0. -1.
        -11    1    3    3    0    0 -0.92419003204E+00 -0.91758199186E+00  0.18586801453E+01  0.22695321260E+01  0.51100000000E-03 0.  1.
         12    1    3    3    0    0  0.67139375988E+01 -0.44812884842E+01 -0.94790552824E+01  0.12450357168E+02  0.00000000000E+00 0. -1.
</event>
<event>
 7    1  0.5019004E-011  0.5052884E+02  0.7816164E-02  0.1300439E+00
        -11   -1    0    0    0    0  0.00000000000E+00  0.00000000000E+00  0.45593999997E+02  0.45594000000E+02  0.51100000000E-03 0.  1.
         11   -1    0    0    0    0 -0.00000000000E+00 -0.00000000000E+00 -0.45593999997E+02  0.45594000000E+02  0.51100000000E-03 0. -1.
    9900012    2    1    2    0    0 -0.40165903145E+01  0.34779731463E+02 -0.20673756594E+02  0.50528844449E+02  0.29999953187E+02 0.  0.
        -12    1    1    2    0    0  0.40165903145E+01 -0.34779731463E+02  0.20673756594E+02  0.40659155551E+02  0.00000000000E+00 0.  1.
         11    1    3    3    0    0 -0.66196382718E+01  0.26956077713E+01 -0.51821818994E+01  0.88284155774E+01  0.51100000000E-03 0. -1.
        -11    1    3    3    0    0  0.71439825675E+01  0.25675937423E+02 -0.19364463212E+02  0.32943477127E+02  0.51100000000E-03 0.  1.
        -12    1    3    3    0    0 -0.45409346102E+01  0.64081862685E+01  0.38728885173E+01  0.87569517444E+01  0.00000000000E+00 0.  1.
</event>
<event>
 7    1  0.5019004E-011  0.5052886E+02  0.7816164E-02  0.1300439E+00
        -11   -1    0    0    0    0  0.00000000000E+00  0.00000000000E+00  0.45593999997E+02  0.45594000000E+02  0.51100000000E-03 0. -1.
         11   -1    0    0    0    0 -0.00000000000E+00 -0.00000000000E+00 -0.45593999997E+02  0.45594000000E+02  0.51100000000E-03 0.  1.
    9900012    2    1    2    0    0  0.83435484925E+01  0.14662186338E+02  0.36994204221E+02  0.50528860122E+02  0.30000000828E+02 0.  0.
        -12    1    1    2    0    0 -0.83435484925E+01 -0.14662186338E+02 -0.36994204221E+02  0.40659139878E+02  0.00000000000E+00 0.  1.
         11    1    3    3    0    0  0.91136192783E+01  0.91764466800E+00  0.18178625216E+02  0.20355897010E+02  0.51100000000E-03 0. -1.
        -11    1    3    3    0    0 -0.86880011564E+01  0.40340140227E+01  0.30873128340E+01  0.10064101253E+02  0.51100000000E-03 0.  1.
        -12    1    3    3    0    0  0.79179303706E+01  0.97105276476E+01  0.15728266170E+02  0.20108861859E+02  0.00000000000E+00 0.  1.
</event>
<event>
 7    1  0.5019004E-011  0.5052894E+02  0.7816164E-02  0.1300438E+00
        -11   -1    0    0    0    0  0.00000000000E+00  0.00000000000E+00  0.45593999997E+02  0.45594000000E+02  0.51100000000E-03 0.  1.
         11   -1    0    0    0    0 -0.00000000000E+00 -0.00000000000E+00 -0.45593999997E+02  0.45594000000E+02  0.51100000000E-03 0. -1.
    9900012    2    1    2    0    0 -0.39073974359E+02 -0.79384149679E+01 -0.79602070601E+01  0.50528944418E+02  0.30000257051E+02 0.  0.
        -12    1    1    2    0    0  0.39073974359E+02  0.79384149679E+01  0.79602070601E+01  0.40659055582E+02  0.00000000000E+00 0.  1.
         11    1    3    3    0    0 -0.65751694072E+01 -0.61113094978E+00 -0.61404166334E+01  0.90172640232E+01  0.51100000000E-03 0. -1.
        -11    1    3    3    0    0 -0.25588394455E+02 -0.16142803026E+02 -0.18351671265E+01  0.30310457914E+02  0.51100000000E-03 0.  1.
        -12    1    3    3    0    0 -0.69104104967E+01  0.88155190079E+01  0.15376699800E-01  0.11201222480E+02  0.00000000000E+00 0.  1.
</event>
<event>
 7    1  0.5019004E-011  0.5052886E+02  0.7816164E-02  0.1300439E+00
        -11   -1    0    0    0    0  0.00000000000E+00  0.00000000000E+00  0.45593999997E+02  0.45594000000E+02  0.51100000000E-03 0. -1.
         11   -1    0    0    0    0 -0.00000000000E+00 -0.00000000000E+00 -0.45593999997E+02  0.45594000000E+02  0.51100000000E-03 0.  1.
    9900012    2    1    2    0    0  0.27508178465E+02 -0.16040945179E+02  0.25281492050E+02  0.50528860253E+02  0.30000001226E+02 0.  0.
        -12    1    1    2    0    0 -0.27508178465E+02  0.16040945179E+02 -0.25281492050E+02  0.40659139747E+02  0.00000000000E+00 0.  1.
         11    1    3    3    0    0  0.15040597436E+02 -0.20466983531E+02  0.18371902991E+02  0.31347149885E+02  0.51100000000E-03 0. -1.
        -11    1    3    3    0    0  0.48546743766E+01  0.50409221865E+01 -0.21603159483E+01  0.73243242044E+01  0.51100000000E-03 0.  1.
         12    1    3    3    0    0  0.76129066519E+01 -0.61488383445E+00  0.90699050066E+01  0.11857386164E+02  0.00000000000E+00 0. -1.
</event>
<event>
 7    1  0.5019004E-011  0.5052889E+02  0.7816164E-02  0.1300439E+00
        -11   -1    0    0    0    0  0.00000000000E+00  0.00000000000E+00  0.45593999997E+02  0.45594000000E+02  0.51100000000E-03 0.  1.
         11   -1    0    0    0    0 -0.00000000000E+00 -0.00000000000E+00 -0.45593999997E+02  0.45594000000E+02  0.51100000000E-03 0. -1.
    9900012    2    1    2    0    0 -0.35457572001E+02  0.64244822066E+01 -0.18832151744E+02  0.50528888805E+02  0.30000088011E+02 0.  0.
        -12    1    1    2    0    0  0.35457572001E+02 -0.64244822066E+01  0.18832151744E+02  0.40659111195E+02  0.00000000000E+00 0.  1.
         11    1    3    3    0    0 -0.10467979714E+02 -0.45994046507E+01 -0.17932262876E+02  0.21267326455E+02  0.51100000000E-03 0. -1.
        -11    1    3    3    0    0 -0.18770055179E+02  0.10918527318E+02 -0.43533159535E+01  0.22146795937E+02  0.51100000000E-03 0.  1.
         12    1    3    3    0    0 -0.62195371082E+01  0.10535953948E+00  0.34534270855E+01  0.71147664127E+01  0.00000000000E+00 0. -1.
</event>
<event>
 7    1  0.5019004E-011  0.5052886E+02  0.7816164E-02  0.1300439E+00
        -11   -1    0    0    0    0  0.00000000000E+00  0.00000000000E+00  0.45593999997E+02  0.45594000000E+02  0.51100000000E-03 0.  1.
         11   -1    0    0    0    0 -0.00000000000E+00 -0.00000000000E+00 -0.45593999997E+02  0.45594000000E+02  0.51100000000E-03 0. -1.
    9900012    2    1    2    0    0  0.21021915621E+02 -0.56558173234E+01  0.34340300531E+02  0.50528862694E+02  0.30000008643E+02 0.  0.
        -12    1    1    2    0    0 -0.21021915621E+02  0.56558173234E+01 -0.34340300531E+02  0.40659137306E+02  0.00000000000E+00 0.  1.
         11    1    3    3    0    0  0.15238883056E+02 -0.12370071399E+02  0.10343747250E+02  0.22186377141E+02  0.51100000000E-03 0. -1.
        -11    1    3    3    0    0  0.81636156052E+01  0.61523690428E+01  0.23783442330E+02  0.25887224531E+02  0.51100000000E-03 0.  1.
         12    1    3    3    0    0 -0.23805830408E+01  0.56188503269E+00  0.21311095051E+00  0.24552610210E+01  0.00000000000E+00 0. -1.
</event>
<event>
 7    1  0.5019004E-011  0.5052886E+02  0.7816164E-02  0.1300439E+00
        -11   -1    0    0    0    0  0.00000000000E+00  0.00000000000E+00  0.45593999997E+02  0.45594000000E+02  0.51100000000E-03 0.  1.
         11   -1    0    0    0    0 -0.00000000000E+00 -0.00000000000E+00 -0.45593999997E+02  0.45594000000E+02  0.51100000000E-03 0. -1.
    9900012    2    1    2    0    0 -0.27688935737E+02  0.29075005241E+02 -0.64134527837E+01  0.50528862422E+02  0.30000007817E+02 0.  0.
        -12    1    1    2    0    0  0.27688935737E+02 -0.29075005241E+02  0.64134527837E+01  0.40659137578E+02  0.00000000000E+00 0.  1.
         11    1    3    3    0    0 -0.24671433006E+02  0.19459640174E+02 -0.44552481739E+01  0.31736515858E+02  0.51100000000E-03 0. -1.
        -11    1    3    3    0    0  0.40993526964E+01  0.66344365449E+01 -0.62220425041E+01  0.99766855208E+01  0.51100000000E-03 0.  1.
        -12    1    3    3    0    0 -0.71168554280E+01  0.29809285216E+01  0.42638378943E+01  0.88156610429E+01  0.00000000000E+00 0.  1.
</event>
<event>
 7    1  0.5019004E-011  0.5052885E+02  0.7816164E-02  0.1300439E+00
        -11   -1    0    0    0    0  0.00000000000E+00  0.00000000000E+00  0.45593999997E+02  0.45594000000E+02  0.51100000000E-03 0.  1.
         11   -1    0    0    0    0 -0.00000000000E+00 -0.00000000000E+00 -0.45593999997E+02  0.45594000000E+02  0.51100000000E-03 0. -1.
    9900012    2    1    2    0    0  0.33103255004E+02 -0.24225643781E+01  0.23483440898E+02  0.50528852119E+02  0.29999976500E+02 0.  0.
        -12    1    1    2    0    0 -0.33103255004E+02  0.24225643781E+01 -0.23483440898E+02  0.40659147881E+02  0.00000000000E+00 0.  1.
         11    1    3    3    0    0  0.18259742171E+02  0.91531532831E+01  0.64981862683E+01  0.21434197541E+02  0.51100000000E-03 0. -1.
        -11    1    3    3    0    0  0.17415594718E+02 -0.10688602290E+02  0.12830192706E+02  0.24128054282E+02  0.51100000000E-03 0.  1.
         12    1    3    3    0    0 -0.25720818858E+01 -0.88711537101E+00  0.41550619233E+01  0.49666002955E+01  0.00000000000E+00 0. -1.
</event>
<event>
 7    1  0.5019004E-011  0.5052886E+02  0.7816164E-02  0.1300439E+00
        -11   -1    0    0    0    0  0.00000000000E+00  0.00000000000E+00  0.45593999997E+02  0.45594000000E+02  0.51100000000E-03 0.  1.
         11   -1    0    0    0    0 -0.00000000000E+00 -0.00000000000E+00 -0.45593999997E+02  0.45594000000E+02  0.51100000000E-03 0. -1.
    9900012    2    1    2    0    0 -0.30115056820E+02  0.27848812899E+01 -0.27175232408E+02  0.50528862435E+02  0.30000007858E+02 0.  0.
        -12    1    1    2    0    0  0.30115056820E+02 -0.27848812899E+01  0.27175232408E+02  0.40659137565E+02  0.00000000000E+00 0.  1.
         11    1    3    3    0    0 -0.25035060622E+02  0.11476485347E+02 -0.13394736824E+02  0.30624874712E+02  0.51100000000E-03 0. -1.
        -11    1    3    3    0    0  0.21841687427E+01 -0.39895227925E+01 -0.88356530792E+01  0.99375877760E+01  0.51100000000E-03 0.  1.
         12    1    3    3    0    0 -0.72641649406E+01 -0.47020812651E+01 -0.49448425049E+01  0.99663999471E+01  0.00000000000E+00 0. -1.
</event>
<event>
 7    1  0.5019004E-011  0.5052886E+02  0.7816164E-02  0.1300439E+00
        -11   -1    0    0    0    0  0.00000000000E+00  0.00000000000E+00  0.45593999997E+02  0.45594000000E+02  0.51100000000E-03 0. -1.
         11   -1    0    0    0    0 -0.00000000000E+00 -0.00000000000E+00 -0.45593999997E+02  0.45594000000E+02  0.51100000000E-03 0.  1.
    9900012    2    1    2    0    0  0.13992631111E+02  0.36395502214E+02 -0.11521270751E+02  0.50528856053E+02  0.29999988457E+02 0.  0.
        -12    1    1    2    0    0 -0.13992631111E+02 -0.36395502214E+02  0.11521270751E+02  0.40659143947E+02  0.00000000000E+00 0.  1.
         11    1    3    3    0    0  0.60137328816E+01  0.28912923121E+02  0.23925508889E+01  0.29628472904E+02  0.51100000000E-03 0. -1.
        -11    1    3    3    0    0  0.96716349464E+01  0.27468699513E+01 -0.66092691536E+01  0.12031968088E+02  0.51100000000E-03 0.  1.
         12    1    3    3    0    0 -0.16927367168E+01  0.47357091413E+01 -0.73045524865E+01  0.88684150608E+01  0.00000000000E+00 0. -1.
</event>
<event>
 7    1  0.5019004E-011  0.5052886E+02  0.7816164E-02  0.1300439E+00
        -11   -1    0    0    0    0  0.00000000000E+00  0.00000000000E+00  0.45593999997E+02  0.45594000000E+02  0.51100000000E-03 0.  1.
         11   -1    0    0    0    0 -0.00000000000E+00 -0.00000000000E+00 -0.45593999997E+02  0.45594000000E+02  0.51100000000E-03 0. -1.
    9900012    2    1    2    0    0  0.29611193625E+01 -0.84720084606E+00 -0.40542322303E+02  0.50528857425E+02  0.29999992630E+02 0.  0.
        -12    1    1    2    0    0 -0.29611193625E+01  0.84720084606E+00  0.40542322303E+02  0.40659142575E+02  0.00000000000E+00 0.  1.
         11    1    3    3    0    0  0.12827644325E+02  0.99566700377E+00 -0.33306689030E+02  0.35705396596E+02  0.51100000000E-03 0. -1.
        -11    1    3    3    0    0  0.65435956097E+00 -0.69492134957E+00  0.10230056190E+01  0.13991579163E+01  0.51100000000E-03 0.  1.
         12    1    3    3    0    0 -0.10520884524E+02 -0.11479465003E+01 -0.82586388926E+01  0.13424302913E+02  0.00000000000E+00 0. -1.
</event>
<event>
 7    1  0.5628086E-011  0.5052885E+02  0.7816164E-02  0.1300439E+00
        -11   -1    0    0    0    0  0.00000000000E+00  0.00000000000E+00  0.45593999997E+02  0.45594000000E+02  0.51100000000E-03 0.  1.
         11   -1    0    0    0    0 -0.00000000000E+00 -0.00000000000E+00 -0.45593999997E+02  0.45594000000E+02  0.51100000000E-03 0. -1.
    9900012    2    1    2    0    0  0.24167957622E+02 -0.29321121359E+02 -0.14468865347E+02  0.50528850995E+02  0.29999973085E+02 0.  0.
        -12    1    1    2    0    0 -0.24167957622E+02  0.29321121359E+02  0.14468865347E+02  0.40659149005E+02  0.00000000000E+00 0.  1.
         11    1    3    3    0    0  0.17261553176E+02 -0.16717594872E+02 -0.13115052660E+02  0.27375971268E+02  0.51100000000E-03 0. -1.
        -11    1    3    3    0    0 -0.61158757479E+01 -0.56527482450E+01 -0.99472205656E+00  0.83873101241E+01  0.51100000000E-03 0.  1.
         12    1    3    3    0    0  0.13022280194E+02 -0.69507782416E+01 -0.35909063062E+00  0.14765569603E+02  0.00000000000E+00 0. -1.
</event>
<event>
 7    1  0.5019004E-011  0.5052886E+02  0.7816164E-02  0.1300439E+00
        -11   -1    0    0    0    0  0.00000000000E+00  0.00000000000E+00  0.45593999997E+02  0.45594000000E+02  0.51100000000E-03 0.  1.
         11   -1    0    0    0    0 -0.00000000000E+00 -0.00000000000E+00 -0.45593999997E+02  0.45594000000E+02  0.51100000000E-03 0. -1.
    9900012    2    1    2    0    0 -0.17142300855E+01 -0.86948944931E+01 -0.39681554403E+02  0.50528861607E+02  0.30000005341E+02 0.  0.
        -12    1    1    2    0    0  0.17142300855E+01  0.86948944931E+01  0.39681554403E+02  0.40659138393E+02  0.00000000000E+00 0.  1.
         11    1    3    3    0    0  0.95718870273E+01 -0.13855699338E+02 -0.22621836672E+02  0.28201931141E+02  0.51100000000E-03 0. -1.
        -11    1    3    3    0    0 -0.60774288422E+01 -0.10583585677E+01 -0.59505669613E+01  0.85711441250E+01  0.51100000000E-03 0.  1.
         12    1    3    3    0    0 -0.52086882705E+01  0.62191634122E+01 -0.11109150770E+02  0.13755786341E+02  0.00000000000E+00 0. -1.
</event>
<event>
 7    1  0.5019004E-011  0.5052886E+02  0.7816164E-02  0.1300439E+00
        -11   -1    0    0    0    0  0.00000000000E+00  0.00000000000E+00  0.45593999997E+02  0.45594000000E+02  0.51100000000E-03 0.  1.
         11   -1    0    0    0    0 -0.00000000000E+00 -0.00000000000E+00 -0.45593999997E+02  0.45594000000E+02  0.51100000000E-03 0. -1.
    9900012    2    1    2    0    0 -0.16275903787E+02 -0.82782071854E+01 -0.36328115904E+02  0.50528858796E+02  0.29999996797E+02 0.  0.
        -12    1    1    2    0    0  0.16275903787E+02  0.82782071854E+01  0.36328115904E+02  0.40659141204E+02  0.00000000000E+00 0.  1.
         11    1    3    3    0    0  0.58559470860E+01 -0.13848408811E+00 -0.39998453950E+01  0.70929583082E+01  0.51100000000E-03 0.  1.
        -11    1    3    3    0    0 -0.22270101793E+02 -0.63528487601E+01 -0.18909333189E+02  0.29897809337E+02  0.51100000000E-03 0. -1.
         12    1    3    3    0    0  0.13825092013E+00 -0.17868743372E+01 -0.13418937320E+02  0.13538091151E+02  0.00000000000E+00 0. -1.
</event>
<event>
 7    1  0.5019004E-011  0.5052884E+02  0.7816164E-02  0.1300439E+00
        -11   -1    0    0    0    0  0.00000000000E+00  0.00000000000E+00  0.45593999997E+02  0.45594000000E+02  0.51100000000E-03 0. -1.
         11   -1    0    0    0    0 -0.00000000000E+00 -0.00000000000E+00 -0.45593999997E+02  0.45594000000E+02  0.51100000000E-03 0.  1.
    9900012    2    1    2    0    0 -0.53713371432E+00 -0.35941758335E+02  0.19001800896E+02  0.50528844301E+02  0.29999952738E+02 0.  0.
        -12    1    1    2    0    0  0.53713371432E+00  0.35941758335E+02 -0.19001800896E+02  0.40659155699E+02  0.00000000000E+00 0.  1.
         11    1    3    3    0    0 -0.90574996633E+01 -0.25153209970E+02  0.61058491558E+01  0.27422685246E+02  0.51100000000E-03 0. -1.
        -11    1    3    3    0    0  0.88070357767E+01 -0.11085960156E+02  0.15195768539E+02  0.20769539559E+02  0.51100000000E-03 0.  1.
         12    1    3    3    0    0 -0.28666982765E+00  0.29741179136E+00 -0.22998167982E+01  0.23366194960E+01  0.00000000000E+00 0. -1.
</event>
<event>
 7    1  0.5019004E-011  0.5052887E+02  0.7816164E-02  0.1300439E+00
        -11   -1    0    0    0    0  0.00000000000E+00  0.00000000000E+00  0.45593999997E+02  0.45594000000E+02  0.51100000000E-03 0.  1.
         11   -1    0    0    0    0 -0.00000000000E+00 -0.00000000000E+00 -0.45593999997E+02  0.45594000000E+02  0.51100000000E-03 0. -1.
    9900012    2    1    2    0    0  0.21757542017E+02 -0.64792033828E+01 -0.33731209470E+02  0.50528865683E+02  0.30000017731E+02 0.  0.
        -12    1    1    2    0    0 -0.21757542017E+02  0.64792033828E+01  0.33731209470E+02  0.40659134317E+02  0.00000000000E+00 0.  1.
         11    1    3    3    0    0  0.77197965458E+01 -0.90242319816E+01 -0.22260528036E+02  0.25230202739E+02  0.51100000000E-03 0. -1.
        -11    1    3    3    0    0  0.98050645473E+01  0.97461771845E+01 -0.93207717612E+01  0.16673453361E+02  0.51100000000E-03 0.  1.
        -12    1    3    3    0    0  0.42326809236E+01 -0.72011485857E+01 -0.21499096730E+01  0.86252095834E+01  0.00000000000E+00 0.  1.
</event>
<event>
 7    1  0.5019004E-011  0.5052886E+02  0.7816164E-02  0.1300439E+00
        -11   -1    0    0    0    0  0.00000000000E+00  0.00000000000E+00  0.45593999997E+02  0.45594000000E+02  0.51100000000E-03 0.  1.
         11   -1    0    0    0    0 -0.00000000000E+00 -0.00000000000E+00 -0.45593999997E+02  0.45594000000E+02  0.51100000000E-03 0. -1.
    9900012    2    1    2    0    0 -0.29863552201E+02 -0.11857689477E+02 -0.24914435056E+02  0.50528860511E+02  0.30000002010E+02 0.  0.
        -12    1    1    2    0    0  0.29863552201E+02  0.11857689477E+02  0.24914435056E+02  0.40659139489E+02  0.00000000000E+00 0.  1.
         11    1    3    3    0    0 -0.18382917499E+02  0.29104575522E+01 -0.71734809727E+01  0.19946459547E+02  0.51100000000E-03 0.  1.
        -11    1    3    3    0    0  0.38548108081E+01 -0.25362891904E+01 -0.65074014758E+01  0.79773807388E+01  0.51100000000E-03 0. -1.
         12    1    3    3    0    0 -0.15335445510E+02 -0.12231857839E+02 -0.11233552608E+02  0.22605020225E+02  0.00000000000E+00 0. -1.
</event>
<event>
 7    1  0.5019004E-011  0.5052886E+02  0.7816164E-02  0.1300439E+00
        -11   -1    0    0    0    0  0.00000000000E+00  0.00000000000E+00  0.45593999997E+02  0.45594000000E+02  0.51100000000E-03 0. -1.
         11   -1    0    0    0    0 -0.00000000000E+00 -0.00000000000E+00 -0.45593999997E+02  0.45594000000E+02  0.51100000000E-03 0.  1.
    9900012    2    1    2    0    0  0.97464725648E+00  0.40298013830E+02  0.53184683962E+01  0.50528856354E+02  0.29999989374E+02 0.  0.
        -12    1    1    2    0    0 -0.97464725648E+00 -0.40298013830E+02 -0.53184683962E+01  0.40659143646E+02  0.00000000000E+00 0.  1.
         11    1    3    3    0    0 -0.32604757930E+01 -0.24934702085E+01 -0.35791935439E+01  0.54459822588E+01  0.51100000000E-03 0. -1.
        -11    1    3    3    0    0  0.69691773264E+01  0.24495102155E+02  0.74114230671E+01  0.26523737564E+02  0.51100000000E-03 0.  1.
         12    1    3    3    0    0 -0.27340542769E+01  0.18296381883E+02  0.14862388730E+01  0.18559136532E+02  0.00000000000E+00 0. -1.
</event>
<event>
 7    1  0.5019004E-011  0.5052886E+02  0.7816164E-02  0.1300439E+00
        -11   -1    0    0    0    0  0.00000000000E+00  0.00000000000E+00  0.45593999997E+02  0.45594000000E+02  0.51100000000E-03 0.  1.
         11   -1    0    0    0    0 -0.00000000000E+00 -0.00000000000E+00 -0.45593999997E+02  0.45594000000E+02  0.51100000000E-03 0. -1.
    9900012    2    1    2    0    0  0.17886661740E+02  0.32816339152E+02 -0.16010012792E+02  0.50528864580E+02  0.30000014377E+02 0.  0.
        -12    1    1    2    0    0 -0.17886661740E+02 -0.32816339152E+02  0.16010012792E+02  0.40659135420E+02  0.00000000000E+00 0.  1.
         11    1    3    3    0    0  0.63195824830E+01  0.22165892081E+02 -0.21733485020E+02  0.31679776923E+02  0.51100000000E-03 0. -1.
        -11    1    3    3    0    0  0.75021571515E+00  0.12231637054E+01 -0.20715346433E+01  0.25199621245E+01  0.51100000000E-03 0.  1.
         12    1    3    3    0    0  0.10816863542E+02  0.94272833649E+01  0.77950068711E+01  0.16329125532E+02  0.00000000000E+00 0. -1.
</event>
<event>
 7    1  0.5019004E-011  0.5052886E+02  0.7816164E-02  0.1300439E+00
        -11   -1    0    0    0    0  0.00000000000E+00  0.00000000000E+00  0.45593999997E+02  0.45594000000E+02  0.51100000000E-03 0.  1.
         11   -1    0    0    0    0 -0.00000000000E+00 -0.00000000000E+00 -0.45593999997E+02  0.45594000000E+02  0.51100000000E-03 0. -1.
    9900012    2    1    2    0    0  0.19076897300E+02  0.32838607140E+02 -0.14521136065E+02  0.50528861764E+02  0.30000005818E+02 0.  0.
        -12    1    1    2    0    0 -0.19076897300E+02 -0.32838607140E+02  0.14521136065E+02  0.40659138236E+02  0.00000000000E+00 0.  1.
         11    1    3    3    0    0  0.11494117460E+02  0.14325172840E+02 -0.30634534545E+01  0.18620151997E+02  0.51100000000E-03 0. -1.
        -11    1    3    3    0    0 -0.44968877569E+01 -0.16093360116E+01 -0.62530987974E+01  0.78684945655E+01  0.51100000000E-03 0.  1.
        -12    1    3    3    0    0  0.12079667597E+02  0.20122770312E+02 -0.52045838132E+01  0.24040215202E+02  0.00000000000E+00 0.  1.
</event>
<event>
 7    1  0.5019004E-011  0.5052886E+02  0.7816164E-02  0.1300439E+00
        -11   -1    0    0    0    0  0.00000000000E+00  0.00000000000E+00  0.45593999997E+02  0.45594000000E+02  0.51100000000E-03 0. -1.
         11   -1    0    0    0    0 -0.00000000000E+00 -0.00000000000E+00 -0.45593999997E+02  0.45594000000E+02  0.51100000000E-03 0.  1.
    9900012    2    1    2    0    0 -0.96176401456E+01  0.25179335174E+01  0.39424949820E+02  0.50528860074E+02  0.30000000681E+02 0.  0.
        -12    1    1    2    0    0  0.96176401456E+01 -0.25179335174E+01 -0.39424949820E+02  0.40659139926E+02  0.00000000000E+00 0.  1.
         11    1    3    3    0    0 -0.16551348880E+02  0.48123029497E+01  0.35864674905E+02  0.39791711646E+02  0.51100000000E-03 0. -1.
        -11    1    3    3    0    0  0.22762224154E+01 -0.16770593896E+01 -0.19959257280E+01  0.34608433153E+01  0.51100000000E-03 0.  1.
         12    1    3    3    0    0  0.46574863191E+01 -0.61731004273E+00  0.55562006439E+01  0.72763051130E+01  0.00000000000E+00 0. -1.
</event>
<event>
 7    1  0.5019004E-011  0.5052885E+02  0.7816164E-02  0.1300439E+00
        -11   -1    0    0    0    0  0.00000000000E+00  0.00000000000E+00  0.45593999997E+02  0.45594000000E+02  0.51100000000E-03 0.  1.
         11   -1    0    0    0    0 -0.00000000000E+00 -0.00000000000E+00 -0.45593999997E+02  0.45594000000E+02  0.51100000000E-03 0. -1.
    9900012    2    1    2    0    0 -0.47446948150E+01  0.26388422183E+02 -0.30566415097E+02  0.50528847450E+02  0.29999962310E+02 0.  0.
        -12    1    1    2    0    0  0.47446948150E+01 -0.26388422183E+02  0.30566415097E+02  0.40659152550E+02  0.00000000000E+00 0.  1.
         11    1    3    3    0    0 -0.79200162668E-01  0.15227100167E+02 -0.81361070096E+01  0.17264619593E+02  0.51100000000E-03 0. -1.
        -11    1    3    3    0    0 -0.16813025355E+01 -0.61408268943E+01 -0.28822717998E+01  0.69888499877E+01  0.51100000000E-03 0.  1.
        -12    1    3    3    0    0 -0.29841921168E+01  0.17302148910E+02 -0.19548036287E+02  0.26275377870E+02  0.00000000000E+00 0.  1.
</event>
<event>
 7    1  0.5019004E-011  0.5052886E+02  0.7816164E-02  0.1300439E+00
        -11   -1    0    0    0    0  0.00000000000E+00  0.00000000000E+00  0.45593999997E+02  0.45594000000E+02  0.51100000000E-03 0. -1.
         11   -1    0    0    0    0 -0.00000000000E+00 -0.00000000000E+00 -0.45593999997E+02  0.45594000000E+02  0.51100000000E-03 0.  1.
    9900012    2    1    2    0    0  0.33675910723E+02  0.17817993476E+02  0.14199227286E+02  0.50528856993E+02  0.29999991317E+02 0.  0.
        -12    1    1    2    0    0 -0.33675910723E+02 -0.17817993476E+02 -0.14199227286E+02  0.40659143007E+02  0.00000000000E+00 0.  1.
         11    1    3    3    0    0  0.30253890477E+02  0.11111268330E+02  0.21488848605E+02  0.38736659478E+02  0.51100000000E-03 0. -1.
        -11    1    3    3    0    0 -0.10922169768E+01 -0.71993190297E-01 -0.57256474054E+00  0.12352941298E+01  0.51100000000E-03 0.  1.
         12    1    3    3    0    0  0.45142372224E+01  0.67787183371E+01 -0.67170565791E+01  0.10556903385E+02  0.00000000000E+00 0. -1.
</event>
<event>
 7    1  0.5019004E-011  0.5052887E+02  0.7816164E-02  0.1300439E+00
        -11   -1    0    0    0    0  0.00000000000E+00  0.00000000000E+00  0.45593999997E+02  0.45594000000E+02  0.51100000000E-03 0.  1.
         11   -1    0    0    0    0 -0.00000000000E+00 -0.00000000000E+00 -0.45593999997E+02  0.45594000000E+02  0.51100000000E-03 0. -1.
    9900012    2    1    2    0    0  0.19740129368E+02  0.32967296679E+02 -0.13290956893E+02  0.50528869501E+02  0.30000029335E+02 0.  0.
        -12    1    1    2    0    0 -0.19740129368E+02 -0.32967296679E+02  0.13290956893E+02  0.40659130499E+02  0.00000000000E+00 0.  1.
         11    1    3    3    0    0  0.12310952418E+02  0.12318429104E+02 -0.85304117907E+00  0.17436482574E+02  0.51100000000E-03 0. -1.
        -11    1    3    3    0    0  0.43478742347E+01  0.76724501869E+01 -0.16871723141E+02  0.19037477360E+02  0.51100000000E-03 0.  1.
        -12    1    3    3    0    0  0.30813027155E+01  0.12976417388E+02  0.44338074266E+01  0.14054909567E+02  0.00000000000E+00 0.  1.
</event>
<event>
 7    1  0.5019004E-011  0.5052886E+02  0.7816164E-02  0.1300439E+00
        -11   -1    0    0    0    0  0.00000000000E+00  0.00000000000E+00  0.45593999997E+02  0.45594000000E+02  0.51100000000E-03 0.  1.
         11   -1    0    0    0    0 -0.00000000000E+00 -0.00000000000E+00 -0.45593999997E+02  0.45594000000E+02  0.51100000000E-03 0. -1.
    9900012    2    1    2    0    0  0.39537800039E+02 -0.89580664157E+01 -0.31114070528E+01  0.50528862778E+02  0.30000008899E+02 0.  0.
        -12    1    1    2    0    0 -0.39537800039E+02  0.89580664157E+01  0.31114070528E+01  0.40659137222E+02  0.00000000000E+00 0.  1.
         11    1    3    3    0    0  0.25601032058E+02 -0.98108523884E+01 -0.62977200847E+01  0.28130534043E+02  0.51100000000E-03 0. -1.
        -11    1    3    3    0    0  0.47228796625E+01  0.75441135485E+01 -0.30582185850E+01  0.94112667965E+01  0.51100000000E-03 0.  1.
         12    1    3    3    0    0  0.92138883185E+01 -0.66913275758E+01  0.62445316169E+01  0.12987061938E+02  0.00000000000E+00 0. -1.
</event>
<event>
 7    1  0.5019004E-011  0.5052887E+02  0.7816164E-02  0.1300439E+00
        -11   -1    0    0    0    0  0.00000000000E+00  0.00000000000E+00  0.45593999997E+02  0.45594000000E+02  0.51100000000E-03 0.  1.
         11   -1    0    0    0    0 -0.00000000000E+00 -0.00000000000E+00 -0.45593999997E+02  0.45594000000E+02  0.51100000000E-03 0. -1.
    9900012    2    1    2    0    0  0.30967333142E+01  0.34767112414E+02 -0.20852417855E+02  0.50528865808E+02  0.30000018110E+02 0.  0.
        -12    1    1    2    0    0 -0.30967333142E+01 -0.34767112414E+02  0.20852417855E+02  0.40659134192E+02  0.00000000000E+00 0.  1.
         11    1    3    3    0    0 -0.95004614168E+00  0.10370915154E+02 -0.14502233506E+02  0.17854222070E+02  0.51100000000E-03 0. -1.
        -11    1    3    3    0    0  0.54464118379E+01  0.16607477843E+02  0.55901958139E+01  0.18349986695E+02  0.51100000000E-03 0.  1.
        -12    1    3    3    0    0 -0.13996323820E+01  0.77887194178E+01 -0.11940380163E+02  0.14324657043E+02  0.00000000000E+00 0.  1.
</event>
<event>
 7    1  0.5019004E-011  0.5052886E+02  0.7816164E-02  0.1300439E+00
        -11   -1    0    0    0    0  0.00000000000E+00  0.00000000000E+00  0.45593999997E+02  0.45594000000E+02  0.51100000000E-03 0.  1.
         11   -1    0    0    0    0 -0.00000000000E+00 -0.00000000000E+00 -0.45593999997E+02  0.45594000000E+02  0.51100000000E-03 0. -1.
    9900012    2    1    2    0    0  0.11324735899E+02  0.36752575204E+02 -0.13197123589E+02  0.50528862057E+02  0.30000006707E+02 0.  0.
        -12    1    1    2    0    0 -0.11324735899E+02 -0.36752575204E+02  0.13197123589E+02  0.40659137943E+02  0.00000000000E+00 0.  1.
         11    1    3    3    0    0  0.12376765781E+02  0.18745354638E+02 -0.13565974768E+02  0.26241347590E+02  0.51100000000E-03 0. -1.
        -11    1    3    3    0    0 -0.36680215767E+01  0.50551498629E+01  0.71017132424E+01  0.94574443515E+01  0.51100000000E-03 0.  1.
        -12    1    3    3    0    0  0.26159916943E+01  0.12952070703E+02 -0.67328620631E+01  0.14830070115E+02  0.00000000000E+00 0.  1.
</event>
<event>
 7    1  0.5019004E-011  0.5052886E+02  0.7816164E-02  0.1300439E+00
        -11   -1    0    0    0    0  0.00000000000E+00  0.00000000000E+00  0.45593999997E+02  0.45594000000E+02  0.51100000000E-03 0.  1.
         11   -1    0    0    0    0 -0.00000000000E+00 -0.00000000000E+00 -0.45593999997E+02  0.45594000000E+02  0.51100000000E-03 0. -1.
    9900012    2    1    2    0    0 -0.19502041009E+01  0.14761717635E+02 -0.37834561774E+02  0.50528859967E+02  0.30000000357E+02 0.  0.
        -12    1    1    2    0    0  0.19502041009E+01 -0.14761717635E+02  0.37834561774E+02  0.40659140033E+02  0.00000000000E+00 0.  1.
         11    1    3    3    0    0  0.10857153180E+02 -0.17816041623E+00 -0.10685760225E+02  0.15234664031E+02  0.51100000000E-03 0. -1.
        -11    1    3    3    0    0 -0.97510804944E+01  0.83994183237E+01 -0.88398858020E+01  0.15613371841E+02  0.51100000000E-03 0.  1.
         12    1    3    3    0    0 -0.30562767861E+01  0.65404597278E+01 -0.18308915747E+02  0.19680824095E+02  0.00000000000E+00 0. -1.
</event>
<event>
 7    1  0.5019004E-011  0.5052886E+02  0.7816164E-02  0.1300439E+00
        -11   -1    0    0    0    0  0.00000000000E+00  0.00000000000E+00  0.45593999997E+02  0.45594000000E+02  0.51100000000E-03 0.  1.
         11   -1    0    0    0    0 -0.00000000000E+00 -0.00000000000E+00 -0.45593999997E+02  0.45594000000E+02  0.51100000000E-03 0. -1.
    9900012    2    1    2    0    0  0.38867973771E+02 -0.17289488147E+01 -0.11809192829E+02  0.50528859769E+02  0.29999999753E+02 0.  0.
        -12    1    1    2    0    0 -0.38867973771E+02  0.17289488147E+01  0.11809192829E+02  0.40659140231E+02  0.00000000000E+00 0.  1.
         11    1    3    3    0    0  0.35391546356E+02 -0.10041274679E+01 -0.47917172452E+01  0.35728565320E+02  0.51100000000E-03 0. -1.
        -11    1    3    3    0    0  0.48557989700E+01 -0.17645629054E+01 -0.10055742641E+02  0.11305327338E+02  0.51100000000E-03 0.  1.
        -12    1    3    3    0    0 -0.13793715549E+01  0.10397415587E+01  0.30382670571E+01  0.34949671108E+01  0.00000000000E+00 0.  1.
</event>
<event>
 7    1  0.5019004E-011  0.5052886E+02  0.7816164E-02  0.1300439E+00
        -11   -1    0    0    0    0  0.00000000000E+00  0.00000000000E+00  0.45593999997E+02  0.45594000000E+02  0.51100000000E-03 0.  1.
         11   -1    0    0    0    0 -0.00000000000E+00 -0.00000000000E+00 -0.45593999997E+02  0.45594000000E+02  0.51100000000E-03 0. -1.
    9900012    2    1    2    0    0  0.34297024144E+02 -0.11427786440E+02 -0.18608749606E+02  0.50528859208E+02  0.29999998048E+02 0.  0.
        -12    1    1    2    0    0 -0.34297024144E+02  0.11427786440E+02  0.18608749606E+02  0.40659140792E+02  0.00000000000E+00 0.  1.
         11    1    3    3    0    0  0.12577783419E+02 -0.62516964110E+01 -0.17482684056E+02  0.22426069335E+02  0.51100000000E-03 0. -1.
        -11    1    3    3    0    0  0.18300128746E+02 -0.77606369431E+01  0.51210352636E+01  0.20526743539E+02  0.51100000000E-03 0.  1.
        -12    1    3    3    0    0  0.34191119802E+01  0.25845469142E+01 -0.62471008135E+01  0.75760463342E+01  0.00000000000E+00 0.  1.
</event>
<event>
 7    1  0.5019004E-011  0.5052886E+02  0.7816164E-02  0.1300439E+00
        -11   -1    0    0    0    0  0.00000000000E+00  0.00000000000E+00  0.45593999997E+02  0.45594000000E+02  0.51100000000E-03 0.  1.
         11   -1    0    0    0    0 -0.00000000000E+00 -0.00000000000E+00 -0.45593999997E+02  0.45594000000E+02  0.51100000000E-03 0. -1.
    9900012    2    1    2    0    0  0.42685184412E+01  0.13518477027E+02 -0.38107692298E+02  0.50528859784E+02  0.29999999799E+02 0.  0.
        -12    1    1    2    0    0 -0.42685184412E+01 -0.13518477027E+02  0.38107692298E+02  0.40659140216E+02  0.00000000000E+00 0.  1.
         11    1    3    3    0    0  0.40988864342E+01  0.19089297403E+01  0.15553018739E+01  0.47816155151E+01  0.51100000000E-03 0.  1.
        -11    1    3    3    0    0 -0.19734030350E+01 -0.10460471470E+01 -0.28928126861E+02  0.29014221653E+02  0.51100000000E-03 0. -1.
         12    1    3    3    0    0  0.21430350419E+01  0.12655594434E+02 -0.10734867311E+02  0.16733022615E+02  0.00000000000E+00 0. -1.
</event>
<event>
 7    1  0.5019004E-011  0.5052886E+02  0.7816164E-02  0.1300439E+00
        -11   -1    0    0    0    0  0.00000000000E+00  0.00000000000E+00  0.45593999997E+02  0.45594000000E+02  0.51100000000E-03 0.  1.
         11   -1    0    0    0    0 -0.00000000000E+00 -0.00000000000E+00 -0.45593999997E+02  0.45594000000E+02  0.51100000000E-03 0. -1.
    9900012    2    1    2    0    0  0.20554757266E+02  0.13305826569E+02 -0.32459552988E+02  0.50528860227E+02  0.30000001146E+02 0.  0.
        -12    1    1    2    0    0 -0.20554757266E+02 -0.13305826569E+02  0.32459552988E+02  0.40659139773E+02  0.00000000000E+00 0.  1.
         11    1    3    3    0    0  0.44965672949E+01  0.18975514822E+02 -0.25375424213E+02  0.32003147258E+02  0.51100000000E-03 0. -1.
        -11    1    3    3    0    0  0.83659939503E+01 -0.36664803218E+01 -0.31977148074E+01  0.96777225099E+01  0.51100000000E-03 0.  1.
         12    1    3    3    0    0  0.76921960206E+01 -0.20032079314E+01 -0.38864139672E+01  0.88479904588E+01  0.00000000000E+00 0. -1.
</event>
<event>
 7    1  0.5019004E-011  0.5052886E+02  0.7816164E-02  0.1300439E+00
        -11   -1    0    0    0    0  0.00000000000E+00  0.00000000000E+00  0.45593999997E+02  0.45594000000E+02  0.51100000000E-03 0.  1.
         11   -1    0    0    0    0 -0.00000000000E+00 -0.00000000000E+00 -0.45593999997E+02  0.45594000000E+02  0.51100000000E-03 0. -1.
    9900012    2    1    2    0    0  0.20908242298E+02 -0.11371711330E+02 -0.32965061356E+02  0.50528859764E+02  0.29999999737E+02 0.  0.
        -12    1    1    2    0    0 -0.20908242298E+02  0.11371711330E+02  0.32965061356E+02  0.40659140236E+02  0.00000000000E+00 0.  1.
         11    1    3    3    0    0  0.10177769049E+02 -0.75630660642E+01 -0.30858493182E+02  0.33362157497E+02  0.51100000000E-03 0. -1.
        -11    1    3    3    0    0  0.90937971351E+01 -0.39166901356E+01  0.41224803277E+01  0.10725318283E+02  0.51100000000E-03 0.  1.
        -12    1    3    3    0    0  0.16366761135E+01  0.10804486968E+00 -0.62290485016E+01  0.64413839840E+01  0.00000000000E+00 0.  1.
</event>
<event>
 7    1  0.5019004E-011  0.5052886E+02  0.7816164E-02  0.1300439E+00
        -11   -1    0    0    0    0  0.00000000000E+00  0.00000000000E+00  0.45593999997E+02  0.45594000000E+02  0.51100000000E-03 0.  1.
         11   -1    0    0    0    0 -0.00000000000E+00 -0.00000000000E+00 -0.45593999997E+02  0.45594000000E+02  0.51100000000E-03 0. -1.
    9900012    2    1    2    0    0  0.78391253325E+01  0.22420605876E+02 -0.33000453488E+02  0.50528863459E+02  0.30000010970E+02 0.  0.
        -12    1    1    2    0    0 -0.78391253325E+01 -0.22420605876E+02  0.33000453488E+02  0.40659136541E+02  0.00000000000E+00 0.  1.
         11    1    3    3    0    0  0.25699325700E+01 -0.44017578553E+00 -0.23436309836E+02  0.23580901745E+02  0.51100000000E-03 0. -1.
        -11    1    3    3    0    0  0.79273919978E+01  0.17346844324E+02 -0.72316092481E+01  0.20397370528E+02  0.51100000000E-03 0.  1.
         12    1    3    3    0    0 -0.26581992353E+01  0.55139373375E+01 -0.23325344045E+01  0.65505911858E+01  0.00000000000E+00 0. -1.
</event>
<event>
 7    1  0.5019004E-011  0.5052887E+02  0.7816164E-02  0.1300439E+00
        -11   -1    0    0    0    0  0.00000000000E+00  0.00000000000E+00  0.45593999997E+02  0.45594000000E+02  0.51100000000E-03 0. -1.
         11   -1    0    0    0    0 -0.00000000000E+00 -0.00000000000E+00 -0.45593999997E+02  0.45594000000E+02  0.51100000000E-03 0.  1.
    9900012    2    1    2    0    0 -0.16000742006E+02 -0.21065014614E+02  0.30877282046E+02  0.50528866561E+02  0.30000020400E+02 0.  0.
        -12    1    1    2    0    0  0.16000742006E+02  0.21065014614E+02 -0.30877282046E+02  0.40659133439E+02  0.00000000000E+00 0.  1.
         11    1    3    3    0    0 -0.19883921724E+01 -0.38798372197E+01  0.94339992542E+01  0.10392650407E+02  0.51100000000E-03 0. -1.
        -11    1    3    3    0    0  0.36186226093E+01  0.42230751433E+01  0.92572065447E+00  0.56378854410E+01  0.51100000000E-03 0.  1.
        -12    1    3    3    0    0 -0.17630972443E+02 -0.21408252538E+02  0.20517562137E+02  0.34498330714E+02  0.00000000000E+00 0.  1.
</event>
<event>
 7    1  0.5019004E-011  0.5052886E+02  0.7816164E-02  0.1300439E+00
        -11   -1    0    0    0    0  0.00000000000E+00  0.00000000000E+00  0.45593999997E+02  0.45594000000E+02  0.51100000000E-03 0.  1.
         11   -1    0    0    0    0 -0.00000000000E+00 -0.00000000000E+00 -0.45593999997E+02  0.45594000000E+02  0.51100000000E-03 0. -1.
    9900012    2    1    2    0    0 -0.19621621747E+02  0.33943940186E+02 -0.10768771245E+02  0.50528861427E+02  0.30000004795E+02 0.  0.
        -12    1    1    2    0    0  0.19621621747E+02 -0.33943940186E+02  0.10768771245E+02  0.40659138573E+02  0.00000000000E+00 0.  1.
         11    1    3    3    0    0  0.13319111763E+01  0.18796133633E+02 -0.39757593706E+01  0.19258122695E+02  0.51100000000E-03 0. -1.
        -11    1    3    3    0    0 -0.16396735519E+02  0.52951564834E+01  0.19388943627E+01  0.17339288610E+02  0.51100000000E-03 0.  1.
        -12    1    3    3    0    0 -0.45567974037E+01  0.98526500703E+01 -0.87319062367E+01  0.13931450122E+02  0.00000000000E+00 0.  1.
</event>
<event>
 7    1  0.5019004E-011  0.5052886E+02  0.7816164E-02  0.1300439E+00
        -11   -1    0    0    0    0  0.00000000000E+00  0.00000000000E+00  0.45593999997E+02  0.45594000000E+02  0.51100000000E-03 0.  1.
         11   -1    0    0    0    0 -0.00000000000E+00 -0.00000000000E+00 -0.45593999997E+02  0.45594000000E+02  0.51100000000E-03 0. -1.
    9900012    2    1    2    0    0  0.18287732928E+01  0.88157280287E+01 -0.39649769974E+02  0.50528859190E+02  0.29999997995E+02 0.  0.
        -12    1    1    2    0    0 -0.18287732928E+01 -0.88157280287E+01  0.39649769974E+02  0.40659140810E+02  0.00000000000E+00 0.  1.
         11    1    3    3    0    0 -0.25986254995E+01  0.14418021944E+02 -0.22770716431E+02  0.27076516362E+02  0.51100000000E-03 0. -1.
        -11    1    3    3    0    0  0.91451329727E+01 -0.19164809788E+01 -0.62127159163E+01  0.11220703888E+02  0.51100000000E-03 0.  1.
        -12    1    3    3    0    0 -0.47177341804E+01 -0.36858129366E+01 -0.10666337626E+02  0.12231638940E+02  0.00000000000E+00 0.  1.
</event>
<event>
 7    1  0.5019004E-011  0.5052886E+02  0.7816164E-02  0.1300439E+00
        -11   -1    0    0    0    0  0.00000000000E+00  0.00000000000E+00  0.45593999997E+02  0.45594000000E+02  0.51100000000E-03 0.  1.
         11   -1    0    0    0    0 -0.00000000000E+00 -0.00000000000E+00 -0.45593999997E+02  0.45594000000E+02  0.51100000000E-03 0. -1.
    9900012    2    1    2    0    0  0.11980922108E+01  0.22813263838E+02 -0.33634588617E+02  0.50528856092E+02  0.29999988579E+02 0.  0.
        -12    1    1    2    0    0 -0.11980922108E+01 -0.22813263838E+02  0.33634588617E+02  0.40659143908E+02  0.00000000000E+00 0.  1.
         11    1    3    3    0    0  0.42721871227E+01  0.25719778287E+02 -0.25697486302E+02  0.36607641012E+02  0.51100000000E-03 0. -1.
        -11    1    3    3    0    0 -0.38096242214E+01  0.48850423347E+00  0.12981362149E+01  0.40542608436E+01  0.51100000000E-03 0.  1.
         12    1    3    3    0    0  0.73552930951E+00 -0.33950186824E+01 -0.92352385296E+01  0.98669542371E+01  0.00000000000E+00 0. -1.
</event>
<event>
 7    1  0.5019004E-011  0.5052885E+02  0.7816164E-02  0.1300439E+00
        -11   -1    0    0    0    0  0.00000000000E+00  0.00000000000E+00  0.45593999997E+02  0.45594000000E+02  0.51100000000E-03 0.  1.
         11   -1    0    0    0    0 -0.00000000000E+00 -0.00000000000E+00 -0.45593999997E+02  0.45594000000E+02  0.51100000000E-03 0. -1.
    9900012    2    1    2    0    0  0.35967182532E+02 -0.11792291933E+02 -0.14848229197E+02  0.50528852461E+02  0.29999977540E+02 0.  0.
        -12    1    1    2    0    0 -0.35967182532E+02  0.11792291933E+02  0.14848229197E+02  0.40659147539E+02  0.00000000000E+00 0.  1.
         11    1    3    3    0    0  0.28946195880E+01 -0.26612242384E+00 -0.18484079990E+01  0.34447432554E+01  0.51100000000E-03 0. -1.
        -11    1    3    3    0    0  0.61985369805E+01  0.10823131845E+01 -0.16053534114E+02  0.17242656997E+02  0.51100000000E-03 0.  1.
        -12    1    3    3    0    0  0.26874025964E+02 -0.12608482693E+02  0.30537129154E+01  0.29841452208E+02  0.00000000000E+00 0.  1.
</event>
<event>
 7    1  0.5019004E-011  0.5052888E+02  0.7816164E-02  0.1300439E+00
        -11   -1    0    0    0    0  0.00000000000E+00  0.00000000000E+00  0.45593999997E+02  0.45594000000E+02  0.51100000000E-03 0.  1.
         11   -1    0    0    0    0 -0.00000000000E+00 -0.00000000000E+00 -0.45593999997E+02  0.45594000000E+02  0.51100000000E-03 0. -1.
    9900012    2    1    2    0    0 -0.48661429016E+01 -0.92196557055E+01 -0.39299907495E+02  0.50528878918E+02  0.30000057959E+02 0.  0.
        -12    1    1    2    0    0  0.48661429016E+01  0.92196557055E+01  0.39299907495E+02  0.40659121082E+02  0.00000000000E+00 0.  1.
         11    1    3    3    0    0 -0.69764076112E+01 -0.56881848497E+01 -0.11835245298E+01  0.90789008484E+01  0.51100000000E-03 0. -1.
        -11    1    3    3    0    0  0.84722121123E+01 -0.44101428000E+01 -0.26615217622E+02  0.28277155920E+02  0.51100000000E-03 0.  1.
        -12    1    3    3    0    0 -0.63619474028E+01  0.87867194421E+00 -0.11501165343E+02  0.13172822149E+02  0.00000000000E+00 0.  1.
</event>
<event>
 7    1  0.5019004E-011  0.5052885E+02  0.7816164E-02  0.1300439E+00
        -11   -1    0    0    0    0  0.00000000000E+00  0.00000000000E+00  0.45593999997E+02  0.45594000000E+02  0.51100000000E-03 0. -1.
         11   -1    0    0    0    0 -0.00000000000E+00 -0.00000000000E+00 -0.45593999997E+02  0.45594000000E+02  0.51100000000E-03 0.  1.
    9900012    2    1    2    0    0 -0.24095788038E+02 -0.26616958327E+02  0.19081325521E+02  0.50528850287E+02  0.29999970932E+02 0.  0.
        -12    1    1    2    0    0  0.24095788038E+02  0.26616958327E+02 -0.19081325521E+02  0.40659149713E+02  0.00000000000E+00 0.  1.
         11    1    3    3    0    0 -0.50898244266E+01  0.14893084959E+01  0.24205832787E+01  0.58295433921E+01  0.51100000000E-03 0. -1.
        -11    1    3    3    0    0 -0.15097762386E+02 -0.26873383417E+02  0.36272382147E+01  0.31036720553E+02  0.51100000000E-03 0.  1.
        -12    1    3    3    0    0 -0.39082012246E+01 -0.12328834065E+01  0.13033504028E+02  0.13662586342E+02  0.00000000000E+00 0.  1.
</event>
<event>
 7    1  0.5019004E-011  0.5052886E+02  0.7816164E-02  0.1300439E+00
        -11   -1    0    0    0    0  0.00000000000E+00  0.00000000000E+00  0.45593999997E+02  0.45594000000E+02  0.51100000000E-03 0.  1.
         11   -1    0    0    0    0 -0.00000000000E+00 -0.00000000000E+00 -0.45593999997E+02  0.45594000000E+02  0.51100000000E-03 0. -1.
    9900012    2    1    2    0    0  0.25563973749E+02 -0.30335859469E+02 -0.89098093735E+01  0.50528858019E+02  0.29999994435E+02 0.  0.
        -12    1    1    2    0    0 -0.25563973749E+02  0.30335859469E+02  0.89098093735E+01  0.40659141981E+02  0.00000000000E+00 0.  1.
         11    1    3    3    0    0  0.15622867785E+01 -0.22193430474E+02 -0.10681673374E+02  0.24679692918E+02  0.51100000000E-03 0. -1.
        -11    1    3    3    0    0  0.12840812094E+02 -0.52648638644E+01  0.31791555377E+01  0.14237706168E+02  0.51100000000E-03 0.  1.
        -12    1    3    3    0    0  0.11160874877E+02 -0.28775651305E+01 -0.14072915367E+01  0.11611458933E+02  0.00000000000E+00 0.  1.
</event>
<event>
 7    1  0.5019004E-011  0.5052885E+02  0.7816164E-02  0.1300439E+00
        -11   -1    0    0    0    0  0.00000000000E+00  0.00000000000E+00  0.45593999997E+02  0.45594000000E+02  0.51100000000E-03 0. -1.
         11   -1    0    0    0    0 -0.00000000000E+00 -0.00000000000E+00 -0.45593999997E+02  0.45594000000E+02  0.51100000000E-03 0.  1.
    9900012    2    1    2    0    0 -0.10575852987E+02 -0.34623691130E+02  0.18507226172E+02  0.50528854972E+02  0.29999985171E+02 0.  0.
        -12    1    1    2    0    0  0.10575852987E+02  0.34623691130E+02 -0.18507226172E+02  0.40659145028E+02  0.00000000000E+00 0.  1.
         11    1    3    3    0    0  0.37206440724E+01 -0.60254114277E+01  0.53212335896E+01  0.88580078100E+01  0.51100000000E-03 0. -1.
        -11    1    3    3    0    0 -0.13564672330E+02 -0.29017113845E+02  0.38098990378E+01  0.32256914952E+02  0.51100000000E-03 0.  1.
        -12    1    3    3    0    0 -0.73182472919E+00  0.41883414258E+00  0.93760935451E+01  0.94139322092E+01  0.00000000000E+00 0.  1.
</event>
<event>
 7    1  0.5019004E-011  0.5052886E+02  0.7816164E-02  0.1300439E+00
        -11   -1    0    0    0    0  0.00000000000E+00  0.00000000000E+00  0.45593999997E+02  0.45594000000E+02  0.51100000000E-03 0. -1.
         11   -1    0    0    0    0 -0.00000000000E+00 -0.00000000000E+00 -0.45593999997E+02  0.45594000000E+02  0.51100000000E-03 0.  1.
    9900012    2    1    2    0    0  0.28599167915E+02 -0.28877587760E+02 -0.11569068855E+01  0.50528856947E+02  0.29999991176E+02 0.  0.
        -12    1    1    2    0    0 -0.28599167915E+02  0.28877587760E+02  0.11569068855E+01  0.40659143053E+02  0.00000000000E+00 0.  1.
         11    1    3    3    0    0  0.10525335940E+02 -0.19196654289E+02  0.12584365448E+02  0.25251940253E+02  0.51100000000E-03 0. -1.
        -11    1    3    3    0    0  0.12848181268E+02 -0.85038527819E+01 -0.12340277075E+02  0.19740154826E+02  0.51100000000E-03 0.  1.
         12    1    3    3    0    0  0.52256507072E+01 -0.11770806891E+01 -0.14009952588E+01  0.55367618675E+01  0.00000000000E+00 0. -1.
</event>
<event>
 7    1  0.5019004E-011  0.5052885E+02  0.7816164E-02  0.1300439E+00
        -11   -1    0    0    0    0  0.00000000000E+00  0.00000000000E+00  0.45593999997E+02  0.45594000000E+02  0.51100000000E-03 0.  1.
         11   -1    0    0    0    0 -0.00000000000E+00 -0.00000000000E+00 -0.45593999997E+02  0.45594000000E+02  0.51100000000E-03 0. -1.
    9900012    2    1    2    0    0 -0.47810389078E+01  0.13131742623E+02 -0.38182000499E+02  0.50528853926E+02  0.29999981993E+02 0.  0.
        -12    1    1    2    0    0  0.47810389078E+01 -0.13131742623E+02  0.38182000499E+02  0.40659146074E+02  0.00000000000E+00 0.  1.
         11    1    3    3    0    0  0.10977975196E+01 -0.52320595565E+01  0.76273157599E+00  0.54001265092E+01  0.51100000000E-03 0. -1.
        -11    1    3    3    0    0 -0.14154310264E+01 -0.15999807241E+01 -0.21567549585E+01  0.30356178152E+01  0.51100000000E-03 0.  1.
         12    1    3    3    0    0 -0.44634054010E+01  0.19963782904E+02 -0.36787977117E+02  0.42093109602E+02  0.00000000000E+00 0. -1.
</event>
<event>
 7    1  0.5019004E-011  0.5052887E+02  0.7816164E-02  0.1300439E+00
        -11   -1    0    0    0    0  0.00000000000E+00  0.00000000000E+00  0.45593999997E+02  0.45594000000E+02  0.51100000000E-03 0.  1.
         11   -1    0    0    0    0 -0.00000000000E+00 -0.00000000000E+00 -0.45593999997E+02  0.45594000000E+02  0.51100000000E-03 0. -1.
    9900012    2    1    2    0    0  0.96041459699E+01  0.39506350461E+02 -0.41692734944E+00  0.50528866033E+02  0.30000018794E+02 0.  0.
        -12    1    1    2    0    0 -0.96041459699E+01 -0.39506350461E+02  0.41692734944E+00  0.40659133967E+02  0.00000000000E+00 0.  1.
         11    1    3    3    0    0  0.79584039949E+01  0.16264343807E+02 -0.14389745159E+02  0.23128550314E+02  0.51100000000E-03 0. -1.
        -11    1    3    3    0    0  0.92379511933E+00  0.17222888142E+02  0.84792987043E+01  0.19219255452E+02  0.51100000000E-03 0.  1.
         12    1    3    3    0    0  0.72194685568E+00  0.60191185115E+01  0.54935191055E+01  0.81810602663E+01  0.00000000000E+00 0. -1.
</event>
<event>
 7    1  0.5019004E-011  0.5052888E+02  0.7816164E-02  0.1300439E+00
        -11   -1    0    0    0    0  0.00000000000E+00  0.00000000000E+00  0.45593999997E+02  0.45594000000E+02  0.51100000000E-03 0. -1.
         11   -1    0    0    0    0 -0.00000000000E+00 -0.00000000000E+00 -0.45593999997E+02  0.45594000000E+02  0.51100000000E-03 0.  1.
    9900012    2    1    2    0    0 -0.12576108566E+02  0.38517409456E+02 -0.33786062912E+01  0.50528876567E+02  0.30000050812E+02 0.  0.
        -12    1    1    2    0    0  0.12576108566E+02 -0.38517409456E+02  0.33786062912E+01  0.40659123433E+02  0.00000000000E+00 0.  1.
         11    1    3    3    0    0 -0.10535815271E+02  0.24930380312E+02 -0.46659523206E+01  0.27464493027E+02  0.51100000000E-03 0. -1.
        -11    1    3    3    0    0 -0.17023706189E+01  0.94530184630E+00 -0.74454939935E+01  0.76959107566E+01  0.51100000000E-03 0.  1.
        -12    1    3    3    0    0 -0.33792267596E+00  0.12641727298E+02  0.87328400230E+01  0.15368472783E+02  0.00000000000E+00 0.  1.
</event>
<event>
 7    1  0.5019004E-011  0.5052886E+02  0.7816164E-02  0.1300439E+00
        -11   -1    0    0    0    0  0.00000000000E+00  0.00000000000E+00  0.45593999997E+02  0.45594000000E+02  0.51100000000E-03 0. -1.
         11   -1    0    0    0    0 -0.00000000000E+00 -0.00000000000E+00 -0.45593999997E+02  0.45594000000E+02  0.51100000000E-03 0.  1.
    9900012    2    1    2    0    0 -0.39826177898E+02 -0.31697204535E+01  0.75494617958E+01  0.50528856537E+02  0.29999989930E+02 0.  0.
        -12    1    1    2    0    0  0.39826177898E+02  0.31697204535E+01 -0.75494617958E+01  0.40659143463E+02  0.00000000000E+00 0.  1.
         11    1    3    3    0    0 -0.25512723416E+02  0.59425938952E+01 -0.43255921200E+01  0.26550409145E+02  0.51100000000E-03 0.  1.
        -11    1    3    3    0    0 -0.14017181974E+02 -0.11631996876E+02  0.97003151235E+01  0.20636880955E+02  0.51100000000E-03 0. -1.
         12    1    3    3    0    0 -0.29627250812E+00  0.25196825269E+01  0.21747387923E+01  0.33415664366E+01  0.00000000000E+00 0. -1.
</event>
<event>
 7    1  0.5019004E-011  0.5052886E+02  0.7816164E-02  0.1300439E+00
        -11   -1    0    0    0    0  0.00000000000E+00  0.00000000000E+00  0.45593999997E+02  0.45594000000E+02  0.51100000000E-03 0. -1.
         11   -1    0    0    0    0 -0.00000000000E+00 -0.00000000000E+00 -0.45593999997E+02  0.45594000000E+02  0.51100000000E-03 0.  1.
    9900012    2    1    2    0    0  0.20811931146E+02  0.18502131325E+02  0.29626009915E+02  0.50528858284E+02  0.29999995239E+02 0.  0.
        -12    1    1    2    0    0 -0.20811931146E+02 -0.18502131325E+02 -0.29626009915E+02  0.40659141716E+02  0.00000000000E+00 0.  1.
         11    1    3    3    0    0  0.98655757346E+01  0.21711002736E+01  0.12450513066E+02  0.16033045152E+02  0.51100000000E-03 0. -1.
        -11    1    3    3    0    0 -0.29519059925E+01  0.30046586166E+01 -0.40462339166E+01  0.58406961537E+01  0.51100000000E-03 0.  1.
        -12    1    3    3    0    0  0.13898261404E+02  0.13326372435E+02  0.21221730765E+02  0.28655116978E+02  0.00000000000E+00 0.  1.
</event>
<event>
 7    1  0.5019004E-011  0.5052886E+02  0.7816164E-02  0.1300439E+00
        -11   -1    0    0    0    0  0.00000000000E+00  0.00000000000E+00  0.45593999997E+02  0.45594000000E+02  0.51100000000E-03 0. -1.
         11   -1    0    0    0    0 -0.00000000000E+00 -0.00000000000E+00 -0.45593999997E+02  0.45594000000E+02  0.51100000000E-03 0.  1.
    9900012    2    1    2    0    0  0.29563929007E+02  0.26417028079E+02  0.90155860027E+01  0.50528855127E+02  0.29999985644E+02 0.  0.
        -12    1    1    2    0    0 -0.29563929007E+02 -0.26417028079E+02 -0.90155860027E+01  0.40659144873E+02  0.00000000000E+00 0.  1.
         11    1    3    3    0    0 -0.43188756385E+01  0.85817370396E+00  0.12757085942E+01  0.45843845351E+01  0.51100000000E-03 0. -1.
        -11    1    3    3    0    0  0.26959108431E+02  0.26704968272E+02  0.44925724192E+01  0.38211674459E+02  0.51100000000E-03 0.  1.
         12    1    3    3    0    0  0.69236962145E+01 -0.11461138973E+01  0.32473049893E+01  0.77327961327E+01  0.00000000000E+00 0. -1.
</event>
<event>
 7    1  0.5019004E-011  0.5052885E+02  0.7816164E-02  0.1300439E+00
        -11   -1    0    0    0    0  0.00000000000E+00  0.00000000000E+00  0.45593999997E+02  0.45594000000E+02  0.51100000000E-03 0. -1.
         11   -1    0    0    0    0 -0.00000000000E+00 -0.00000000000E+00 -0.45593999997E+02  0.45594000000E+02  0.51100000000E-03 0.  1.
    9900012    2    1    2    0    0 -0.14775004878E+01 -0.25041679228E+02 -0.31998396416E+02  0.50528854910E+02  0.29999984985E+02 0.  0.
        -12    1    1    2    0    0  0.14775004878E+01  0.25041679228E+02  0.31998396416E+02  0.40659145090E+02  0.00000000000E+00 0.  1.
         11    1    3    3    0    0  0.93467227569E+01 -0.10833192495E+02 -0.91842543756E+01  0.17002053247E+02  0.51100000000E-03 0. -1.
        -11    1    3    3    0    0 -0.68267813292E+01 -0.10971022471E+01 -0.17515925669E+02  0.18831256701E+02  0.51100000000E-03 0.  1.
        -12    1    3    3    0    0 -0.39974419155E+01 -0.13111384486E+02 -0.52982163716E+01  0.14695544962E+02  0.00000000000E+00 0.  1.
</event>
<event>
 7    1  0.5019004E-011  0.5052899E+02  0.7816164E-02  0.1300438E+00
        -11   -1    0    0    0    0  0.00000000000E+00  0.00000000000E+00  0.45593999997E+02  0.45594000000E+02  0.51100000000E-03 0.  1.
         11   -1    0    0    0    0 -0.00000000000E+00 -0.00000000000E+00 -0.45593999997E+02  0.45594000000E+02  0.51100000000E-03 0. -1.
    9900012    2    1    2    0    0  0.13894848689E+02  0.22283245394E+01 -0.38146070394E+02  0.50528991934E+02  0.30000401481E+02 0.  0.
        -12    1    1    2    0    0 -0.13894848689E+02 -0.22283245394E+01  0.38146070394E+02  0.40659008066E+02  0.00000000000E+00 0.  1.
         11    1    3    3    0    0 -0.50247990650E+01 -0.73538643154E+01 -0.36057536882E+01  0.96088181341E+01  0.51100000000E-03 0. -1.
        -11    1    3    3    0    0  0.12195070986E+02  0.31954015449E+01 -0.18385517477E+02  0.22292545852E+02  0.51100000000E-03 0.  1.
         12    1    3    3    0    0  0.67245767678E+01  0.63867873099E+01 -0.16154799229E+02  0.18627627948E+02  0.00000000000E+00 0. -1.
</event>
<event>
 7    1  0.5019004E-011  0.5052884E+02  0.7816164E-02  0.1300439E+00
        -11   -1    0    0    0    0  0.00000000000E+00  0.00000000000E+00  0.45593999997E+02  0.45594000000E+02  0.51100000000E-03 0. -1.
         11   -1    0    0    0    0 -0.00000000000E+00 -0.00000000000E+00 -0.45593999997E+02  0.45594000000E+02  0.51100000000E-03 0.  1.
    9900012    2    1    2    0    0  0.19474327878E+02  0.14877010484E+02  0.32443684546E+02  0.50528836775E+02  0.29999929863E+02 0.  0.
        -12    1    1    2    0    0 -0.19474327878E+02 -0.14877010484E+02 -0.32443684546E+02  0.40659163225E+02  0.00000000000E+00 0.  1.
         11    1    3    3    0    0 -0.43564846912E+01  0.58792686045E+01  0.17256077560E+02  0.18743451422E+02  0.51100000000E-03 0. -1.
        -11    1    3    3    0    0  0.23795903384E+02  0.86462654753E+01  0.16636002226E+02  0.30294545629E+02  0.51100000000E-03 0.  1.
        -12    1    3    3    0    0  0.34909184793E-01  0.35147640413E+00 -0.14483952401E+01  0.14908397249E+01  0.00000000000E+00 0.  1.
</event>
<event>
 7    1  0.7116577E-011  0.5052886E+02  0.7816164E-02  0.1300439E+00
        -11   -1    0    0    0    0  0.00000000000E+00  0.00000000000E+00  0.45593999997E+02  0.45594000000E+02  0.51100000000E-03 0.  1.
         11   -1    0    0    0    0 -0.00000000000E+00 -0.00000000000E+00 -0.45593999997E+02  0.45594000000E+02  0.51100000000E-03 0. -1.
    9900012    2    1    2    0    0 -0.11511360297E+02  0.35104090970E+02 -0.16981082197E+02  0.50528858700E+02  0.29999996503E+02 0.  0.
        -12    1    1    2    0    0  0.11511360297E+02 -0.35104090970E+02  0.16981082197E+02  0.40659141300E+02  0.00000000000E+00 0.  1.
         11    1    3    3    0    0 -0.90397362076E+01  0.19028072969E+02 -0.21488414065E+02  0.30092130714E+02  0.51100000000E-03 0. -1.
        -11    1    3    3    0    0 -0.45292132597E+01  0.14567878452E+01  0.29343479929E+01  0.55898481180E+01  0.51100000000E-03 0.  1.
         12    1    3    3    0    0  0.20575891698E+01  0.14619230156E+02  0.15729838747E+01  0.14846879868E+02  0.00000000000E+00 0. -1.
</event>
<event>
 7    1  0.5019004E-011  0.5052887E+02  0.7816164E-02  0.1300439E+00
        -11   -1    0    0    0    0  0.00000000000E+00  0.00000000000E+00  0.45593999997E+02  0.45594000000E+02  0.51100000000E-03 0. -1.
         11   -1    0    0    0    0 -0.00000000000E+00 -0.00000000000E+00 -0.45593999997E+02  0.45594000000E+02  0.51100000000E-03 0.  1.
    9900012    2    1    2    0    0 -0.13794755406E+02 -0.35896178795E+02  0.13203567292E+02  0.50528866733E+02  0.30000020921E+02 0.  0.
        -12    1    1    2    0    0  0.13794755406E+02  0.35896178795E+02 -0.13203567292E+02  0.40659133267E+02  0.00000000000E+00 0.  1.
         11    1    3    3    0    0 -0.74335365077E+01 -0.17540777400E+02  0.16150846732E+02  0.24975711947E+02  0.51100000000E-03 0. -1.
        -11    1    3    3    0    0 -0.45408095318E+01 -0.15986241162E+02 -0.89299487580E+01  0.18865917491E+02  0.51100000000E-03 0.  1.
        -12    1    3    3    0    0 -0.18204093668E+01 -0.23691602328E+01  0.59826693177E+01  0.66872372947E+01  0.00000000000E+00 0.  1.
</event>
<event>
 7    1  0.5019004E-011  0.5052886E+02  0.7816164E-02  0.1300439E+00
        -11   -1    0    0    0    0  0.00000000000E+00  0.00000000000E+00  0.45593999997E+02  0.45594000000E+02  0.51100000000E-03 0.  1.
         11   -1    0    0    0    0 -0.00000000000E+00 -0.00000000000E+00 -0.45593999997E+02  0.45594000000E+02  0.51100000000E-03 0. -1.
    9900012    2    1    2    0    0  0.23571389812E+02  0.10498496600E+02 -0.31421916318E+02  0.50528859900E+02  0.30000000152E+02 0.  0.
        -12    1    1    2    0    0 -0.23571389812E+02 -0.10498496600E+02  0.31421916318E+02  0.40659140100E+02  0.00000000000E+00 0.  1.
         11    1    3    3    0    0  0.13678509452E+02  0.31044999074E+01 -0.27871075757E+02  0.31201544908E+02  0.51100000000E-03 0. -1.
        -11    1    3    3    0    0  0.92869911583E+00 -0.10966262764E+00  0.48450831026E+01  0.49345048862E+01  0.51100000000E-03 0.  1.
        -12    1    3    3    0    0  0.89641812444E+01  0.75036593206E+01 -0.83959236637E+01  0.14392810106E+02  0.00000000000E+00 0.  1.
</event>
<event>
 7    1  0.5019004E-011  0.5052886E+02  0.7816164E-02  0.1300439E+00
        -11   -1    0    0    0    0  0.00000000000E+00  0.00000000000E+00  0.45593999997E+02  0.45594000000E+02  0.51100000000E-03 0.  1.
         11   -1    0    0    0    0 -0.00000000000E+00 -0.00000000000E+00 -0.45593999997E+02  0.45594000000E+02  0.51100000000E-03 0. -1.
    9900012    2    1    2    0    0  0.44481905069E+01 -0.28073231657E+02 -0.29073583402E+02  0.50528856056E+02  0.29999988467E+02 0.  0.
        -12    1    1    2    0    0 -0.44481905069E+01  0.28073231657E+02  0.29073583402E+02  0.40659143944E+02  0.00000000000E+00 0.  1.
         11    1    3    3    0    0  0.12391247808E+02 -0.84095319183E+01 -0.48503191748E+01  0.15741310164E+02  0.51100000000E-03 0. -1.
        -11    1    3    3    0    0 -0.63802585767E+01 -0.10399357133E+02 -0.46143140837E+01  0.13044011002E+02  0.51100000000E-03 0.  1.
         12    1    3    3    0    0 -0.15627987245E+01 -0.92643426054E+01 -0.19608950143E+02  0.21743534889E+02  0.00000000000E+00 0. -1.
</event>
<event>
 7    1  0.5019004E-011  0.5052886E+02  0.7816164E-02  0.1300439E+00
        -11   -1    0    0    0    0  0.00000000000E+00  0.00000000000E+00  0.45593999997E+02  0.45594000000E+02  0.51100000000E-03 0. -1.
         11   -1    0    0    0    0 -0.00000000000E+00 -0.00000000000E+00 -0.45593999997E+02  0.45594000000E+02  0.51100000000E-03 0.  1.
    9900012    2    1    2    0    0  0.11684532667E+02 -0.37571066363E+02  0.10249485835E+02  0.50528864603E+02  0.30000014448E+02 0.  0.
        -12    1    1    2    0    0 -0.11684532667E+02  0.37571066363E+02 -0.10249485835E+02  0.40659135397E+02  0.00000000000E+00 0.  1.
         11    1    3    3    0    0  0.12373344495E+02 -0.56628933802E+01  0.10694994321E+02  0.17307539375E+02  0.51100000000E-03 0. -1.
        -11    1    3    3    0    0  0.23675244072E+01 -0.22038799277E+01 -0.89764157256E+00  0.33567870365E+01  0.51100000000E-03 0.  1.
         12    1    3    3    0    0 -0.30563362347E+01 -0.29704293055E+02  0.45213308693E+00  0.29864538192E+02  0.00000000000E+00 0. -1.
</event>
<event>
 7    1  0.5019004E-011  0.5052886E+02  0.7816164E-02  0.1300439E+00
        -11   -1    0    0    0    0  0.00000000000E+00  0.00000000000E+00  0.45593999997E+02  0.45594000000E+02  0.51100000000E-03 0.  1.
         11   -1    0    0    0    0 -0.00000000000E+00 -0.00000000000E+00 -0.45593999997E+02  0.45594000000E+02  0.51100000000E-03 0. -1.
    9900012    2    1    2    0    0  0.28088234092E+02 -0.60677056645E+01 -0.28764553301E+02  0.50528862367E+02  0.30000007650E+02 0.  0.
        -12    1    1    2    0    0 -0.28088234092E+02  0.60677056645E+01  0.28764553301E+02  0.40659137633E+02  0.00000000000E+00 0.  1.
         11    1    3    3    0    0  0.17166861617E+02 -0.16316913050E+02 -0.14943173438E+02  0.28004307203E+02  0.51100000000E-03 0. -1.
        -11    1    3    3    0    0  0.20860299224E+01  0.73494630542E+01 -0.28780425045E+01  0.81638996160E+01  0.51100000000E-03 0.  1.
        -12    1    3    3    0    0  0.88353425527E+01  0.28997443314E+01 -0.10943337359E+02  0.14360655548E+02  0.00000000000E+00 0.  1.
</event>
<event>
 7    1  0.5019004E-011  0.5052885E+02  0.7816164E-02  0.1300439E+00
        -11   -1    0    0    0    0  0.00000000000E+00  0.00000000000E+00  0.45593999997E+02  0.45594000000E+02  0.51100000000E-03 0.  1.
         11   -1    0    0    0    0 -0.00000000000E+00 -0.00000000000E+00 -0.45593999997E+02  0.45594000000E+02  0.51100000000E-03 0. -1.
    9900012    2    1    2    0    0  0.38173301978E+02  0.61398298308E+01 -0.12580471593E+02  0.50528846544E+02  0.29999959556E+02 0.  0.
        -12    1    1    2    0    0 -0.38173301978E+02 -0.61398298308E+01  0.12580471593E+02  0.40659153456E+02  0.00000000000E+00 0.  1.
         11    1    3    3    0    0  0.82086831977E+01  0.70196972893E+01  0.84666869727E+00  0.10833996401E+02  0.51100000000E-03 0. -1.
        -11    1    3    3    0    0  0.32950706267E+02 -0.16450637963E+01 -0.88179080235E+01  0.34149828411E+02  0.51100000000E-03 0.  1.
        -12    1    3    3    0    0 -0.29860874866E+01  0.76519633776E+00 -0.46092322670E+01  0.55450217316E+01  0.00000000000E+00 0.  1.
</event>
<event>
 7    1  0.5019004E-011  0.5052886E+02  0.7816164E-02  0.1300439E+00
        -11   -1    0    0    0    0  0.00000000000E+00  0.00000000000E+00  0.45593999997E+02  0.45594000000E+02  0.51100000000E-03 0.  1.
         11   -1    0    0    0    0 -0.00000000000E+00 -0.00000000000E+00 -0.45593999997E+02  0.45594000000E+02  0.51100000000E-03 0. -1.
    9900012    2    1    2    0    0 -0.38613174731E+02  0.12442751770E+02 -0.27140572201E+01  0.50528862761E+02  0.30000008850E+02 0.  0.
        -12    1    1    2    0    0  0.38613174731E+02 -0.12442751770E+02  0.27140572201E+01  0.40659137239E+02  0.00000000000E+00 0.  1.
         11    1    3    3    0    0 -0.24954952798E+02  0.15128958649E+02 -0.65248954255E+00  0.29190080538E+02  0.51100000000E-03 0. -1.
        -11    1    3    3    0    0 -0.13962327326E+02 -0.73146743646E+01 -0.40775143792E+01  0.16281190656E+02  0.51100000000E-03 0.  1.
        -12    1    3    3    0    0  0.30410539294E+00  0.46284674861E+01  0.20159467017E+01  0.50575915675E+01  0.00000000000E+00 0.  1.
</event>
<event>
 7    1  0.5019004E-011  0.5052886E+02  0.7816164E-02  0.1300439E+00
        -11   -1    0    0    0    0  0.00000000000E+00  0.00000000000E+00  0.45593999997E+02  0.45594000000E+02  0.51100000000E-03 0.  1.
         11   -1    0    0    0    0 -0.00000000000E+00 -0.00000000000E+00 -0.45593999997E+02  0.45594000000E+02  0.51100000000E-03 0. -1.
    9900012    2    1    2    0    0  0.83063783997E+00  0.26638999780E+01 -0.40563280026E+02  0.50528855779E+02  0.29999987625E+02 0.  0.
        -12    1    1    2    0    0 -0.83063783997E+00 -0.26638999780E+01  0.40563280026E+02  0.40659144221E+02  0.00000000000E+00 0.  1.
         11    1    3    3    0    0  0.41682077691E+01 -0.58393305105E+00 -0.12233512333E+02  0.12937301035E+02  0.51100000000E-03 0. -1.
        -11    1    3    3    0    0 -0.40509582934E+01  0.13004776127E+02 -0.10294088291E+02  0.17073450711E+02  0.51100000000E-03 0.  1.
        -12    1    3    3    0    0  0.71338836421E+00 -0.97569430976E+01 -0.18035679403E+02  0.20518104033E+02  0.00000000000E+00 0.  1.
</event>
<event>
 7    1  0.5019004E-011  0.5052888E+02  0.7816164E-02  0.1300439E+00
        -11   -1    0    0    0    0  0.00000000000E+00  0.00000000000E+00  0.45593999997E+02  0.45594000000E+02  0.51100000000E-03 0.  1.
         11   -1    0    0    0    0 -0.00000000000E+00 -0.00000000000E+00 -0.45593999997E+02  0.45594000000E+02  0.51100000000E-03 0. -1.
    9900012    2    1    2    0    0  0.86026489432E+00  0.17030148269E+02 -0.36910675725E+02  0.50528880627E+02  0.30000063153E+02 0.  0.
        -12    1    1    2    0    0 -0.86026489432E+00 -0.17030148269E+02  0.36910675725E+02  0.40659119373E+02  0.00000000000E+00 0.  1.
         11    1    3    3    0    0 -0.10651027463E+02  0.98315915868E+01 -0.67801927688E+01  0.16002362119E+02  0.51100000000E-03 0. -1.
        -11    1    3    3    0    0  0.66668250685E+01  0.57485048997E+01 -0.82338416379E+01  0.12053547754E+02  0.51100000000E-03 0.  1.
         12    1    3    3    0    0  0.48444672888E+01  0.14500517823E+01 -0.21896641318E+02  0.22472970754E+02  0.00000000000E+00 0. -1.
</event>
<event>
 7    1  0.5019004E-011  0.5052885E+02  0.7816164E-02  0.1300439E+00
        -11   -1    0    0    0    0  0.00000000000E+00  0.00000000000E+00  0.45593999997E+02  0.45594000000E+02  0.51100000000E-03 0.  1.
         11   -1    0    0    0    0 -0.00000000000E+00 -0.00000000000E+00 -0.45593999997E+02  0.45594000000E+02  0.51100000000E-03 0. -1.
    9900012    2    1    2    0    0  0.12875037293E+02  0.66711102744E+01 -0.37985468548E+02  0.50528854431E+02  0.29999983527E+02 0.  0.
        -12    1    1    2    0    0 -0.12875037293E+02 -0.66711102744E+01  0.37985468548E+02  0.40659145569E+02  0.00000000000E+00 0.  1.
         11    1    3    3    0    0  0.14483779607E+02 -0.41759628443E+01 -0.19373528579E+02  0.24546937635E+02  0.51100000000E-03 0.  1.
        -11    1    3    3    0    0 -0.79997193561E+01  0.54048083717E+01 -0.87319685154E+01  0.13017478163E+02  0.51100000000E-03 0. -1.
         12    1    3    3    0    0  0.63909770418E+01  0.54422647470E+01 -0.98799714539E+01  0.12964438632E+02  0.00000000000E+00 0. -1.
</event>
<event>
 7    1  0.5019004E-011  0.5052886E+02  0.7816164E-02  0.1300439E+00
        -11   -1    0    0    0    0  0.00000000000E+00  0.00000000000E+00  0.45593999997E+02  0.45594000000E+02  0.51100000000E-03 0. -1.
         11   -1    0    0    0    0 -0.00000000000E+00 -0.00000000000E+00 -0.45593999997E+02  0.45594000000E+02  0.51100000000E-03 0.  1.
    9900012    2    1    2    0    0  0.35576851396E+02 -0.11055619328E+00  0.19683532423E+02  0.50528855560E+02  0.29999986960E+02 0.  0.
        -12    1    1    2    0    0 -0.35576851396E+02  0.11055619328E+00 -0.19683532423E+02  0.40659144440E+02  0.00000000000E+00 0.  1.
         11    1    3    3    0    0  0.22251075537E+02  0.49741410702E+01  0.19458929974E+02  0.29975029573E+02  0.51100000000E-03 0. -1.
        -11    1    3    3    0    0  0.14533498459E+02 -0.47553222548E+01 -0.42793155218E+01  0.15879175319E+02  0.51100000000E-03 0.  1.
        -12    1    3    3    0    0 -0.12077225999E+01 -0.32937500864E+00  0.45039179711E+01  0.46746506677E+01  0.00000000000E+00 0.  1.
</event>
<event>
 7    1  0.5019004E-011  0.5052886E+02  0.7816164E-02  0.1300439E+00
        -11   -1    0    0    0    0  0.00000000000E+00  0.00000000000E+00  0.45593999997E+02  0.45594000000E+02  0.51100000000E-03 0. -1.
         11   -1    0    0    0    0 -0.00000000000E+00 -0.00000000000E+00 -0.45593999997E+02  0.45594000000E+02  0.51100000000E-03 0.  1.
    9900012    2    1    2    0    0 -0.88045454000E+00 -0.19195542845E+02  0.35831854551E+02  0.50528857537E+02  0.29999992969E+02 0.  0.
        -12    1    1    2    0    0  0.88045454000E+00  0.19195542845E+02 -0.35831854551E+02  0.40659142463E+02  0.00000000000E+00 0.  1.
         11    1    3    3    0    0  0.11177691733E+02 -0.33698066098E+01  0.50120282536E+01  0.12704991796E+02  0.51100000000E-03 0. -1.
        -11    1    3    3    0    0 -0.11842373313E+01 -0.70840414949E+01  0.60321218094E+01  0.93793686218E+01  0.51100000000E-03 0.  1.
         12    1    3    3    0    0 -0.10873908941E+02 -0.87416947405E+01  0.24787704488E+02  0.28444497119E+02  0.00000000000E+00 0. -1.
</event>
<event>
 7    1  0.5019004E-011  0.5052886E+02  0.7816164E-02  0.1300439E+00
        -11   -1    0    0    0    0  0.00000000000E+00  0.00000000000E+00  0.45593999997E+02  0.45594000000E+02  0.51100000000E-03 0.  1.
         11   -1    0    0    0    0 -0.00000000000E+00 -0.00000000000E+00 -0.45593999997E+02  0.45594000000E+02  0.51100000000E-03 0. -1.
    9900012    2    1    2    0    0 -0.26198411412E+02  0.25681884425E+02 -0.17528546381E+02  0.50528857284E+02  0.29999992200E+02 0.  0.
        -12    1    1    2    0    0  0.26198411412E+02 -0.25681884425E+02  0.17528546381E+02  0.40659142716E+02  0.00000000000E+00 0.  1.
         11    1    3    3    0    0  0.29594623148E+01  0.53439435627E+01 -0.11346633881E+02  0.12886514295E+02  0.51100000000E-03 0. -1.
        -11    1    3    3    0    0 -0.81406086653E+01  0.38291904310E+00 -0.13161873235E+01  0.82552096138E+01  0.51100000000E-03 0.  1.
         12    1    3    3    0    0 -0.21017265062E+02  0.19955021820E+02 -0.48657251765E+01  0.29387133375E+02  0.00000000000E+00 0. -1.
</event>
<event>
 7    1  0.5019004E-011  0.5052887E+02  0.7816164E-02  0.1300439E+00
        -11   -1    0    0    0    0  0.00000000000E+00  0.00000000000E+00  0.45593999997E+02  0.45594000000E+02  0.51100000000E-03 0.  1.
         11   -1    0    0    0    0 -0.00000000000E+00 -0.00000000000E+00 -0.45593999997E+02  0.45594000000E+02  0.51100000000E-03 0. -1.
    9900012    2    1    2    0    0  0.20777796707E+01 -0.13082665742E+02 -0.38440757703E+02  0.50528866167E+02  0.30000019201E+02 0.  0.
        -12    1    1    2    0    0 -0.20777796707E+01  0.13082665742E+02  0.38440757703E+02  0.40659133833E+02  0.00000000000E+00 0.  1.
         11    1    3    3    0    0  0.96100560278E+01 -0.10135313250E+02 -0.54623197929E+01  0.14997156041E+02  0.51100000000E-03 0. -1.
        -11    1    3    3    0    0 -0.63612074141E+00  0.43602648982E+00 -0.22634131123E+02  0.22647266075E+02  0.51100000000E-03 0.  1.
         12    1    3    3    0    0 -0.68961556157E+01 -0.33833789813E+01 -0.10344306787E+02  0.12884444051E+02  0.00000000000E+00 0. -1.
</event>
<event>
 7    1  0.5019004E-011  0.5052885E+02  0.7816164E-02  0.1300439E+00
        -11   -1    0    0    0    0  0.00000000000E+00  0.00000000000E+00  0.45593999997E+02  0.45594000000E+02  0.51100000000E-03 0.  1.
         11   -1    0    0    0    0 -0.00000000000E+00 -0.00000000000E+00 -0.45593999997E+02  0.45594000000E+02  0.51100000000E-03 0. -1.
    9900012    2    1    2    0    0  0.90771150305E+01 -0.26323076457E+02 -0.29628839765E+02  0.50528849526E+02  0.29999968619E+02 0.  0.
        -12    1    1    2    0    0 -0.90771150305E+01  0.26323076457E+02  0.29628839765E+02  0.40659150474E+02  0.00000000000E+00 0.  1.
         11    1    3    3    0    0  0.11420046521E+02 -0.11706729913E+02 -0.16777201043E+02  0.23429457162E+02  0.51100000000E-03 0. -1.
        -11    1    3    3    0    0 -0.66853203642E+01 -0.14637671453E+02 -0.30495391843E+01  0.16378480498E+02  0.51100000000E-03 0.  1.
        -12    1    3    3    0    0  0.43423888738E+01  0.21324908873E-01 -0.98020995382E+01  0.10720911866E+02  0.00000000000E+00 0.  1.
</event>
<event>
 7    1  0.5019004E-011  0.5052885E+02  0.7816164E-02  0.1300439E+00
        -11   -1    0    0    0    0  0.00000000000E+00  0.00000000000E+00  0.45593999997E+02  0.45594000000E+02  0.51100000000E-03 0.  1.
         11   -1    0    0    0    0 -0.00000000000E+00 -0.00000000000E+00 -0.45593999997E+02  0.45594000000E+02  0.51100000000E-03 0. -1.
    9900012    2    1    2    0    0 -0.13735088955E+02  0.14766795870E+02 -0.35305173494E+02  0.50528853374E+02  0.29999980316E+02 0.  0.
        -12    1    1    2    0    0  0.13735088955E+02 -0.14766795870E+02  0.35305173494E+02  0.40659146626E+02  0.00000000000E+00 0.  1.
         11    1    3    3    0    0 -0.20536265374E+02  0.10799621712E+02 -0.27368946703E+02  0.35880764604E+02  0.51100000000E-03 0. -1.
        -11    1    3    3    0    0  0.64193321434E+01 -0.14349182789E+01 -0.26850647177E+01  0.71046737036E+01  0.51100000000E-03 0.  1.
        -12    1    3    3    0    0  0.38184427551E+00  0.54020924369E+01 -0.52511620737E+01  0.75434150670E+01  0.00000000000E+00 0.  1.
</event>
<event>
 7    1  0.5019004E-011  0.5052886E+02  0.7816164E-02  0.1300439E+00
        -11   -1    0    0    0    0  0.00000000000E+00  0.00000000000E+00  0.45593999997E+02  0.45594000000E+02  0.51100000000E-03 0.  1.
         11   -1    0    0    0    0 -0.00000000000E+00 -0.00000000000E+00 -0.45593999997E+02  0.45594000000E+02  0.51100000000E-03 0. -1.
    9900012    2    1    2    0    0 -0.51409822012E+01 -0.37623916495E+02 -0.14531925366E+02  0.50528860250E+02  0.30000001215E+02 0.  0.
        -12    1    1    2    0    0  0.51409822012E+01  0.37623916495E+02  0.14531925366E+02  0.40659139750E+02  0.00000000000E+00 0.  1.
         11    1    3    3    0    0 -0.28875491040E+01 -0.12825046795E+02 -0.20594069367E+02  0.24432262656E+02  0.51100000000E-03 0. -1.
        -11    1    3    3    0    0  0.14466092697E+01 -0.10213257256E+02  0.29742349672E+01  0.10735426217E+02  0.51100000000E-03 0.  1.
         12    1    3    3    0    0 -0.37000423669E+01 -0.14585612443E+02  0.30879090343E+01  0.15361171377E+02  0.00000000000E+00 0. -1.
</event>
<event>
 7    1  0.5019004E-011  0.5052888E+02  0.7816164E-02  0.1300439E+00
        -11   -1    0    0    0    0  0.00000000000E+00  0.00000000000E+00  0.45593999997E+02  0.45594000000E+02  0.51100000000E-03 0.  1.
         11   -1    0    0    0    0 -0.00000000000E+00 -0.00000000000E+00 -0.45593999997E+02  0.45594000000E+02  0.51100000000E-03 0. -1.
    9900012    2    1    2    0    0  0.44475208451E+01 -0.39817386876E+02 -0.69252618610E+01  0.50528880591E+02  0.30000063044E+02 0.  0.
        -12    1    1    2    0    0 -0.44475208451E+01  0.39817386876E+02  0.69252618610E+01  0.40659119409E+02  0.00000000000E+00 0.  1.
         11    1    3    3    0    0 -0.12913738581E+01 -0.13099275879E+02 -0.84085336429E+01  0.15619286580E+02  0.51100000000E-03 0. -1.
        -11    1    3    3    0    0 -0.59944128191E+01 -0.11648130777E+02  0.72324574737E+01  0.14963969294E+02  0.51100000000E-03 0.  1.
        -12    1    3    3    0    0  0.11733307522E+02 -0.15069980220E+02 -0.57491856917E+01  0.19945624717E+02  0.00000000000E+00 0.  1.
</event>
<event>
 7    1  0.5019004E-011  0.5052886E+02  0.7816164E-02  0.1300439E+00
        -11   -1    0    0    0    0  0.00000000000E+00  0.00000000000E+00  0.45593999997E+02  0.45594000000E+02  0.51100000000E-03 0.  1.
         11   -1    0    0    0    0 -0.00000000000E+00 -0.00000000000E+00 -0.45593999997E+02  0.45594000000E+02  0.51100000000E-03 0. -1.
    9900012    2    1    2    0    0  0.17166234923E+01  0.21152392136E+02 -0.34681334717E+02  0.50528862441E+02  0.30000007875E+02 0.  0.
        -12    1    1    2    0    0 -0.17166234923E+01 -0.21152392136E+02  0.34681334717E+02  0.40659137559E+02  0.00000000000E+00 0.  1.
         11    1    3    3    0    0  0.37966346996E+01  0.87239386119E+01  0.32651881781E+01  0.10058975795E+02  0.51100000000E-03 0. -1.
        -11    1    3    3    0    0  0.12459448522E+01  0.59492889889E+01 -0.23734180371E+02  0.24500157881E+02  0.51100000000E-03 0.  1.
         12    1    3    3    0    0 -0.33259560595E+01  0.64791645351E+01 -0.14212342525E+02  0.15969728765E+02  0.00000000000E+00 0. -1.
</event>
<event>
 7    1  0.5019004E-011  0.5052886E+02  0.7816164E-02  0.1300439E+00
        -11   -1    0    0    0    0  0.00000000000E+00  0.00000000000E+00  0.45593999997E+02  0.45594000000E+02  0.51100000000E-03 0.  1.
         11   -1    0    0    0    0 -0.00000000000E+00 -0.00000000000E+00 -0.45593999997E+02  0.45594000000E+02  0.51100000000E-03 0. -1.
    9900012    2    1    2    0    0 -0.32963223189E+02 -0.21226936283E+02 -0.10770749558E+02  0.50528856464E+02  0.29999989709E+02 0.  0.
        -12    1    1    2    0    0  0.32963223189E+02  0.21226936283E+02  0.10770749558E+02  0.40659143536E+02  0.00000000000E+00 0.  1.
         11    1    3    3    0    0 -0.18360554679E+02 -0.20550768954E+02 -0.12543368782E+02  0.30278377985E+02  0.51100000000E-03 0. -1.
        -11    1    3    3    0    0 -0.55452585633E+01  0.48722220695E+01  0.52677239524E+01  0.90684814786E+01  0.51100000000E-03 0.  1.
        -12    1    3    3    0    0 -0.90574099471E+01 -0.55483893987E+01 -0.34951047289E+01  0.11181997001E+02  0.00000000000E+00 0.  1.
</event>
<event>
 7    1  0.5019004E-011  0.5052886E+02  0.7816164E-02  0.1300439E+00
        -11   -1    0    0    0    0  0.00000000000E+00  0.00000000000E+00  0.45593999997E+02  0.45594000000E+02  0.51100000000E-03 0.  1.
         11   -1    0    0    0    0 -0.00000000000E+00 -0.00000000000E+00 -0.45593999997E+02  0.45594000000E+02  0.51100000000E-03 0. -1.
    9900012    2    1    2    0    0  0.19540146269E+02  0.67451782262E+01 -0.35012155186E+02  0.50528858884E+02  0.29999997063E+02 0.  0.
        -12    1    1    2    0    0 -0.19540146269E+02 -0.67451782262E+01  0.35012155186E+02  0.40659141116E+02  0.00000000000E+00 0.  1.
         11    1    3    3    0    0  0.72870206272E+01  0.62207318326E+01 -0.25509663278E+02  0.27249607245E+02  0.51100000000E-03 0. -1.
        -11    1    3    3    0    0  0.97856202299E+01 -0.78250034794E+01 -0.51675234009E+01  0.13553314764E+02  0.51100000000E-03 0.  1.
        -12    1    3    3    0    0  0.24675054116E+01  0.83494498731E+01 -0.43349685074E+01  0.97259368751E+01  0.00000000000E+00 0.  1.
</event>
<event>
 7    1  0.5019004E-011  0.5052888E+02  0.7816164E-02  0.1300439E+00
        -11   -1    0    0    0    0  0.00000000000E+00  0.00000000000E+00  0.45593999997E+02  0.45594000000E+02  0.51100000000E-03 0.  1.
         11   -1    0    0    0    0 -0.00000000000E+00 -0.00000000000E+00 -0.45593999997E+02  0.45594000000E+02  0.51100000000E-03 0. -1.
    9900012    2    1    2    0    0  0.38148924248E+02  0.12684364258E+02  0.60770167665E+01  0.50528884777E+02  0.30000075768E+02 0.  0.
        -12    1    1    2    0    0 -0.38148924248E+02 -0.12684364258E+02 -0.60770167665E+01  0.40659115223E+02  0.00000000000E+00 0.  1.
         11    1    3    3    0    0  0.64007514289E+01 -0.11566523282E+00 -0.71854595203E+01  0.96236077476E+01  0.51100000000E-03 0. -1.
        -11    1    3    3    0    0  0.68184748469E+01 -0.18620596050E+01  0.93486844255E+01  0.11719930288E+02  0.51100000000E-03 0.  1.
        -12    1    3    3    0    0  0.24929697973E+02  0.14662089096E+02  0.39137918614E+01  0.29185346741E+02  0.00000000000E+00 0.  1.
</event>
<event>
 7    1  0.5019004E-011  0.5052886E+02  0.7816164E-02  0.1300439E+00
        -11   -1    0    0    0    0  0.00000000000E+00  0.00000000000E+00  0.45593999997E+02  0.45594000000E+02  0.51100000000E-03 0. -1.
         11   -1    0    0    0    0 -0.00000000000E+00 -0.00000000000E+00 -0.45593999997E+02  0.45594000000E+02  0.51100000000E-03 0.  1.
    9900012    2    1    2    0    0  0.11651405645E+02  0.87906582175E+01  0.37949109412E+02  0.50528857971E+02  0.29999994288E+02 0.  0.
        -12    1    1    2    0    0 -0.11651405645E+02 -0.87906582175E+01 -0.37949109412E+02  0.40659142029E+02  0.00000000000E+00 0.  1.
         11    1    3    3    0    0  0.77507591825E+01  0.11352166702E+02  0.16261211098E+02  0.21292556056E+02  0.51100000000E-03 0. -1.
        -11    1    3    3    0    0 -0.59424168932E+01 -0.66339249480E+01  0.88673821494E+01  0.12567885470E+02  0.51100000000E-03 0.  1.
        -12    1    3    3    0    0  0.98430633557E+01  0.40724164636E+01  0.12820516164E+02  0.16668416445E+02  0.00000000000E+00 0.  1.
</event>
<event>
 7    1  0.5019004E-011  0.5052886E+02  0.7816164E-02  0.1300439E+00
        -11   -1    0    0    0    0  0.00000000000E+00  0.00000000000E+00  0.45593999997E+02  0.45594000000E+02  0.51100000000E-03 0. -1.
         11   -1    0    0    0    0 -0.00000000000E+00 -0.00000000000E+00 -0.45593999997E+02  0.45594000000E+02  0.51100000000E-03 0.  1.
    9900012    2    1    2    0    0 -0.38058374964E+02 -0.11284372882E+01  0.14263678180E+02  0.50528858460E+02  0.29999995774E+02 0.  0.
        -12    1    1    2    0    0  0.38058374964E+02  0.11284372882E+01 -0.14263678180E+02  0.40659141540E+02  0.00000000000E+00 0.  1.
         11    1    3    3    0    0 -0.27879978225E+02 -0.11600959106E+02  0.70883492945E+01  0.31018061416E+02  0.51100000000E-03 0. -1.
        -11    1    3    3    0    0  0.10312299772E+01  0.50726193016E+01  0.43265094316E+01  0.67463757653E+01  0.51100000000E-03 0.  1.
         12    1    3    3    0    0 -0.11209626716E+02  0.53999025162E+01  0.28488194535E+01  0.12764421278E+02  0.00000000000E+00 0. -1.
</event>
<event>
 7    1  0.5019004E-011  0.5052886E+02  0.7816164E-02  0.1300439E+00
        -11   -1    0    0    0    0  0.00000000000E+00  0.00000000000E+00  0.45593999997E+02  0.45594000000E+02  0.51100000000E-03 0. -1.
         11   -1    0    0    0    0 -0.00000000000E+00 -0.00000000000E+00 -0.45593999997E+02  0.45594000000E+02  0.51100000000E-03 0.  1.
    9900012    2    1    2    0    0  0.15502847812E+02 -0.34494192239E+02  0.14932462441E+02  0.50528855603E+02  0.29999987091E+02 0.  0.
        -12    1    1    2    0    0 -0.15502847812E+02  0.34494192239E+02 -0.14932462441E+02  0.40659144397E+02  0.00000000000E+00 0.  1.
         11    1    3    3    0    0  0.17824690368E+02 -0.16142992357E+02  0.16679665093E+02  0.29266482823E+02  0.51100000000E-03 0. -1.
        -11    1    3    3    0    0 -0.17839994482E+01 -0.15746073049E+02  0.27050151106E+01  0.16076024929E+02  0.51100000000E-03 0.  1.
        -12    1    3    3    0    0 -0.53784310759E+00 -0.26051268334E+01 -0.44522177629E+01  0.51863478513E+01  0.00000000000E+00 0.  1.
</event>
<event>
 7    1  0.5019004E-011  0.5052885E+02  0.7816164E-02  0.1300439E+00
        -11   -1    0    0    0    0  0.00000000000E+00  0.00000000000E+00  0.45593999997E+02  0.45594000000E+02  0.51100000000E-03 0. -1.
         11   -1    0    0    0    0 -0.00000000000E+00 -0.00000000000E+00 -0.45593999997E+02  0.45594000000E+02  0.51100000000E-03 0.  1.
    9900012    2    1    2    0    0 -0.29772960371E+02  0.86310592473E+01  0.26310500671E+02  0.50528846067E+02  0.29999958106E+02 0.  0.
        -12    1    1    2    0    0  0.29772960371E+02 -0.86310592473E+01 -0.26310500671E+02  0.40659153933E+02  0.00000000000E+00 0.  1.
         11    1    3    3    0    0 -0.23338312795E+02  0.13991618396E+02  0.25952592069E+02  0.37602915642E+02  0.51100000000E-03 0. -1.
        -11    1    3    3    0    0 -0.86631277220E+01 -0.56623310358E+01  0.14065665477E+01  0.10444625623E+02  0.51100000000E-03 0.  1.
         12    1    3    3    0    0  0.22284801461E+01  0.30177188694E+00 -0.10486579457E+01  0.24813048020E+01  0.00000000000E+00 0. -1.
</event>
<event>
 7    1  0.5019004E-011  0.5052885E+02  0.7816164E-02  0.1300439E+00
        -11   -1    0    0    0    0  0.00000000000E+00  0.00000000000E+00  0.45593999997E+02  0.45594000000E+02  0.51100000000E-03 0.  1.
         11   -1    0    0    0    0 -0.00000000000E+00 -0.00000000000E+00 -0.45593999997E+02  0.45594000000E+02  0.51100000000E-03 0. -1.
    9900012    2    1    2    0    0 -0.22721386684E+02 -0.25166023743E+02 -0.22440513418E+02  0.50528845971E+02  0.29999957815E+02 0.  0.
        -12    1    1    2    0    0  0.22721386684E+02  0.25166023743E+02  0.22440513418E+02  0.40659154029E+02  0.00000000000E+00 0.  1.
         11    1    3    3    0    0 -0.91495933286E+01 -0.12395323432E+02 -0.17829236135E+02  0.23563547324E+02  0.51100000000E-03 0. -1.
        -11    1    3    3    0    0 -0.99894708232E+01 -0.16749771415E+02  0.57542830534E+00  0.19510906892E+02  0.51100000000E-03 0.  1.
        -12    1    3    3    0    0 -0.35823225318E+01  0.39790711042E+01 -0.51867055890E+01  0.74543917553E+01  0.00000000000E+00 0.  1.
</event>
<event>
 7    1  0.5019004E-011  0.5052887E+02  0.7816164E-02  0.1300439E+00
        -11   -1    0    0    0    0  0.00000000000E+00  0.00000000000E+00  0.45593999997E+02  0.45594000000E+02  0.51100000000E-03 0. -1.
         11   -1    0    0    0    0 -0.00000000000E+00 -0.00000000000E+00 -0.45593999997E+02  0.45594000000E+02  0.51100000000E-03 0.  1.
    9900012    2    1    2    0    0 -0.10214902388E+02 -0.14829548123E+01  0.39327111991E+02  0.50528866668E+02  0.30000020724E+02 0.  0.
        -12    1    1    2    0    0  0.10214902388E+02  0.14829548123E+01 -0.39327111991E+02  0.40659133332E+02  0.00000000000E+00 0.  1.
         11    1    3    3    0    0 -0.89146755841E+00  0.60513185461E+01  0.80841433575E+01  0.10137383520E+02  0.51100000000E-03 0. -1.
        -11    1    3    3    0    0 -0.62377372024E+01 -0.15504121864E+02  0.23654017120E+02  0.28962038712E+02  0.51100000000E-03 0.  1.
        -12    1    3    3    0    0 -0.30856976271E+01  0.79698485053E+01  0.75889515131E+01  0.11429444436E+02  0.00000000000E+00 0.  1.
</event>
<event>
 7    1  0.5019004E-011  0.5052886E+02  0.7816164E-02  0.1300439E+00
        -11   -1    0    0    0    0  0.00000000000E+00  0.00000000000E+00  0.45593999997E+02  0.45594000000E+02  0.51100000000E-03 0. -1.
         11   -1    0    0    0    0 -0.00000000000E+00 -0.00000000000E+00 -0.45593999997E+02  0.45594000000E+02  0.51100000000E-03 0.  1.
    9900012    2    1    2    0    0  0.39362842546E+02  0.10091097986E+02  0.13790709819E+01  0.50528862422E+02  0.30000007817E+02 0.  0.
        -12    1    1    2    0    0 -0.39362842546E+02 -0.10091097986E+02 -0.13790709819E+01  0.40659137578E+02  0.00000000000E+00 0.  1.
         11    1    3    3    0    0  0.34122652854E+02  0.24890608549E+01 -0.66146823884E+01  0.34846877695E+02  0.51100000000E-03 0.  1.
        -11    1    3    3    0    0 -0.11313859241E+01  0.61796594444E+01  0.14686488041E+01  0.64517559260E+01  0.51100000000E-03 0. -1.
         12    1    3    3    0    0  0.63715756161E+01  0.14223776863E+01  0.65251045662E+01  0.92302288007E+01  0.00000000000E+00 0. -1.
</event>
<event>
 7    1  0.5019004E-011  0.5052886E+02  0.7816164E-02  0.1300439E+00
        -11   -1    0    0    0    0  0.00000000000E+00  0.00000000000E+00  0.45593999997E+02  0.45594000000E+02  0.51100000000E-03 0. -1.
         11   -1    0    0    0    0 -0.00000000000E+00 -0.00000000000E+00 -0.45593999997E+02  0.45594000000E+02  0.51100000000E-03 0.  1.
    9900012    2    1    2    0    0 -0.17802777824E+02  0.33440454748E+02  0.14763571888E+02  0.50528856294E+02  0.29999989192E+02 0.  0.
        -12    1    1    2    0    0  0.17802777824E+02 -0.33440454748E+02 -0.14763571888E+02  0.40659143706E+02  0.00000000000E+00 0.  1.
         11    1    3    3    0    0 -0.41720650355E+00  0.54866341198E+01 -0.54832033991E+01  0.77680586383E+01  0.51100000000E-03 0. -1.
        -11    1    3    3    0    0 -0.17599003460E+02  0.11133489070E+02  0.11838269604E+02  0.23954626467E+02  0.51100000000E-03 0.  1.
         12    1    3    3    0    0  0.21343213964E+00  0.16820331558E+02  0.84085056825E+01  0.18806171189E+02  0.00000000000E+00 0. -1.
</event>
<event>
 7    1  0.5019004E-011  0.5052886E+02  0.7816164E-02  0.1300439E+00
        -11   -1    0    0    0    0  0.00000000000E+00  0.00000000000E+00  0.45593999997E+02  0.45594000000E+02  0.51100000000E-03 0.  1.
         11   -1    0    0    0    0 -0.00000000000E+00 -0.00000000000E+00 -0.45593999997E+02  0.45594000000E+02  0.51100000000E-03 0. -1.
    9900012    2    1    2    0    0 -0.20661974878E+02 -0.11846851846E+02 -0.32953005036E+02  0.50528860248E+02  0.30000001209E+02 0.  0.
        -12    1    1    2    0    0  0.20661974878E+02  0.11846851846E+02  0.32953005036E+02  0.40659139752E+02  0.00000000000E+00 0.  1.
         11    1    3    3    0    0 -0.82441225526E+01 -0.24448700180E+01 -0.31742449614E+02  0.32886563424E+02  0.51100000000E-03 0. -1.
        -11    1    3    3    0    0 -0.44018070041E+01 -0.18052976813E+01  0.32178648377E+01  0.57436625070E+01  0.51100000000E-03 0.  1.
         12    1    3    3    0    0 -0.80160453212E+01 -0.75966841467E+01 -0.44284202591E+01  0.11898634317E+02  0.00000000000E+00 0. -1.
</event>
<event>
 7    1  0.5019004E-011  0.5052888E+02  0.7816164E-02  0.1300439E+00
        -11   -1    0    0    0    0  0.00000000000E+00  0.00000000000E+00  0.45593999997E+02  0.45594000000E+02  0.51100000000E-03 0. -1.
         11   -1    0    0    0    0 -0.00000000000E+00 -0.00000000000E+00 -0.45593999997E+02  0.45594000000E+02  0.51100000000E-03 0.  1.
    9900012    2    1    2    0    0  0.65555344927E+01  0.34852704636E+02  0.19886632199E+02  0.50528878107E+02  0.30000055494E+02 0.  0.
        -12    1    1    2    0    0 -0.65555344927E+01 -0.34852704636E+02 -0.19886632199E+02  0.40659121893E+02  0.00000000000E+00 0.  1.
         11    1    3    3    0    0  0.45619532452E+01  0.33784377406E+02  0.20113589706E+02  0.39582219054E+02  0.51100000000E-03 0. -1.
        -11    1    3    3    0    0  0.61935119783E+01  0.10366614341E+01  0.14149086500E+01  0.64370975061E+01  0.51100000000E-03 0.  1.
         12    1    3    3    0    0 -0.41999307307E+01  0.31665795478E-01 -0.16418661574E+01  0.45095615467E+01  0.00000000000E+00 0. -1.
</event>
<event>
 7    1  0.5019004E-011  0.5052886E+02  0.7816164E-02  0.1300439E+00
        -11   -1    0    0    0    0  0.00000000000E+00  0.00000000000E+00  0.45593999997E+02  0.45594000000E+02  0.51100000000E-03 0.  1.
         11   -1    0    0    0    0 -0.00000000000E+00 -0.00000000000E+00 -0.45593999997E+02  0.45594000000E+02  0.51100000000E-03 0. -1.
    9900012    2    1    2    0    0 -0.24381509279E+02 -0.27865635651E+02 -0.16799223658E+02  0.50528861292E+02  0.30000004384E+02 0.  0.
        -12    1    1    2    0    0  0.24381509279E+02  0.27865635651E+02  0.16799223658E+02  0.40659138708E+02  0.00000000000E+00 0.  1.
         11    1    3    3    0    0 -0.15581899686E+02 -0.45281441494E+01  0.18192996294E+01  0.16328182344E+02  0.51100000000E-03 0.  1.
        -11    1    3    3    0    0 -0.97352604069E+00 -0.17211479668E+02 -0.16849690810E+02  0.24105909358E+02  0.51100000000E-03 0. -1.
         12    1    3    3    0    0 -0.78260835529E+01 -0.61260118334E+01 -0.17688324775E+01  0.10094769591E+02  0.00000000000E+00 0. -1.
</event>
<event>
 7    1  0.5019004E-011  0.5052890E+02  0.7816164E-02  0.1300439E+00
        -11   -1    0    0    0    0  0.00000000000E+00  0.00000000000E+00  0.45593999997E+02  0.45594000000E+02  0.51100000000E-03 0.  1.
         11   -1    0    0    0    0 -0.00000000000E+00 -0.00000000000E+00 -0.45593999997E+02  0.45594000000E+02  0.51100000000E-03 0. -1.
    9900012    2    1    2    0    0  0.15141077823E+02  0.31524294157E+01 -0.37602826397E+02  0.50528897675E+02  0.30000114972E+02 0.  0.
        -12    1    1    2    0    0 -0.15141077823E+02 -0.31524294157E+01  0.37602826397E+02  0.40659102325E+02  0.00000000000E+00 0.  1.
         11    1    3    3    0    0  0.88285392571E+01  0.25184125462E+01 -0.12329865840E+01  0.92631400370E+01  0.51100000000E-03 0. -1.
        -11    1    3    3    0    0  0.97887882123E+01  0.54289390627E+01 -0.32012603844E+02  0.33913132547E+02  0.51100000000E-03 0.  1.
        -12    1    3    3    0    0 -0.34762496463E+01 -0.47949221932E+01 -0.43572359691E+01  0.73526250913E+01  0.00000000000E+00 0.  1.
</event>
<event>
 7    1  0.5019004E-011  0.5052886E+02  0.7816164E-02  0.1300439E+00
        -11   -1    0    0    0    0  0.00000000000E+00  0.00000000000E+00  0.45593999997E+02  0.45594000000E+02  0.51100000000E-03 0.  1.
         11   -1    0    0    0    0 -0.00000000000E+00 -0.00000000000E+00 -0.45593999997E+02  0.45594000000E+02  0.51100000000E-03 0. -1.
    9900012    2    1    2    0    0  0.12873920279E+02 -0.15774439036E+02 -0.35193678732E+02  0.50528858679E+02  0.29999996440E+02 0.  0.
        -12    1    1    2    0    0 -0.12873920279E+02  0.15774439036E+02  0.35193678732E+02  0.40659141321E+02  0.00000000000E+00 0.  1.
         11    1    3    3    0    0  0.10749750148E+02  0.82080536037E+00 -0.29668356098E+02  0.31566472775E+02  0.51100000000E-03 0. -1.
        -11    1    3    3    0    0  0.66650199820E+00 -0.91777228471E+01  0.61639402157E+00  0.92225139427E+01  0.51100000000E-03 0.  1.
         12    1    3    3    0    0  0.14576681333E+01 -0.74175215495E+01 -0.61417166563E+01  0.97398719607E+01  0.00000000000E+00 0. -1.
</event>
<event>
 7    1  0.5019004E-011  0.5052886E+02  0.7816164E-02  0.1300439E+00
        -11   -1    0    0    0    0  0.00000000000E+00  0.00000000000E+00  0.45593999997E+02  0.45594000000E+02  0.51100000000E-03 0.  1.
         11   -1    0    0    0    0 -0.00000000000E+00 -0.00000000000E+00 -0.45593999997E+02  0.45594000000E+02  0.51100000000E-03 0. -1.
    9900012    2    1    2    0    0  0.25834603291E+01 -0.19112448006E+02 -0.35793937083E+02  0.50528857511E+02  0.29999992891E+02 0.  0.
        -12    1    1    2    0    0 -0.25834603291E+01  0.19112448006E+02  0.35793937083E+02  0.40659142489E+02  0.00000000000E+00 0.  1.
         11    1    3    3    0    0  0.44922133538E+01 -0.95331144896E+01 -0.25660210109E+02  0.27739982621E+02  0.51100000000E-03 0. -1.
        -11    1    3    3    0    0 -0.33263742194E+01 -0.23039131201E+01  0.47027180083E+01  0.62038970042E+01  0.51100000000E-03 0.  1.
        -12    1    3    3    0    0  0.14176211948E+01 -0.72754203965E+01 -0.14836444981E+02  0.16584977886E+02  0.00000000000E+00 0.  1.
</event>
<event>
 7    1  0.5019004E-011  0.5052887E+02  0.7816164E-02  0.1300439E+00
        -11   -1    0    0    0    0  0.00000000000E+00  0.00000000000E+00  0.45593999997E+02  0.45594000000E+02  0.51100000000E-03 0.  1.
         11   -1    0    0    0    0 -0.00000000000E+00 -0.00000000000E+00 -0.45593999997E+02  0.45594000000E+02  0.51100000000E-03 0. -1.
    9900012    2    1    2    0    0  0.73675452299E+01 -0.30354496283E+02 -0.26028619837E+02  0.50528865504E+02  0.30000017187E+02 0.  0.
        -12    1    1    2    0    0 -0.73675452299E+01  0.30354496283E+02  0.26028619837E+02  0.40659134496E+02  0.00000000000E+00 0.  1.
         11    1    3    3    0    0  0.11390329398E+01 -0.10819446569E+02 -0.53031379255E+01  0.12102937338E+02  0.51100000000E-03 0. -1.
        -11    1    3    3    0    0  0.41451395254E+00  0.55295946093E+01 -0.79657227534E+01  0.97057188093E+01  0.51100000000E-03 0.  1.
        -12    1    3    3    0    0  0.58139983376E+01 -0.25064644324E+02 -0.12759759158E+02  0.28720209357E+02  0.00000000000E+00 0.  1.
</event>
<event>
 7    1  0.5019004E-011  0.5052886E+02  0.7816164E-02  0.1300439E+00
        -11   -1    0    0    0    0  0.00000000000E+00  0.00000000000E+00  0.45593999997E+02  0.45594000000E+02  0.51100000000E-03 0. -1.
         11   -1    0    0    0    0 -0.00000000000E+00 -0.00000000000E+00 -0.45593999997E+02  0.45594000000E+02  0.51100000000E-03 0.  1.
    9900012    2    1    2    0    0 -0.56579914649E+01  0.15460074763E+01  0.40233845881E+02  0.50528863746E+02  0.30000011843E+02 0.  0.
        -12    1    1    2    0    0  0.56579914649E+01 -0.15460074763E+01 -0.40233845881E+02  0.40659136254E+02  0.00000000000E+00 0.  1.
         11    1    3    3    0    0 -0.54758144520E+01 -0.86502317300E+01  0.26870803062E+02  0.28755018873E+02  0.51100000000E-03 0. -1.
        -11    1    3    3    0    0  0.37726893083E+01 -0.13946977601E+00 -0.74012094710E+00  0.38471308416E+01  0.51100000000E-03 0.  1.
         12    1    3    3    0    0 -0.39548663212E+01  0.10335708982E+02  0.14103163766E+02  0.17926714032E+02  0.00000000000E+00 0. -1.
</event>
<event>
 7    1  0.5019004E-011  0.5052886E+02  0.7816164E-02  0.1300439E+00
        -11   -1    0    0    0    0  0.00000000000E+00  0.00000000000E+00  0.45593999997E+02  0.45594000000E+02  0.51100000000E-03 0.  1.
         11   -1    0    0    0    0 -0.00000000000E+00 -0.00000000000E+00 -0.45593999997E+02  0.45594000000E+02  0.51100000000E-03 0. -1.
    9900012    2    1    2    0    0  0.85889307163E+01 -0.39576845222E+02 -0.36151891954E+01  0.50528855869E+02  0.29999987899E+02 0.  0.
        -12    1    1    2    0    0 -0.85889307163E+01  0.39576845222E+02  0.36151891954E+01  0.40659144131E+02  0.00000000000E+00 0.  1.
         11    1    3    3    0    0  0.52110490867E+01 -0.18527164759E+02 -0.33050603036E+01  0.19527782528E+02  0.51100000000E-03 0. -1.
        -11    1    3    3    0    0 -0.56972565465E+01 -0.61426084355E+01  0.80776936543E+01  0.11637847979E+02  0.51100000000E-03 0.  1.
        -12    1    3    3    0    0  0.90751381761E+01 -0.14907072027E+02 -0.83878225461E+01  0.19363225361E+02  0.00000000000E+00 0.  1.
</event>
<event>
 7    1  0.5019004E-011  0.5052885E+02  0.7816164E-02  0.1300439E+00
        -11   -1    0    0    0    0  0.00000000000E+00  0.00000000000E+00  0.45593999997E+02  0.45594000000E+02  0.51100000000E-03 0.  1.
         11   -1    0    0    0    0 -0.00000000000E+00 -0.00000000000E+00 -0.45593999997E+02  0.45594000000E+02  0.51100000000E-03 0. -1.
    9900012    2    1    2    0    0  0.28790426443E+02 -0.27720774638E+02  0.74723568066E+01  0.50528854442E+02  0.29999983561E+02 0.  0.
        -12    1    1    2    0    0 -0.28790426443E+02  0.27720774638E+02 -0.74723568066E+01  0.40659145558E+02  0.00000000000E+00 0.  1.
         11    1    3    3    0    0  0.61370922632E+01  0.15846251448E+01 -0.29939891335E+01  0.70099150843E+01  0.51100000000E-03 0. -1.
        -11    1    3    3    0    0  0.95956429901E+01 -0.89180693958E+01  0.13860757237E+02  0.19071678415E+02  0.51100000000E-03 0.  1.
        -12    1    3    3    0    0  0.13057691190E+02 -0.20387330386E+02 -0.33944112968E+01  0.24447260942E+02  0.00000000000E+00 0.  1.
</event>
<event>
 7    1  0.5019004E-011  0.5052887E+02  0.7816164E-02  0.1300439E+00
        -11   -1    0    0    0    0  0.00000000000E+00  0.00000000000E+00  0.45593999997E+02  0.45594000000E+02  0.51100000000E-03 0.  1.
         11   -1    0    0    0    0 -0.00000000000E+00 -0.00000000000E+00 -0.45593999997E+02  0.45594000000E+02  0.51100000000E-03 0. -1.
    9900012    2    1    2    0    0 -0.31205228636E+02  0.20304534497E+02 -0.16343938451E+02  0.50528871388E+02  0.30000035071E+02 0.  0.
        -12    1    1    2    0    0  0.31205228636E+02 -0.20304534497E+02  0.16343938451E+02  0.40659128612E+02  0.00000000000E+00 0.  1.
         11    1    3    3    0    0 -0.14812835089E+02  0.61257864783E+01  0.44526108265E+01  0.16636438525E+02  0.51100000000E-03 0.  1.
        -11    1    3    3    0    0 -0.17983101342E+02  0.13870554256E+02 -0.13504710482E+02  0.26422744269E+02  0.51100000000E-03 0. -1.
        -12    1    3    3    0    0  0.15907077945E+01  0.30819376332E+00 -0.72918387952E+01  0.74696885945E+01  0.00000000000E+00 0.  1.
</event>
<event>
 7    1  0.5019004E-011  0.5052886E+02  0.7816164E-02  0.1300439E+00
        -11   -1    0    0    0    0  0.00000000000E+00  0.00000000000E+00  0.45593999997E+02  0.45594000000E+02  0.51100000000E-03 0. -1.
         11   -1    0    0    0    0 -0.00000000000E+00 -0.00000000000E+00 -0.45593999997E+02  0.45594000000E+02  0.51100000000E-03 0.  1.
    9900012    2    1    2    0    0  0.27690364934E+02 -0.89124742713E+01  0.28407346309E+02  0.50528857952E+02  0.29999994230E+02 0.  0.
        -12    1    1    2    0    0 -0.27690364934E+02  0.89124742713E+01 -0.28407346309E+02  0.40659142048E+02  0.00000000000E+00 0.  1.
         11    1    3    3    0    0 -0.27947297048E+01 -0.22375248283E-01  0.11027465453E+02  0.11376115741E+02  0.51100000000E-03 0. -1.
        -11    1    3    3    0    0  0.11904482306E+02 -0.10068267664E+02  0.36310753521E+01  0.16008479665E+02  0.51100000000E-03 0.  1.
         12    1    3    3    0    0  0.18580612333E+02  0.11781686406E+01  0.13748805504E+02  0.23144262546E+02  0.00000000000E+00 0. -1.
</event>
<event>
 7    1  0.5019004E-011  0.5052886E+02  0.7816164E-02  0.1300439E+00
        -11   -1    0    0    0    0  0.00000000000E+00  0.00000000000E+00  0.45593999997E+02  0.45594000000E+02  0.51100000000E-03 0. -1.
         11   -1    0    0    0    0 -0.00000000000E+00 -0.00000000000E+00 -0.45593999997E+02  0.45594000000E+02  0.51100000000E-03 0.  1.
    9900012    2    1    2    0    0  0.23503109227E+02  0.33086686945E+02  0.24577499784E+01  0.50528861651E+02  0.30000005474E+02 0.  0.
        -12    1    1    2    0    0 -0.23503109227E+02 -0.33086686945E+02 -0.24577499784E+01  0.40659138349E+02  0.00000000000E+00 0.  1.
         11    1    3    3    0    0  0.12688966702E+02  0.33770326541E+01 -0.28669315932E+01  0.13439997118E+02  0.51100000000E-03 0. -1.
        -11    1    3    3    0    0 -0.29922262152E+01  0.18654582553E+02  0.12236085387E+01  0.18932619631E+02  0.51100000000E-03 0.  1.
         12    1    3    3    0    0  0.13806368740E+02  0.11055071738E+02  0.41010730329E+01  0.18156244902E+02  0.00000000000E+00 0. -1.
</event>
<event>
 7    1  0.5019004E-011  0.5052886E+02  0.7816164E-02  0.1300439E+00
        -11   -1    0    0    0    0  0.00000000000E+00  0.00000000000E+00  0.45593999997E+02  0.45594000000E+02  0.51100000000E-03 0. -1.
         11   -1    0    0    0    0 -0.00000000000E+00 -0.00000000000E+00 -0.45593999997E+02  0.45594000000E+02  0.51100000000E-03 0.  1.
    9900012    2    1    2    0    0 -0.13421301263E+01 -0.28696845587E+02  0.28772483224E+02  0.50528855263E+02  0.29999986056E+02 0.  0.
        -12    1    1    2    0    0  0.13421301263E+01  0.28696845587E+02 -0.28772483224E+02  0.40659144737E+02  0.00000000000E+00 0.  1.
         11    1    3    3    0    0  0.40667121716E+01 -0.10469372915E+02  0.25508825277E+02  0.27871958747E+02  0.51100000000E-03 0. -1.
        -11    1    3    3    0    0 -0.79405061140E+01 -0.60514540883E+01  0.15358743930E+01  0.10101021945E+02  0.51100000000E-03 0.  1.
        -12    1    3    3    0    0  0.25316638160E+01 -0.12176018584E+02  0.17277835544E+01  0.12555874571E+02  0.00000000000E+00 0.  1.
</event>
<event>
 7    1  0.5019004E-011  0.5052884E+02  0.7816164E-02  0.1300439E+00
        -11   -1    0    0    0    0  0.00000000000E+00  0.00000000000E+00  0.45593999997E+02  0.45594000000E+02  0.51100000000E-03 0.  1.
         11   -1    0    0    0    0 -0.00000000000E+00 -0.00000000000E+00 -0.45593999997E+02  0.45594000000E+02  0.51100000000E-03 0. -1.
    9900012    2    1    2    0    0 -0.27726963103E+02  0.26891484099E+02 -0.12697668943E+02  0.50528841173E+02  0.29999943230E+02 0.  0.
        -12    1    1    2    0    0  0.27726963103E+02 -0.26891484099E+02  0.12697668943E+02  0.40659158827E+02  0.00000000000E+00 0.  1.
         11    1    3    3    0    0 -0.31005726016E+01  0.10151823520E+02 -0.12984414286E+02  0.16771049039E+02  0.51100000000E-03 0. -1.
        -11    1    3    3    0    0 -0.23568095404E+02  0.19528352965E+02  0.12222622192E+01  0.30631774609E+02  0.51100000000E-03 0.  1.
        -12    1    3    3    0    0 -0.10582950967E+01 -0.27886923873E+01 -0.93551687596E+00  0.31260175252E+01  0.00000000000E+00 0.  1.
</event>
<event>
 7    1  0.5019004E-011  0.5052887E+02  0.7816164E-02  0.1300439E+00
        -11   -1    0    0    0    0  0.00000000000E+00  0.00000000000E+00  0.45593999997E+02  0.45594000000E+02  0.51100000000E-03 0. -1.
         11   -1    0    0    0    0 -0.00000000000E+00 -0.00000000000E+00 -0.45593999997E+02  0.45594000000E+02  0.51100000000E-03 0.  1.
    9900012    2    1    2    0    0  0.39638948612E+02 -0.70663546410E+01  0.56555793816E+01  0.50528865809E+02  0.30000018114E+02 0.  0.
        -12    1    1    2    0    0 -0.39638948612E+02  0.70663546410E+01 -0.56555793816E+01  0.40659134191E+02  0.00000000000E+00 0.  1.
         11    1    3    3    0    0  0.21662703764E+02  0.78778912561E+01  0.65931088328E+01  0.23975049308E+02  0.51100000000E-03 0. -1.
        -11    1    3    3    0    0  0.34532082859E+01 -0.65378124380E+01  0.48049598915E+01  0.88178953702E+01  0.51100000000E-03 0.  1.
         12    1    3    3    0    0  0.14523036563E+02 -0.84064334591E+01 -0.57424893427E+01  0.17735921131E+02  0.00000000000E+00 0. -1.
</event>
<event>
 7    1  0.5019004E-011  0.5052886E+02  0.7816164E-02  0.1300439E+00
        -11   -1    0    0    0    0  0.00000000000E+00  0.00000000000E+00  0.45593999997E+02  0.45594000000E+02  0.51100000000E-03 0.  1.
         11   -1    0    0    0    0 -0.00000000000E+00 -0.00000000000E+00 -0.45593999997E+02  0.45594000000E+02  0.51100000000E-03 0. -1.
    9900012    2    1    2    0    0  0.10744208640E+02 -0.37232059898E+02 -0.12308593015E+02  0.50528858770E+02  0.29999996718E+02 0.  0.
        -12    1    1    2    0    0 -0.10744208640E+02  0.37232059898E+02  0.12308593015E+02  0.40659141230E+02  0.00000000000E+00 0.  1.
         11    1    3    3    0    0 -0.41712694112E+00 -0.17339716476E+01 -0.18903353454E+01  0.25988498493E+01  0.51100000000E-03 0. -1.
        -11    1    3    3    0    0 -0.43698217243E+01  0.15291673981E+01  0.30898752950E+01  0.55660600458E+01  0.51100000000E-03 0.  1.
        -12    1    3    3    0    0  0.15531157306E+02 -0.37027255648E+02 -0.13508132964E+02  0.42363948875E+02  0.00000000000E+00 0.  1.
</event>
<event>
 7    1  0.5019004E-011  0.5052886E+02  0.7816164E-02  0.1300439E+00
        -11   -1    0    0    0    0  0.00000000000E+00  0.00000000000E+00  0.45593999997E+02  0.45594000000E+02  0.51100000000E-03 0.  1.
         11   -1    0    0    0    0 -0.00000000000E+00 -0.00000000000E+00 -0.45593999997E+02  0.45594000000E+02  0.51100000000E-03 0. -1.
    9900012    2    1    2    0    0 -0.34413044844E+02  0.99095208330E+01 -0.19253818751E+02  0.50528858407E+02  0.29999995615E+02 0.  0.
        -12    1    1    2    0    0  0.34413044844E+02 -0.99095208330E+01  0.19253818751E+02  0.40659141593E+02  0.00000000000E+00 0.  1.
         11    1    3    3    0    0 -0.25470792798E+02  0.20626483693E+01 -0.11971732691E+02  0.28219464700E+02  0.51100000000E-03 0. -1.
        -11    1    3    3    0    0 -0.23660706672E+01  0.90088288574E+01 -0.11199919626E+02  0.14566931306E+02  0.51100000000E-03 0.  1.
         12    1    3    3    0    0 -0.65761813782E+01 -0.11619563938E+01  0.39178335663E+01  0.77424624011E+01  0.00000000000E+00 0. -1.
</event>
<event>
 7    1  0.5019004E-011  0.5052886E+02  0.7816164E-02  0.1300439E+00
        -11   -1    0    0    0    0  0.00000000000E+00  0.00000000000E+00  0.45593999997E+02  0.45594000000E+02  0.51100000000E-03 0.  1.
         11   -1    0    0    0    0 -0.00000000000E+00 -0.00000000000E+00 -0.45593999997E+02  0.45594000000E+02  0.51100000000E-03 0. -1.
    9900012    2    1    2    0    0  0.92230051786E+01  0.28888614057E+02 -0.27084117841E+02  0.50528864669E+02  0.30000014648E+02 0.  0.
        -12    1    1    2    0    0 -0.92230051786E+01 -0.28888614057E+02  0.27084117841E+02  0.40659135331E+02  0.00000000000E+00 0.  1.
         11    1    3    3    0    0  0.16018677529E+02  0.16433616949E+02 -0.20583728095E+02  0.30827774139E+02  0.51100000000E-03 0. -1.
        -11    1    3    3    0    0 -0.76665573990E+01  0.37555709596E+01 -0.68586156810E+01  0.10950845853E+02  0.51100000000E-03 0.  1.
         12    1    3    3    0    0  0.87088504819E+00  0.86994261487E+01  0.35822593524E+00  0.87502446768E+01  0.00000000000E+00 0. -1.
</event>
<event>
 7    1  0.5019004E-011  0.5052886E+02  0.7816164E-02  0.1300439E+00
        -11   -1    0    0    0    0  0.00000000000E+00  0.00000000000E+00  0.45593999997E+02  0.45594000000E+02  0.51100000000E-03 0.  1.
         11   -1    0    0    0    0 -0.00000000000E+00 -0.00000000000E+00 -0.45593999997E+02  0.45594000000E+02  0.51100000000E-03 0. -1.
    9900012    2    1    2    0    0  0.18378193447E+02 -0.23370782482E+02 -0.27734716816E+02  0.50528856071E+02  0.29999988513E+02 0.  0.
        -12    1    1    2    0    0 -0.18378193447E+02  0.23370782482E+02  0.27734716816E+02  0.40659143929E+02  0.00000000000E+00 0.  1.
         11    1    3    3    0    0  0.79686255569E+00 -0.12445904768E+02 -0.16994951388E+02  0.21079940900E+02  0.51100000000E-03 0. -1.
        -11    1    3    3    0    0  0.20942140320E+02 -0.11494409643E+02 -0.84371844061E+01  0.25335366095E+02  0.51100000000E-03 0.  1.
        -12    1    3    3    0    0 -0.33608094283E+01  0.56953192922E+00 -0.23025810218E+01  0.41135490752E+01  0.00000000000E+00 0.  1.
</event>
<event>
 7    1  0.5019004E-011  0.5052887E+02  0.7816164E-02  0.1300439E+00
        -11   -1    0    0    0    0  0.00000000000E+00  0.00000000000E+00  0.45593999997E+02  0.45594000000E+02  0.51100000000E-03 0.  1.
         11   -1    0    0    0    0 -0.00000000000E+00 -0.00000000000E+00 -0.45593999997E+02  0.45594000000E+02  0.51100000000E-03 0. -1.
    9900012    2    1    2    0    0 -0.82668660845E+01 -0.21772730840E+02 -0.33328251822E+02  0.50528865078E+02  0.30000015893E+02 0.  0.
        -12    1    1    2    0    0  0.82668660845E+01  0.21772730840E+02  0.33328251822E+02  0.40659134922E+02  0.00000000000E+00 0.  1.
         11    1    3    3    0    0 -0.13316779159E+02 -0.22525765336E+02 -0.24119466067E+02  0.35587854034E+02  0.51100000000E-03 0. -1.
        -11    1    3    3    0    0  0.39432285947E+01  0.38208322934E+01 -0.10155750354E+02  0.11545002238E+02  0.51100000000E-03 0.  1.
        -12    1    3    3    0    0  0.11066844799E+01 -0.30677977969E+01  0.94696459899E+00  0.33960088063E+01  0.00000000000E+00 0.  1.
</event>
<event>
 7    1  0.5019004E-011  0.5052888E+02  0.7816164E-02  0.1300439E+00
        -11   -1    0    0    0    0  0.00000000000E+00  0.00000000000E+00  0.45593999997E+02  0.45594000000E+02  0.51100000000E-03 0.  1.
         11   -1    0    0    0    0 -0.00000000000E+00 -0.00000000000E+00 -0.45593999997E+02  0.45594000000E+02  0.51100000000E-03 0. -1.
    9900012    2    1    2    0    0  0.19397363735E+02 -0.22680959148E+02 -0.27613048344E+02  0.50528879663E+02  0.30000060222E+02 0.  0.
        -12    1    1    2    0    0 -0.19397363735E+02  0.22680959148E+02  0.27613048344E+02  0.40659120337E+02  0.00000000000E+00 0.  1.
         11    1    3    3    0    0 -0.51021133859E+01 -0.95775137908E+01 -0.12873652679E+02  0.16837198846E+02  0.51100000000E-03 0. -1.
        -11    1    3    3    0    0  0.10573074088E+02 -0.12148980270E+02 -0.58125635207E+01  0.17122310365E+02  0.51100000000E-03 0.  1.
         12    1    3    3    0    0  0.13926403033E+02 -0.95446508720E+00 -0.89268321446E+01  0.16569370452E+02  0.00000000000E+00 0. -1.
</event>
<event>
 7    1  0.5019004E-011  0.5052886E+02  0.7816164E-02  0.1300439E+00
        -11   -1    0    0    0    0  0.00000000000E+00  0.00000000000E+00  0.45593999997E+02  0.45594000000E+02  0.51100000000E-03 0.  1.
         11   -1    0    0    0    0 -0.00000000000E+00 -0.00000000000E+00 -0.45593999997E+02  0.45594000000E+02  0.51100000000E-03 0. -1.
    9900012    2    1    2    0    0 -0.31165854018E+02 -0.22432738838E+02 -0.13365167171E+02  0.50528856847E+02  0.29999990872E+02 0.  0.
        -12    1    1    2    0    0  0.31165854018E+02  0.22432738838E+02  0.13365167171E+02  0.40659143153E+02  0.00000000000E+00 0.  1.
         11    1    3    3    0    0 -0.23999559481E+02 -0.37946419654E+01 -0.15059345765E+02  0.28586046562E+02  0.51100000000E-03 0. -1.
        -11    1    3    3    0    0 -0.21718993884E+01 -0.11317273523E+02  0.48949489780E+01  0.12520317596E+02  0.51100000000E-03 0.  1.
         12    1    3    3    0    0 -0.49943951485E+01 -0.73208233496E+01 -0.32007703846E+01  0.94224926887E+01  0.00000000000E+00 0. -1.
</event>
<event>
 7    1  0.5019004E-011  0.5052884E+02  0.7816164E-02  0.1300439E+00
        -11   -1    0    0    0    0  0.00000000000E+00  0.00000000000E+00  0.45593999997E+02  0.45594000000E+02  0.51100000000E-03 0.  1.
         11   -1    0    0    0    0 -0.00000000000E+00 -0.00000000000E+00 -0.45593999997E+02  0.45594000000E+02  0.51100000000E-03 0. -1.
    9900012    2    1    2    0    0  0.27456953517E+01  0.48239051317E+01 -0.40278515200E+02  0.50528835100E+02  0.29999924769E+02 0.  0.
        -12    1    1    2    0    0 -0.27456953517E+01 -0.48239051317E+01  0.40278515200E+02  0.40659164900E+02  0.00000000000E+00 0.  1.
         11    1    3    3    0    0 -0.23789984943E+01 -0.58257221760E+00 -0.27033039232E+01  0.36478591786E+01  0.51100000000E-03 0. -1.
        -11    1    3    3    0    0  0.67800562666E+01 -0.19743029045E+01  0.13825040270E+01  0.71957176559E+01  0.51100000000E-03 0.  1.
        -12    1    3    3    0    0 -0.16553624207E+01  0.73807802538E+01 -0.38957715304E+02  0.39685258265E+02  0.00000000000E+00 0.  1.
</event>
<event>
 7    1  0.5019004E-011  0.5052885E+02  0.7816164E-02  0.1300439E+00
        -11   -1    0    0    0    0  0.00000000000E+00  0.00000000000E+00  0.45593999997E+02  0.45594000000E+02  0.51100000000E-03 0. -1.
         11   -1    0    0    0    0 -0.00000000000E+00 -0.00000000000E+00 -0.45593999997E+02  0.45594000000E+02  0.51100000000E-03 0.  1.
    9900012    2    1    2    0    0 -0.81910283481E+01  0.10302511882E+02  0.38469883649E+02  0.50528847962E+02  0.29999963864E+02 0.  0.
        -12    1    1    2    0    0  0.81910283481E+01 -0.10302511882E+02 -0.38469883649E+02  0.40659152038E+02  0.00000000000E+00 0.  1.
         11    1    3    3    0    0  0.23865111368E+01  0.66348987478E+01  0.12890310146E+02  0.14692767361E+02  0.51100000000E-03 0. -1.
        -11    1    3    3    0    0 -0.17361834422E+02  0.52010933252E+01  0.19091737416E+02  0.26324496275E+02  0.51100000000E-03 0.  1.
        -12    1    3    3    0    0  0.67842949374E+01 -0.15334801915E+01  0.64878360867E+01  0.95115843256E+01  0.00000000000E+00 0.  1.
</event>
<event>
 7    1  0.5019004E-011  0.5052886E+02  0.7816164E-02  0.1300439E+00
        -11   -1    0    0    0    0  0.00000000000E+00  0.00000000000E+00  0.45593999997E+02  0.45594000000E+02  0.51100000000E-03 0. -1.
         11   -1    0    0    0    0 -0.00000000000E+00 -0.00000000000E+00 -0.45593999997E+02  0.45594000000E+02  0.51100000000E-03 0.  1.
    9900012    2    1    2    0    0 -0.31196338900E+02  0.25477344364E+02  0.55550619345E+01  0.50528863884E+02  0.30000012262E+02 0.  0.
        -12    1    1    2    0    0  0.31196338900E+02 -0.25477344364E+02 -0.55550619345E+01  0.40659136116E+02  0.00000000000E+00 0.  1.
         11    1    3    3    0    0 -0.11677910401E+02  0.17028287975E+02  0.60821502811E+01  0.21525072242E+02  0.51100000000E-03 0. -1.
        -11    1    3    3    0    0  0.15351137714E+01  0.58803127903E+01 -0.43217283528E+01  0.74573446360E+01  0.51100000000E-03 0.  1.
        -12    1    3    3    0    0 -0.21053542271E+02  0.25687435980E+01  0.37946400063E+01  0.21546447006E+02  0.00000000000E+00 0.  1.
</event>
<event>
 7    1  0.5019004E-011  0.5052886E+02  0.7816164E-02  0.1300439E+00
        -11   -1    0    0    0    0  0.00000000000E+00  0.00000000000E+00  0.45593999997E+02  0.45594000000E+02  0.51100000000E-03 0. -1.
         11   -1    0    0    0    0 -0.00000000000E+00 -0.00000000000E+00 -0.45593999997E+02  0.45594000000E+02  0.51100000000E-03 0.  1.
    9900012    2    1    2    0    0 -0.40844967554E-01 -0.19664056161E+02  0.35587761745E+02  0.50528861309E+02  0.30000004436E+02 0.  0.
        -12    1    1    2    0    0  0.40844967554E-01  0.19664056161E+02 -0.35587761745E+02  0.40659138691E+02  0.00000000000E+00 0.  1.
         11    1    3    3    0    0 -0.10116202327E+01 -0.21042662867E+02  0.22858086793E+02  0.31085513799E+02  0.51100000000E-03 0. -1.
        -11    1    3    3    0    0  0.22661317764E+01  0.66077623230E+01  0.17319602990E+01  0.71970523747E+01  0.51100000000E-03 0.  1.
        -12    1    3    3    0    0 -0.12953565112E+01 -0.52291556168E+01  0.10997714653E+02  0.12246295136E+02  0.00000000000E+00 0.  1.
</event>
<event>
 7    1  0.5019004E-011  0.5052886E+02  0.7816164E-02  0.1300439E+00
        -11   -1    0    0    0    0  0.00000000000E+00  0.00000000000E+00  0.45593999997E+02  0.45594000000E+02  0.51100000000E-03 0. -1.
         11   -1    0    0    0    0 -0.00000000000E+00 -0.00000000000E+00 -0.45593999997E+02  0.45594000000E+02  0.51100000000E-03 0.  1.
    9900012    2    1    2    0    0 -0.12363477926E+02  0.38506580946E+02 -0.41896882057E+01  0.50528857734E+02  0.29999993568E+02 0.  0.
        -12    1    1    2    0    0  0.12363477926E+02 -0.38506580946E+02  0.41896882057E+01  0.40659142266E+02  0.00000000000E+00 0.  1.
         11    1    3    3    0    0  0.33533124960E+01  0.13417898084E+02  0.74457898074E+01  0.15707465735E+02  0.51100000000E-03 0. -1.
        -11    1    3    3    0    0 -0.13893692981E+02  0.16004548505E+02 -0.13820573950E+02  0.25301947397E+02  0.51100000000E-03 0.  1.
         12    1    3    3    0    0 -0.18230974417E+01  0.90841343561E+01  0.21850959372E+01  0.95194446023E+01  0.00000000000E+00 0. -1.
</event>
<event>
 7    1  0.5019004E-011  0.5052886E+02  0.7816164E-02  0.1300439E+00
        -11   -1    0    0    0    0  0.00000000000E+00  0.00000000000E+00  0.45593999997E+02  0.45594000000E+02  0.51100000000E-03 0.  1.
         11   -1    0    0    0    0 -0.00000000000E+00 -0.00000000000E+00 -0.45593999997E+02  0.45594000000E+02  0.51100000000E-03 0. -1.
    9900012    2    1    2    0    0  0.17098870551E+02 -0.36799621084E+02 -0.25656524489E+01  0.50528855167E+02  0.29999985765E+02 0.  0.
        -12    1    1    2    0    0 -0.17098870551E+02  0.36799621084E+02  0.25656524489E+01  0.40659144833E+02  0.00000000000E+00 0.  1.
         11    1    3    3    0    0  0.12288204351E+02 -0.14204065045E+02 -0.79059034571E+01  0.20377898314E+02  0.51100000000E-03 0. -1.
        -11    1    3    3    0    0  0.93389744609E+00 -0.13821625041E+02  0.12118384384E+02  0.18405562300E+02  0.51100000000E-03 0.  1.
        -12    1    3    3    0    0  0.38767687541E+01 -0.87739309982E+01 -0.67781333763E+01  0.11745394553E+02  0.00000000000E+00 0.  1.
</event>
<event>
 7    1  0.5019004E-011  0.5052886E+02  0.7816164E-02  0.1300439E+00
        -11   -1    0    0    0    0  0.00000000000E+00  0.00000000000E+00  0.45593999997E+02  0.45594000000E+02  0.51100000000E-03 0. -1.
         11   -1    0    0    0    0 -0.00000000000E+00 -0.00000000000E+00 -0.45593999997E+02  0.45594000000E+02  0.51100000000E-03 0.  1.
    9900012    2    1    2    0    0  0.19713267259E+02 -0.19908152789E+02  0.29465544928E+02  0.50528858452E+02  0.29999995750E+02 0.  0.
        -12    1    1    2    0    0 -0.19713267259E+02  0.19908152789E+02 -0.29465544928E+02  0.40659141548E+02  0.00000000000E+00 0.  1.
         11    1    3    3    0    0  0.23129990121E+01  0.27840006813E+01 -0.42137520914E+01  0.55548475382E+01  0.51100000000E-03 0. -1.
        -11    1    3    3    0    0  0.39237875935E+00  0.73963954195E+00  0.72929320538E+00  0.11103587633E+01  0.51100000000E-03 0.  1.
         12    1    3    3    0    0  0.17007889487E+02 -0.23431793013E+02  0.32950003814E+02  0.43863652150E+02  0.00000000000E+00 0. -1.
</event>
<event>
 7    1  0.5019004E-011  0.5052888E+02  0.7816164E-02  0.1300439E+00
        -11   -1    0    0    0    0  0.00000000000E+00  0.00000000000E+00  0.45593999997E+02  0.45594000000E+02  0.51100000000E-03 0.  1.
         11   -1    0    0    0    0 -0.00000000000E+00 -0.00000000000E+00 -0.45593999997E+02  0.45594000000E+02  0.51100000000E-03 0. -1.
    9900012    2    1    2    0    0 -0.23422893191E+02 -0.77535653314E+01 -0.32317393744E+02  0.50528884919E+02  0.30000076199E+02 0.  0.
        -12    1    1    2    0    0  0.23422893191E+02  0.77535653314E+01  0.32317393744E+02  0.40659115081E+02  0.00000000000E+00 0.  1.
         11    1    3    3    0    0 -0.95490636087E+01  0.69867565212E+01 -0.22869354052E+02  0.25748917210E+02  0.51100000000E-03 0. -1.
        -11    1    3    3    0    0 -0.35379942627E+01 -0.11566899424E+02 -0.50379517463E+01  0.13103111224E+02  0.51100000000E-03 0.  1.
         12    1    3    3    0    0 -0.10335835320E+02 -0.31734224282E+01 -0.44100879455E+01  0.11676856484E+02  0.00000000000E+00 0. -1.
</event>
<event>
 7    1  0.5019004E-011  0.5052885E+02  0.7816164E-02  0.1300439E+00
        -11   -1    0    0    0    0  0.00000000000E+00  0.00000000000E+00  0.45593999997E+02  0.45594000000E+02  0.51100000000E-03 0.  1.
         11   -1    0    0    0    0 -0.00000000000E+00 -0.00000000000E+00 -0.45593999997E+02  0.45594000000E+02  0.51100000000E-03 0. -1.
    9900012    2    1    2    0    0  0.11794015772E+02 -0.38762370388E+02  0.33979862917E+01  0.50528850022E+02  0.29999970127E+02 0.  0.
        -12    1    1    2    0    0 -0.11794015772E+02  0.38762370388E+02 -0.33979862917E+01  0.40659149978E+02  0.00000000000E+00 0.  1.
         11    1    3    3    0    0  0.44556808759E+01 -0.10359803524E+02 -0.12652059263E+02  0.16948546397E+02  0.51100000000E-03 0. -1.
        -11    1    3    3    0    0  0.56882435795E+01 -0.16746454470E+02  0.87989832405E+01  0.19754036516E+02  0.51100000000E-03 0.  1.
         12    1    3    3    0    0  0.16500913171E+01 -0.11656112393E+02  0.72510623142E+01  0.13826267109E+02  0.00000000000E+00 0. -1.
</event>
<event>
 7    1  0.5019004E-011  0.5052885E+02  0.7816164E-02  0.1300439E+00
        -11   -1    0    0    0    0  0.00000000000E+00  0.00000000000E+00  0.45593999997E+02  0.45594000000E+02  0.51100000000E-03 0.  1.
         11   -1    0    0    0    0 -0.00000000000E+00 -0.00000000000E+00 -0.45593999997E+02  0.45594000000E+02  0.51100000000E-03 0. -1.
    9900012    2    1    2    0    0 -0.20907046472E+02  0.34405542221E+02  0.56850878601E+01  0.50528854021E+02  0.29999982283E+02 0.  0.
        -12    1    1    2    0    0  0.20907046472E+02 -0.34405542221E+02 -0.56850878601E+01  0.40659145979E+02  0.00000000000E+00 0.  1.
         11    1    3    3    0    0 -0.16987080038E+02  0.30850706603E+02  0.10490373288E+01  0.35233896544E+02  0.51100000000E-03 0. -1.
        -11    1    3    3    0    0  0.50542777172E+01  0.11827405859E+01  0.80440754042E+00  0.52527773881E+01  0.51100000000E-03 0.  1.
        -12    1    3    3    0    0 -0.89742441515E+01  0.23720950326E+01  0.38316429908E+01  0.10042180089E+02  0.00000000000E+00 0.  1.
</event>
<event>
 7    1  0.5019004E-011  0.5052885E+02  0.7816164E-02  0.1300439E+00
        -11   -1    0    0    0    0  0.00000000000E+00  0.00000000000E+00  0.45593999997E+02  0.45594000000E+02  0.51100000000E-03 0.  1.
         11   -1    0    0    0    0 -0.00000000000E+00 -0.00000000000E+00 -0.45593999997E+02  0.45594000000E+02  0.51100000000E-03 0. -1.
    9900012    2    1    2    0    0  0.39079343475E+02  0.11146634706E+02  0.13131328287E+01  0.50528845195E+02  0.29999955453E+02 0.  0.
        -12    1    1    2    0    0 -0.39079343475E+02 -0.11146634706E+02 -0.13131328287E+01  0.40659154805E+02  0.00000000000E+00 0.  1.
         11    1    3    3    0    0  0.13321900078E+02  0.52526028337E+01  0.96739613187E+01  0.17281446296E+02  0.51100000000E-03 0. -1.
        -11    1    3    3    0    0  0.15352505065E+02  0.11797758561E+02 -0.88182269464E+01  0.21275517516E+02  0.51100000000E-03 0.  1.
        -12    1    3    3    0    0  0.10404938331E+02 -0.59037266888E+01  0.45739845627E+00  0.11971881383E+02  0.00000000000E+00 0.  1.
</event>
<event>
 7    1  0.5019004E-011  0.5052888E+02  0.7816164E-02  0.1300439E+00
        -11   -1    0    0    0    0  0.00000000000E+00  0.00000000000E+00  0.45593999997E+02  0.45594000000E+02  0.51100000000E-03 0.  1.
         11   -1    0    0    0    0 -0.00000000000E+00 -0.00000000000E+00 -0.45593999997E+02  0.45594000000E+02  0.51100000000E-03 0. -1.
    9900012    2    1    2    0    0 -0.18823390688E+02  0.21729206232E+02 -0.28752142938E+02  0.50528878465E+02  0.30000056582E+02 0.  0.
        -12    1    1    2    0    0  0.18823390688E+02 -0.21729206232E+02  0.28752142938E+02  0.40659121535E+02  0.00000000000E+00 0.  1.
         11    1    3    3    0    0  0.26231851409E+01  0.14992989928E+02 -0.27350702008E+01  0.15464522512E+02  0.51100000000E-03 0. -1.
        -11    1    3    3    0    0 -0.74463703985E+01 -0.98325049711E+00 -0.78545785706E+01  0.10867824917E+02  0.51100000000E-03 0.  1.
         12    1    3    3    0    0 -0.14000205431E+02  0.77194668009E+01 -0.18162494167E+02  0.24196531035E+02  0.00000000000E+00 0. -1.
</event>
<event>
 7    1  0.5019004E-011  0.5052886E+02  0.7816164E-02  0.1300439E+00
        -11   -1    0    0    0    0  0.00000000000E+00  0.00000000000E+00  0.45593999997E+02  0.45594000000E+02  0.51100000000E-03 0.  1.
         11   -1    0    0    0    0 -0.00000000000E+00 -0.00000000000E+00 -0.45593999997E+02  0.45594000000E+02  0.51100000000E-03 0. -1.
    9900012    2    1    2    0    0 -0.39002463015E+02 -0.10075898059E+02  0.55181478518E+01  0.50528858363E+02  0.29999995481E+02 0.  0.
        -12    1    1    2    0    0  0.39002463015E+02  0.10075898059E+02 -0.55181478518E+01  0.40659141637E+02  0.00000000000E+00 0.  1.
         11    1    3    3    0    0 -0.17937012344E+02  0.36855686539E+01  0.10767234321E+01  0.18343368331E+02  0.51100000000E-03 0. -1.
        -11    1    3    3    0    0 -0.92434852984E+00 -0.48213701450E+01  0.84645835444E+01  0.97851522789E+01  0.51100000000E-03 0.  1.
        -12    1    3    3    0    0 -0.20141102141E+02 -0.89400965678E+01 -0.40231591247E+01  0.22400337753E+02  0.00000000000E+00 0.  1.
</event>
<event>
 7    1  0.5019004E-011  0.5052878E+02  0.7816164E-02  0.1300439E+00
        -11   -1    0    0    0    0  0.00000000000E+00  0.00000000000E+00  0.45593999997E+02  0.45594000000E+02  0.51100000000E-03 0.  1.
         11   -1    0    0    0    0 -0.00000000000E+00 -0.00000000000E+00 -0.45593999997E+02  0.45594000000E+02  0.51100000000E-03 0. -1.
    9900012    2    1    2    0    0  0.42200109833E+01 -0.40334554875E+02  0.29133444433E+01  0.50528777362E+02  0.29999749268E+02 0.  0.
        -12    1    1    2    0    0 -0.42200109833E+01  0.40334554875E+02 -0.29133444433E+01  0.40659222638E+02  0.00000000000E+00 0.  1.
         11    1    3    3    0    0  0.12265968373E+02 -0.30341486360E+02 -0.44077566022E+01  0.33022539169E+02  0.51100000000E-03 0. -1.
        -11    1    3    3    0    0  0.17106841289E+01 -0.71419442988E-01  0.19383982763E+01  0.25862963992E+01  0.51100000000E-03 0.  1.
         12    1    3    3    0    0 -0.97566415182E+01 -0.99216490726E+01  0.53827027693E+01  0.14919941794E+02  0.00000000000E+00 0. -1.
</event>
<event>
 7    1  0.5019004E-011  0.5052887E+02  0.7816164E-02  0.1300439E+00
        -11   -1    0    0    0    0  0.00000000000E+00  0.00000000000E+00  0.45593999997E+02  0.45594000000E+02  0.51100000000E-03 0.  1.
         11   -1    0    0    0    0 -0.00000000000E+00 -0.00000000000E+00 -0.45593999997E+02  0.45594000000E+02  0.51100000000E-03 0. -1.
    9900012    2    1    2    0    0 -0.36616732147E+02 -0.73336382116E+01 -0.16080976255E+02  0.50528866711E+02  0.30000020854E+02 0.  0.
        -12    1    1    2    0    0  0.36616732147E+02  0.73336382116E+01  0.16080976255E+02  0.40659133289E+02  0.00000000000E+00 0.  1.
         11    1    3    3    0    0 -0.18702180465E+01 -0.96257197390E+01 -0.60674564022E+01  0.11531098104E+02  0.51100000000E-03 0. -1.
        -11    1    3    3    0    0 -0.22546610088E+02  0.35097120888E+01  0.53435052132E+00  0.22824400017E+02  0.51100000000E-03 0.  1.
         12    1    3    3    0    0 -0.12199904013E+02 -0.12176305614E+01 -0.10547870374E+02  0.16173368590E+02  0.00000000000E+00 0. -1.
</event>
<event>
 7    1  0.5019004E-011  0.5052886E+02  0.7816164E-02  0.1300439E+00
        -11   -1    0    0    0    0  0.00000000000E+00  0.00000000000E+00  0.45593999997E+02  0.45594000000E+02  0.51100000000E-03 0. -1.
         11   -1    0    0    0    0 -0.00000000000E+00 -0.00000000000E+00 -0.45593999997E+02  0.45594000000E+02  0.51100000000E-03 0.  1.
    9900012    2    1    2    0    0  0.19285097135E+02 -0.30934109410E+02  0.18009210982E+02  0.50528858633E+02  0.29999996302E+02 0.  0.
        -12    1    1    2    0    0 -0.19285097135E+02  0.30934109410E+02 -0.18009210982E+02  0.40659141367E+02  0.00000000000E+00 0.  1.
         11    1    3    3    0    0  0.84455964333E+01 -0.16962070578E+02 -0.17957037168E+01  0.19033246951E+02  0.51100000000E-03 0.  1.
        -11    1    3    3    0    0  0.47253782913E+01  0.32794504607E+01  0.74542756015E+01  0.94154245961E+01  0.51100000000E-03 0. -1.
         12    1    3    3    0    0  0.61141224100E+01 -0.17251489293E+02  0.12350639097E+02  0.22080187086E+02  0.00000000000E+00 0. -1.
</event>
<event>
 7    1  0.5019004E-011  0.5052886E+02  0.7816164E-02  0.1300439E+00
        -11   -1    0    0    0    0  0.00000000000E+00  0.00000000000E+00  0.45593999997E+02  0.45594000000E+02  0.51100000000E-03 0.  1.
         11   -1    0    0    0    0 -0.00000000000E+00 -0.00000000000E+00 -0.45593999997E+02  0.45594000000E+02  0.51100000000E-03 0. -1.
    9900012    2    1    2    0    0  0.14129943300E+02 -0.11307887495E+02 -0.36409369841E+02  0.50528857984E+02  0.29999994328E+02 0.  0.
        -12    1    1    2    0    0 -0.14129943300E+02  0.11307887495E+02  0.36409369841E+02  0.40659142016E+02  0.00000000000E+00 0.  1.
         11    1    3    3    0    0  0.79305079336E+01 -0.66048444412E+01 -0.15309851155E+02  0.18463706801E+02  0.51100000000E-03 0. -1.
        -11    1    3    3    0    0 -0.33007786849E+01  0.56071085507E+01  0.26437394422E+00  0.65118891321E+01  0.51100000000E-03 0.  1.
        -12    1    3    3    0    0  0.95002140510E+01 -0.10310151604E+02 -0.21363892631E+02  0.25553262051E+02  0.00000000000E+00 0.  1.
</event>
<event>
 7    1  0.5019004E-011  0.5052885E+02  0.7816164E-02  0.1300439E+00
        -11   -1    0    0    0    0  0.00000000000E+00  0.00000000000E+00  0.45593999997E+02  0.45594000000E+02  0.51100000000E-03 0. -1.
         11   -1    0    0    0    0 -0.00000000000E+00 -0.00000000000E+00 -0.45593999997E+02  0.45594000000E+02  0.51100000000E-03 0.  1.
    9900012    2    1    2    0    0  0.37724573811E+02 -0.11060101331E+02 -0.10377718459E+02  0.50528851570E+02  0.29999974832E+02 0.  0.
        -12    1    1    2    0    0 -0.37724573811E+02  0.11060101331E+02  0.10377718459E+02  0.40659148430E+02  0.00000000000E+00 0.  1.
         11    1    3    3    0    0  0.44501227441E+01 -0.15816171763E+01 -0.11327807646E+01  0.48567785467E+01  0.51100000000E-03 0. -1.
        -11    1    3    3    0    0  0.27135448931E+02 -0.18272244656E+02 -0.20918735450E+01  0.32780839658E+02  0.51100000000E-03 0.  1.
        -12    1    3    3    0    0  0.61390021353E+01  0.87937605009E+01 -0.71530641493E+01  0.12891233366E+02  0.00000000000E+00 0.  1.
</event>
<event>
 7    1  0.5019004E-011  0.5052882E+02  0.7816164E-02  0.1300439E+00
        -11   -1    0    0    0    0  0.00000000000E+00  0.00000000000E+00  0.45593999997E+02  0.45594000000E+02  0.51100000000E-03 0. -1.
         11   -1    0    0    0    0 -0.00000000000E+00 -0.00000000000E+00 -0.45593999997E+02  0.45594000000E+02  0.51100000000E-03 0.  1.
    9900012    2    1    2    0    0  0.28845125194E+01 -0.28850956745E+02  0.28503879857E+02  0.50528815497E+02  0.29999865183E+02 0.  0.
        -12    1    1    2    0    0 -0.28845125194E+01  0.28850956745E+02 -0.28503879857E+02  0.40659184503E+02  0.00000000000E+00 0.  1.
         11    1    3    3    0    0  0.54299238682E+01 -0.67122495366E+01  0.16568321150E+02  0.18682816518E+02  0.51100000000E-03 0. -1.
        -11    1    3    3    0    0  0.16046996608E+01 -0.19625074468E+02  0.80858807787E+00  0.19707166813E+02  0.51100000000E-03 0.  1.
        -12    1    3    3    0    0 -0.41501110097E+01 -0.25136327405E+01  0.11126970630E+02  0.12138832165E+02  0.00000000000E+00 0.  1.
</event>
<event>
 7    1  0.5019004E-011  0.5052886E+02  0.7816164E-02  0.1300439E+00
        -11   -1    0    0    0    0  0.00000000000E+00  0.00000000000E+00  0.45593999997E+02  0.45594000000E+02  0.51100000000E-03 0. -1.
         11   -1    0    0    0    0 -0.00000000000E+00 -0.00000000000E+00 -0.45593999997E+02  0.45594000000E+02  0.51100000000E-03 0.  1.
    9900012    2    1    2    0    0 -0.38995320999E+02 -0.11473138540E+02 -0.94763885586E+00  0.50528856044E+02  0.29999988432E+02 0.  0.
        -12    1    1    2    0    0  0.38995320999E+02  0.11473138540E+02  0.94763885586E+00  0.40659143956E+02  0.00000000000E+00 0.  1.
         11    1    3    3    0    0 -0.28299461532E+02 -0.69913152514E+01  0.72898744534E+01  0.30047966350E+02  0.51100000000E-03 0. -1.
        -11    1    3    3    0    0 -0.55883287823E+01 -0.94339497152E+01 -0.75938235307E+01  0.13337727763E+02  0.51100000000E-03 0.  1.
         12    1    3    3    0    0 -0.51075306850E+01  0.49521264267E+01 -0.64368977855E+00  0.71431619312E+01  0.00000000000E+00 0. -1.
</event>
<event>
 7    1  0.5019004E-011  0.5052886E+02  0.7816164E-02  0.1300439E+00
        -11   -1    0    0    0    0  0.00000000000E+00  0.00000000000E+00  0.45593999997E+02  0.45594000000E+02  0.51100000000E-03 0. -1.
         11   -1    0    0    0    0 -0.00000000000E+00 -0.00000000000E+00 -0.45593999997E+02  0.45594000000E+02  0.51100000000E-03 0.  1.
    9900012    2    1    2    0    0 -0.72886411616E+01  0.19429466239E+02  0.34964801320E+02  0.50528858596E+02  0.29999996190E+02 0.  0.
        -12    1    1    2    0    0  0.72886411616E+01 -0.19429466239E+02 -0.34964801320E+02  0.40659141404E+02  0.00000000000E+00 0.  1.
         11    1    3    3    0    0 -0.90766654245E+01  0.44323709606E+01  0.32559176940E+02  0.34090053840E+02  0.51100000000E-03 0. -1.
        -11    1    3    3    0    0  0.24143216164E+01  0.77464857226E+01 -0.13878796590E+01  0.82318406281E+01  0.51100000000E-03 0.  1.
         12    1    3    3    0    0 -0.62629735343E+00  0.72506095555E+01  0.37935040391E+01  0.82069641279E+01  0.00000000000E+00 0. -1.
</event>
<event>
 7    1  0.5019004E-011  0.5052886E+02  0.7816164E-02  0.1300439E+00
        -11   -1    0    0    0    0  0.00000000000E+00  0.00000000000E+00  0.45593999997E+02  0.45594000000E+02  0.51100000000E-03 0. -1.
         11   -1    0    0    0    0 -0.00000000000E+00 -0.00000000000E+00 -0.45593999997E+02  0.45594000000E+02  0.51100000000E-03 0.  1.
    9900012    2    1    2    0    0  0.60397265987E+00 -0.18914384830E+02  0.35986755805E+02  0.50528864128E+02  0.30000013004E+02 0.  0.
        -12    1    1    2    0    0 -0.60397265987E+00  0.18914384830E+02 -0.35986755805E+02  0.40659135872E+02  0.00000000000E+00 0.  1.
         11    1    3    3    0    0 -0.71881904279E+01 -0.19612478450E+02  0.11791156387E+02  0.23986470390E+02  0.51100000000E-03 0. -1.
        -11    1    3    3    0    0  0.90194297215E+01 -0.67609170769E+00  0.19392479309E+02  0.21398024827E+02  0.51100000000E-03 0.  1.
         12    1    3    3    0    0 -0.12272666338E+01  0.13741853278E+01  0.48031201095E+01  0.51443689109E+01  0.00000000000E+00 0. -1.
</event>
<event>
 7    1  0.5019004E-011  0.5052885E+02  0.7816164E-02  0.1300439E+00
        -11   -1    0    0    0    0  0.00000000000E+00  0.00000000000E+00  0.45593999997E+02  0.45594000000E+02  0.51100000000E-03 0.  1.
         11   -1    0    0    0    0 -0.00000000000E+00 -0.00000000000E+00 -0.45593999997E+02  0.45594000000E+02  0.51100000000E-03 0. -1.
    9900012    2    1    2    0    0 -0.10606030123E+02  0.42307805806E+01 -0.39022798831E+02  0.50528853330E+02  0.29999980182E+02 0.  0.
        -12    1    1    2    0    0  0.10606030123E+02 -0.42307805806E+01  0.39022798831E+02  0.40659146670E+02  0.00000000000E+00 0.  1.
         11    1    3    3    0    0 -0.14579687626E+02  0.44777336805E+01 -0.66070990084E+01  0.16621406311E+02  0.51100000000E-03 0.  1.
        -11    1    3    3    0    0 -0.19327155184E+01  0.16403853634E+01 -0.18499235910E+02  0.18672117795E+02  0.51100000000E-03 0. -1.
         12    1    3    3    0    0  0.59063730211E+01 -0.18873384633E+01 -0.13916463913E+02  0.15235329224E+02  0.00000000000E+00 0. -1.
</event>
<event>
 7    1  0.5019004E-011  0.5052885E+02  0.7816164E-02  0.1300439E+00
        -11   -1    0    0    0    0  0.00000000000E+00  0.00000000000E+00  0.45593999997E+02  0.45594000000E+02  0.51100000000E-03 0. -1.
         11   -1    0    0    0    0 -0.00000000000E+00 -0.00000000000E+00 -0.45593999997E+02  0.45594000000E+02  0.51100000000E-03 0.  1.
    9900012    2    1    2    0    0 -0.10355756133E+02  0.34610215130E+02  0.18656301986E+02  0.50528852441E+02  0.29999977480E+02 0.  0.
        -12    1    1    2    0    0  0.10355756133E+02 -0.34610215130E+02 -0.18656301986E+02  0.40659147559E+02  0.00000000000E+00 0.  1.
         11    1    3    3    0    0  0.12275274446E+01  0.11882650132E+02  0.17412185916E+02  0.21116070099E+02  0.51100000000E-03 0. -1.
        -11    1    3    3    0    0 -0.12243212711E+02  0.23051500485E+02  0.41379057329E+01  0.26427073167E+02  0.51100000000E-03 0.  1.
        -12    1    3    3    0    0  0.65992913352E+00 -0.32393548687E+00 -0.28937896630E+01  0.29857091745E+01  0.00000000000E+00 0.  1.
</event>
<event>
 7    1  0.5019004E-011  0.5052889E+02  0.7816164E-02  0.1300439E+00
        -11   -1    0    0    0    0  0.00000000000E+00  0.00000000000E+00  0.45593999997E+02  0.45594000000E+02  0.51100000000E-03 0.  1.
         11   -1    0    0    0    0 -0.00000000000E+00 -0.00000000000E+00 -0.45593999997E+02  0.45594000000E+02  0.51100000000E-03 0. -1.
    9900012    2    1    2    0    0 -0.22671412502E+02 -0.25386151107E+02 -0.22242152589E+02  0.50528893214E+02  0.30000101413E+02 0.  0.
        -12    1    1    2    0    0  0.22671412502E+02  0.25386151107E+02  0.22242152589E+02  0.40659106786E+02  0.00000000000E+00 0.  1.
         11    1    3    3    0    0  0.23711706527E+01  0.76434546574E+00 -0.88805206544E+01  0.92233573936E+01  0.51100000000E-03 0. -1.
        -11    1    3    3    0    0 -0.19307754225E+02 -0.14480766146E+02 -0.23177591176E+01  0.24245700010E+02  0.51100000000E-03 0.  1.
         12    1    3    3    0    0 -0.57348289290E+01 -0.11669730427E+02 -0.11043872817E+02  0.17059835810E+02  0.00000000000E+00 0. -1.
</event>
<event>
 7    1  0.5019004E-011  0.5052886E+02  0.7816164E-02  0.1300439E+00
        -11   -1    0    0    0    0  0.00000000000E+00  0.00000000000E+00  0.45593999997E+02  0.45594000000E+02  0.51100000000E-03 0. -1.
         11   -1    0    0    0    0 -0.00000000000E+00 -0.00000000000E+00 -0.45593999997E+02  0.45594000000E+02  0.51100000000E-03 0.  1.
    9900012    2    1    2    0    0  0.87945497162E+01  0.59153317542E+01  0.39253414105E+02  0.50528858673E+02  0.29999996424E+02 0.  0.
        -12    1    1    2    0    0 -0.87945497162E+01 -0.59153317542E+01 -0.39253414105E+02  0.40659141327E+02  0.00000000000E+00 0.  1.
         11    1    3    3    0    0 -0.27826672838E+01  0.17307007790E+01  0.33148716355E+01  0.46612162168E+01  0.51100000000E-03 0. -1.
        -11    1    3    3    0    0  0.19165619002E+02 -0.53905151692E-01  0.19920298249E+02  0.27643121027E+02  0.51100000000E-03 0.  1.
        -12    1    3    3    0    0 -0.75884020019E+01  0.42385361269E+01  0.16018244220E+02  0.18224521430E+02  0.00000000000E+00 0.  1.
</event>
<event>
 7    1  0.5019004E-011  0.5052887E+02  0.7816164E-02  0.1300439E+00
        -11   -1    0    0    0    0  0.00000000000E+00  0.00000000000E+00  0.45593999997E+02  0.45594000000E+02  0.51100000000E-03 0.  1.
         11   -1    0    0    0    0 -0.00000000000E+00 -0.00000000000E+00 -0.45593999997E+02  0.45594000000E+02  0.51100000000E-03 0. -1.
    9900012    2    1    2    0    0 -0.21774889633E+02  0.57329722539E+01 -0.33854870652E+02  0.50528867493E+02  0.30000023231E+02 0.  0.
        -12    1    1    2    0    0  0.21774889633E+02 -0.57329722539E+01  0.33854870652E+02  0.40659132507E+02  0.00000000000E+00 0.  1.
         11    1    3    3    0    0 -0.18038243513E+02 -0.12547427729E-01 -0.22665667944E+02  0.28967410828E+02  0.51100000000E-03 0. -1.
        -11    1    3    3    0    0  0.66427469381E+01  0.32497203557E+01 -0.67066545977E+01  0.99832853023E+01  0.51100000000E-03 0.  1.
        -12    1    3    3    0    0 -0.10379393058E+02  0.24957993260E+01 -0.44825481097E+01  0.11578171362E+02  0.00000000000E+00 0.  1.
</event>
<event>
 7    1  0.5019004E-011  0.5052885E+02  0.7816164E-02  0.1300439E+00
        -11   -1    0    0    0    0  0.00000000000E+00  0.00000000000E+00  0.45593999997E+02  0.45594000000E+02  0.51100000000E-03 0. -1.
         11   -1    0    0    0    0 -0.00000000000E+00 -0.00000000000E+00 -0.45593999997E+02  0.45594000000E+02  0.51100000000E-03 0.  1.
    9900012    2    1    2    0    0 -0.35763743000E+02 -0.55751913278E+00  0.19334170198E+02  0.50528852466E+02  0.29999977554E+02 0.  0.
        -12    1    1    2    0    0  0.35763743000E+02  0.55751913278E+00 -0.19334170198E+02  0.40659147534E+02  0.00000000000E+00 0.  1.
         11    1    3    3    0    0 -0.56350275917E+01  0.72826909988E+01 -0.45803899505E+01  0.10284507596E+02  0.51100000000E-03 0. -1.
        -11    1    3    3    0    0 -0.12029152366E+02 -0.64266231888E+01  0.14058410505E+02  0.19586753137E+02  0.51100000000E-03 0.  1.
         12    1    3    3    0    0 -0.18099563043E+02 -0.14135869427E+01  0.98561496432E+01  0.20657591732E+02  0.00000000000E+00 0. -1.
</event>
<event>
 7    1  0.5019004E-011  0.5052886E+02  0.7816164E-02  0.1300439E+00
        -11   -1    0    0    0    0  0.00000000000E+00  0.00000000000E+00  0.45593999997E+02  0.45594000000E+02  0.51100000000E-03 0.  1.
         11   -1    0    0    0    0 -0.00000000000E+00 -0.00000000000E+00 -0.45593999997E+02  0.45594000000E+02  0.51100000000E-03 0. -1.
    9900012    2    1    2    0    0 -0.36350926516E+02  0.13206552063E+02 -0.12544436163E+02  0.50528858904E+02  0.29999997125E+02 0.  0.
        -12    1    1    2    0    0  0.36350926516E+02 -0.13206552063E+02  0.12544436163E+02  0.40659141096E+02  0.00000000000E+00 0.  1.
         11    1    3    3    0    0 -0.32219102676E+02  0.48951944506E+01 -0.63672534223E+01  0.33205051158E+02  0.51100000000E-03 0. -1.
        -11    1    3    3    0    0 -0.20215405977E+01  0.77656534727E+01  0.24780135044E+01  0.83983659980E+01  0.51100000000E-03 0.  1.
        -12    1    3    3    0    0 -0.21102832424E+01  0.54570413985E+00 -0.86551962450E+01  0.89254417487E+01  0.00000000000E+00 0.  1.
</event>
<event>
 7    1  0.5019004E-011  0.5052886E+02  0.7816164E-02  0.1300439E+00
        -11   -1    0    0    0    0  0.00000000000E+00  0.00000000000E+00  0.45593999997E+02  0.45594000000E+02  0.51100000000E-03 0. -1.
         11   -1    0    0    0    0 -0.00000000000E+00 -0.00000000000E+00 -0.45593999997E+02  0.45594000000E+02  0.51100000000E-03 0.  1.
    9900012    2    1    2    0    0 -0.29896092587E+02 -0.26260623236E+02  0.83527976636E+01  0.50528856951E+02  0.29999991187E+02 0.  0.
        -12    1    1    2    0    0  0.29896092587E+02  0.26260623236E+02 -0.83527976636E+01  0.40659143049E+02  0.00000000000E+00 0.  1.
         11    1    3    3    0    0 -0.24066873991E+02 -0.29624796522E+02  0.10336308320E+02  0.39543422495E+02  0.51100000000E-03 0. -1.
        -11    1    3    3    0    0 -0.31595619845E+01 -0.10658423600E+01 -0.41962150061E+01  0.53597642214E+01  0.51100000000E-03 0.  1.
         12    1    3    3    0    0 -0.26696566107E+01  0.44300156459E+01  0.22127043496E+01  0.56256702339E+01  0.00000000000E+00 0. -1.
</event>
<event>
 7    1  0.5019004E-011  0.5052887E+02  0.7816164E-02  0.1300439E+00
        -11   -1    0    0    0    0  0.00000000000E+00  0.00000000000E+00  0.45593999997E+02  0.45594000000E+02  0.51100000000E-03 0.  1.
         11   -1    0    0    0    0 -0.00000000000E+00 -0.00000000000E+00 -0.45593999997E+02  0.45594000000E+02  0.51100000000E-03 0. -1.
    9900012    2    1    2    0    0  0.35697443995E+02 -0.20667484685E+01 -0.19354226723E+02  0.50528867581E+02  0.30000023499E+02 0.  0.
        -12    1    1    2    0    0 -0.35697443995E+02  0.20667484685E+01  0.19354226723E+02  0.40659132419E+02  0.00000000000E+00 0.  1.
         11    1    3    3    0    0  0.18195858556E+01 -0.20655593449E+01 -0.55792100600E+01  0.62213353267E+01  0.51100000000E-03 0. -1.
        -11    1    3    3    0    0  0.35307841201E+02  0.18158515345E+01 -0.17862979388E+02  0.39610945456E+02  0.51100000000E-03 0.  1.
        -12    1    3    3    0    0 -0.14299830613E+01 -0.18170406580E+01  0.40879627250E+01  0.46965867978E+01  0.00000000000E+00 0.  1.
</event>
<event>
 7    1  0.5019004E-011  0.5052887E+02  0.7816164E-02  0.1300439E+00
        -11   -1    0    0    0    0  0.00000000000E+00  0.00000000000E+00  0.45593999997E+02  0.45594000000E+02  0.51100000000E-03 0. -1.
         11   -1    0    0    0    0 -0.00000000000E+00 -0.00000000000E+00 -0.45593999997E+02  0.45594000000E+02  0.51100000000E-03 0.  1.
    9900012    2    1    2    0    0 -0.33387849959E+02 -0.12757627315E+02  0.19381924982E+02  0.50528873157E+02  0.30000040448E+02 0.  0.
        -12    1    1    2    0    0  0.33387849959E+02  0.12757627315E+02 -0.19381924982E+02  0.40659126843E+02  0.00000000000E+00 0.  1.
         11    1    3    3    0    0 -0.20148465768E+02 -0.19288898239E+02  0.74115105180E+01  0.28860920922E+02  0.51100000000E-03 0. -1.
        -11    1    3    3    0    0  0.13459003859E+01  0.35110271166E+00  0.33642282941E+01  0.36404331114E+01  0.51100000000E-03 0.  1.
         12    1    3    3    0    0 -0.14585284577E+02  0.61801682124E+01  0.86061861704E+01  0.18027519123E+02  0.00000000000E+00 0. -1.
</event>
<event>
 7    1  0.5019004E-011  0.5052887E+02  0.7816164E-02  0.1300439E+00
        -11   -1    0    0    0    0  0.00000000000E+00  0.00000000000E+00  0.45593999997E+02  0.45594000000E+02  0.51100000000E-03 0.  1.
         11   -1    0    0    0    0 -0.00000000000E+00 -0.00000000000E+00 -0.45593999997E+02  0.45594000000E+02  0.51100000000E-03 0. -1.
    9900012    2    1    2    0    0 -0.31366013766E+02  0.20392302330E+02 -0.15921444277E+02  0.50528865703E+02  0.30000017791E+02 0.  0.
        -12    1    1    2    0    0  0.31366013766E+02 -0.20392302330E+02  0.15921444277E+02  0.40659134297E+02  0.00000000000E+00 0.  1.
         11    1    3    3    0    0  0.20988566673E+01  0.40570045283E+01 -0.55520738470E+01  0.71895764351E+01  0.51100000000E-03 0. -1.
        -11    1    3    3    0    0 -0.23631860324E+02  0.46196108948E+01  0.12796516339E+01  0.24113132019E+02  0.51100000000E-03 0.  1.
        -12    1    3    3    0    0 -0.98330101092E+01  0.11715686907E+02 -0.11649022064E+02  0.19226157249E+02  0.00000000000E+00 0.  1.
</event>
<event>
 7    1  0.5019004E-011  0.5052886E+02  0.7816164E-02  0.1300439E+00
        -11   -1    0    0    0    0  0.00000000000E+00  0.00000000000E+00  0.45593999997E+02  0.45594000000E+02  0.51100000000E-03 0.  1.
         11   -1    0    0    0    0 -0.00000000000E+00 -0.00000000000E+00 -0.45593999997E+02  0.45594000000E+02  0.51100000000E-03 0. -1.
    9900012    2    1    2    0    0  0.41677845901E+01 -0.27518568814E+02 -0.29639903872E+02  0.50528856385E+02  0.29999989468E+02 0.  0.
        -12    1    1    2    0    0 -0.41677845901E+01  0.27518568814E+02  0.29639903872E+02  0.40659143615E+02  0.00000000000E+00 0.  1.
         11    1    3    3    0    0  0.29408159842E+00 -0.20079288497E+02 -0.16424043918E+02  0.25942504301E+02  0.51100000000E-03 0. -1.
        -11    1    3    3    0    0 -0.15855154158E+01 -0.24596136855E+01  0.45132977670E+01  0.53789790491E+01  0.51100000000E-03 0.  1.
         12    1    3    3    0    0  0.54592184075E+01 -0.49796666309E+01 -0.17729157722E+02  0.19207373035E+02  0.00000000000E+00 0. -1.
</event>
<event>
 7    1  0.5019004E-011  0.5052887E+02  0.7816164E-02  0.1300439E+00
        -11   -1    0    0    0    0  0.00000000000E+00  0.00000000000E+00  0.45593999997E+02  0.45594000000E+02  0.51100000000E-03 0. -1.
         11   -1    0    0    0    0 -0.00000000000E+00 -0.00000000000E+00 -0.45593999997E+02  0.45594000000E+02  0.51100000000E-03 0.  1.
    9900012    2    1    2    0    0 -0.36817571649E+02 -0.45384860271E+01 -0.16644330934E+02  0.50528865851E+02  0.30000018240E+02 0.  0.
        -12    1    1    2    0    0  0.36817571649E+02  0.45384860271E+01  0.16644330934E+02  0.40659134149E+02  0.00000000000E+00 0.  1.
         11    1    3    3    0    0  0.35735615634E+00 -0.45031197250E+01 -0.93844669484E+01  0.10415085734E+02  0.51100000000E-03 0.  1.
        -11    1    3    3    0    0 -0.18304368855E+02 -0.65834063637E+01 -0.28719927879E+01  0.19663150850E+02  0.51100000000E-03 0. -1.
         12    1    3    3    0    0 -0.18870558950E+02  0.65480400616E+01 -0.43878711982E+01  0.20450629267E+02  0.00000000000E+00 0. -1.
</event>
<event>
 7    1  0.5019004E-011  0.5052884E+02  0.7816164E-02  0.1300439E+00
        -11   -1    0    0    0    0  0.00000000000E+00  0.00000000000E+00  0.45593999997E+02  0.45594000000E+02  0.51100000000E-03 0.  1.
         11   -1    0    0    0    0 -0.00000000000E+00 -0.00000000000E+00 -0.45593999997E+02  0.45594000000E+02  0.51100000000E-03 0. -1.
    9900012    2    1    2    0    0 -0.27323094841E+02  0.18673268818E+02 -0.23620439537E+02  0.50528835670E+02  0.29999926503E+02 0.  0.
        -12    1    1    2    0    0  0.27323094841E+02 -0.18673268818E+02  0.23620439537E+02  0.40659164330E+02  0.00000000000E+00 0.  1.
         11    1    3    3    0    0 -0.11159816012E+02 -0.46197743318E+01 -0.16740063230E+02  0.20642517422E+02  0.51100000000E-03 0. -1.
        -11    1    3    3    0    0 -0.35725921525E+01  0.92037252276E+01 -0.44709834006E+01  0.10837973315E+02  0.51100000000E-03 0.  1.
         12    1    3    3    0    0 -0.12590686676E+02  0.14089317922E+02 -0.24093929063E+01  0.19048344933E+02  0.00000000000E+00 0. -1.
</event>
<event>
 7    1  0.5019004E-011  0.5052886E+02  0.7816164E-02  0.1300439E+00
        -11   -1    0    0    0    0  0.00000000000E+00  0.00000000000E+00  0.45593999997E+02  0.45594000000E+02  0.51100000000E-03 0.  1.
         11   -1    0    0    0    0 -0.00000000000E+00 -0.00000000000E+00 -0.45593999997E+02  0.45594000000E+02  0.51100000000E-03 0. -1.
    9900012    2    1    2    0    0 -0.35694666104E+02 -0.98445786471E+00 -0.19444469093E+02  0.50528859282E+02  0.29999998275E+02 0.  0.
        -12    1    1    2    0    0  0.35694666104E+02  0.98445786471E+00  0.19444469093E+02  0.40659140718E+02  0.00000000000E+00 0.  1.
         11    1    3    3    0    0 -0.19980110230E+02  0.66542682102E+01 -0.10797599534E+02  0.23665845562E+02  0.51100000000E-03 0. -1.
        -11    1    3    3    0    0  0.15717182418E+01 -0.79903408130E+01 -0.27756994903E+01  0.86035081485E+01  0.51100000000E-03 0.  1.
        -12    1    3    3    0    0 -0.17286274116E+02  0.35161473808E+00 -0.58711700688E+01  0.18259505572E+02  0.00000000000E+00 0.  1.
</event>
<event>
 7    1  0.5019004E-011  0.5052885E+02  0.7816164E-02  0.1300439E+00
        -11   -1    0    0    0    0  0.00000000000E+00  0.00000000000E+00  0.45593999997E+02  0.45594000000E+02  0.51100000000E-03 0.  1.
         11   -1    0    0    0    0 -0.00000000000E+00 -0.00000000000E+00 -0.45593999997E+02  0.45594000000E+02  0.51100000000E-03 0. -1.
    9900012    2    1    2    0    0  0.36527118118E+02  0.13903053811E+02 -0.11208974443E+02  0.50528851320E+02  0.29999974072E+02 0.  0.
        -12    1    1    2    0    0 -0.36527118118E+02 -0.13903053811E+02  0.11208974443E+02  0.40659148680E+02  0.00000000000E+00 0.  1.
         11    1    3    3    0    0  0.38667616534E+02  0.74888619394E+01 -0.26202621479E+01  0.39473198446E+02  0.51100000000E-03 0. -1.
        -11    1    3    3    0    0 -0.17722483640E+01  0.60677907737E+01 -0.84070537528E+01  0.10518436300E+02  0.51100000000E-03 0.  1.
         12    1    3    3    0    0 -0.36825005164E+00  0.34640109809E+00 -0.18165854256E+00  0.53721657400E+00  0.00000000000E+00 0. -1.
</event>
<event>
 7    1  0.5019004E-011  0.5052885E+02  0.7816164E-02  0.1300439E+00
        -11   -1    0    0    0    0  0.00000000000E+00  0.00000000000E+00  0.45593999997E+02  0.45594000000E+02  0.51100000000E-03 0.  1.
         11   -1    0    0    0    0 -0.00000000000E+00 -0.00000000000E+00 -0.45593999997E+02  0.45594000000E+02  0.51100000000E-03 0. -1.
    9900012    2    1    2    0    0 -0.94238955015E+01  0.22360622944E+02  0.32624521428E+02  0.50528847731E+02  0.29999963163E+02 0.  0.
        -12    1    1    2    0    0  0.94238955015E+01 -0.22360622944E+02 -0.32624521428E+02  0.40659152269E+02  0.00000000000E+00 0.  1.
         11    1    3    3    0    0  0.64006753353E+01  0.50543113840E+01  0.71195408248E+01  0.10826013584E+02  0.51100000000E-03 0. -1.
        -11    1    3    3    0    0 -0.11333970580E+02  0.10242340108E+02  0.28352946213E+01  0.15537159195E+02  0.51100000000E-03 0.  1.
        -12    1    3    3    0    0 -0.44906002563E+01  0.70639714516E+01  0.22669685982E+02  0.24165674951E+02  0.00000000000E+00 0.  1.
</event>
<event>
 7    1  0.5019004E-011  0.5052886E+02  0.7816164E-02  0.1300439E+00
        -11   -1    0    0    0    0  0.00000000000E+00  0.00000000000E+00  0.45593999997E+02  0.45594000000E+02  0.51100000000E-03 0. -1.
         11   -1    0    0    0    0 -0.00000000000E+00 -0.00000000000E+00 -0.45593999997E+02  0.45594000000E+02  0.51100000000E-03 0.  1.
    9900012    2    1    2    0    0  0.14760119396E+02 -0.26414841287E+02  0.27158071094E+02  0.50528858465E+02  0.29999995791E+02 0.  0.
        -12    1    1    2    0    0 -0.14760119396E+02  0.26414841287E+02 -0.27158071094E+02  0.40659141535E+02  0.00000000000E+00 0.  1.
         11    1    3    3    0    0  0.10110224877E+02 -0.25703793187E+02  0.69200303815E+01  0.28474347262E+02  0.51100000000E-03 0. -1.
        -11    1    3    3    0    0  0.24608712381E+01  0.25087987188E+01  0.15637665615E+02  0.16027680568E+02  0.51100000000E-03 0.  1.
        -12    1    3    3    0    0  0.21890232808E+01 -0.32198468192E+01  0.46003750973E+01  0.60268306347E+01  0.00000000000E+00 0.  1.
</event>
<event>
 7    1  0.5019004E-011  0.5052886E+02  0.7816164E-02  0.1300439E+00
        -11   -1    0    0    0    0  0.00000000000E+00  0.00000000000E+00  0.45593999997E+02  0.45594000000E+02  0.51100000000E-03 0. -1.
         11   -1    0    0    0    0 -0.00000000000E+00 -0.00000000000E+00 -0.45593999997E+02  0.45594000000E+02  0.51100000000E-03 0.  1.
    9900012    2    1    2    0    0  0.84694703812E+01 -0.85482656336E+01  0.38837621920E+02  0.50528860188E+02  0.30000001027E+02 0.  0.
        -12    1    1    2    0    0 -0.84694703812E+01  0.85482656336E+01 -0.38837621920E+02  0.40659139812E+02  0.00000000000E+00 0.  1.
         11    1    3    3    0    0  0.20825568741E+01  0.10363666353E+02  0.12644140372E+02  0.16480804271E+02  0.51100000000E-03 0. -1.
        -11    1    3    3    0    0  0.12206966724E+01 -0.45321556884E+01  0.13536275676E+01  0.48849609417E+01  0.51100000000E-03 0.  1.
         12    1    3    3    0    0  0.51662168347E+01 -0.14379776298E+02  0.24839853980E+02  0.29163094975E+02  0.00000000000E+00 0. -1.
</event>
<event>
 7    1  0.5019004E-011  0.5052885E+02  0.7816164E-02  0.1300439E+00
        -11   -1    0    0    0    0  0.00000000000E+00  0.00000000000E+00  0.45593999997E+02  0.45594000000E+02  0.51100000000E-03 0. -1.
         11   -1    0    0    0    0 -0.00000000000E+00 -0.00000000000E+00 -0.45593999997E+02  0.45594000000E+02  0.51100000000E-03 0.  1.
    9900012    2    1    2    0    0 -0.30615996878E+02 -0.16553214507E+02  0.21019479429E+02  0.50528847391E+02  0.29999962131E+02 0.  0.
        -12    1    1    2    0    0  0.30615996878E+02  0.16553214507E+02 -0.21019479429E+02  0.40659152609E+02  0.00000000000E+00 0.  1.
         11    1    3    3    0    0 -0.23711208168E+02 -0.15313950099E+02  0.21213524257E+02  0.35309376546E+02  0.51100000000E-03 0. -1.
        -11    1    3    3    0    0  0.72857339318E+00 -0.25756428452E+01 -0.53010735428E+01  0.59385298032E+01  0.51100000000E-03 0.  1.
        -12    1    3    3    0    0 -0.76333621034E+01  0.13363784372E+01  0.51070287155E+01  0.92809410422E+01  0.00000000000E+00 0.  1.
</event>
<event>
 7    1  0.5019004E-011  0.5052887E+02  0.7816164E-02  0.1300439E+00
        -11   -1    0    0    0    0  0.00000000000E+00  0.00000000000E+00  0.45593999997E+02  0.45594000000E+02  0.51100000000E-03 0. -1.
         11   -1    0    0    0    0 -0.00000000000E+00 -0.00000000000E+00 -0.45593999997E+02  0.45594000000E+02  0.51100000000E-03 0.  1.
    9900012    2    1    2    0    0 -0.26454868210E+02  0.30283860831E+02 -0.60160492715E+01  0.50528866614E+02  0.30000020560E+02 0.  0.
        -12    1    1    2    0    0  0.26454868210E+02 -0.30283860831E+02  0.60160492715E+01  0.40659133386E+02  0.00000000000E+00 0.  1.
         11    1    3    3    0    0  0.27758158933E+00  0.43081823080E+00  0.26006945579E+01  0.26507109106E+01  0.51100000000E-03 0. -1.
        -11    1    3    3    0    0 -0.24802323161E+02  0.19706423562E+02 -0.15698943088E+02  0.35354705177E+02  0.51100000000E-03 0.  1.
        -12    1    3    3    0    0 -0.19301266383E+01  0.10146619038E+02  0.70821992589E+01  0.12523450526E+02  0.00000000000E+00 0.  1.
</event>
<event>
 7    1  0.5019004E-011  0.5052886E+02  0.7816164E-02  0.1300439E+00
        -11   -1    0    0    0    0  0.00000000000E+00  0.00000000000E+00  0.45593999997E+02  0.45594000000E+02  0.51100000000E-03 0.  1.
         11   -1    0    0    0    0 -0.00000000000E+00 -0.00000000000E+00 -0.45593999997E+02  0.45594000000E+02  0.51100000000E-03 0. -1.
    9900012    2    1    2    0    0  0.59575031075E+01 -0.36245034136E+02 -0.17434775914E+02  0.50528858912E+02  0.29999997149E+02 0.  0.
        -12    1    1    2    0    0 -0.59575031075E+01  0.36245034136E+02  0.17434775914E+02  0.40659141088E+02  0.00000000000E+00 0.  1.
         11    1    3    3    0    0  0.10697932131E+02 -0.15343179018E+02  0.20509880417E+01  0.18816626862E+02  0.51100000000E-03 0. -1.
        -11    1    3    3    0    0 -0.73166065624E+01 -0.20392959176E+02 -0.14478731424E+02  0.26058380215E+02  0.51100000000E-03 0.  1.
         12    1    3    3    0    0  0.25761775394E+01 -0.50889594247E+00 -0.50070325324E+01  0.56538518353E+01  0.00000000000E+00 0. -1.
</event>
<event>
 7    1  0.5019004E-011  0.5052886E+02  0.7816164E-02  0.1300439E+00
        -11   -1    0    0    0    0  0.00000000000E+00  0.00000000000E+00  0.45593999997E+02  0.45594000000E+02  0.51100000000E-03 0. -1.
         11   -1    0    0    0    0 -0.00000000000E+00 -0.00000000000E+00 -0.45593999997E+02  0.45594000000E+02  0.51100000000E-03 0.  1.
    9900012    2    1    2    0    0  0.13023001262E+02  0.27836264382E+02  0.26621599548E+02  0.50528859096E+02  0.29999997708E+02 0.  0.
        -12    1    1    2    0    0 -0.13023001262E+02 -0.27836264382E+02 -0.26621599548E+02  0.40659140904E+02  0.00000000000E+00 0.  1.
         11    1    3    3    0    0 -0.31891244699E+01  0.15337425678E+02  0.23430131830E+01  0.15839723872E+02  0.51100000000E-03 0. -1.
        -11    1    3    3    0    0  0.31301408130E+01 -0.25025554120E+01  0.11381857572E+01  0.41660571501E+01  0.51100000000E-03 0.  1.
         12    1    3    3    0    0  0.13081984919E+02  0.15001394116E+02  0.23140400607E+02  0.30523078074E+02  0.00000000000E+00 0. -1.
</event>
<event>
 7    1  0.5019004E-011  0.5052886E+02  0.7816164E-02  0.1300439E+00
        -11   -1    0    0    0    0  0.00000000000E+00  0.00000000000E+00  0.45593999997E+02  0.45594000000E+02  0.51100000000E-03 0. -1.
         11   -1    0    0    0    0 -0.00000000000E+00 -0.00000000000E+00 -0.45593999997E+02  0.45594000000E+02  0.51100000000E-03 0.  1.
    9900012    2    1    2    0    0  0.32480717469E+02 -0.20999733436E+02 -0.12537123160E+02  0.50528864879E+02  0.30000015286E+02 0.  0.
        -12    1    1    2    0    0 -0.32480717469E+02  0.20999733436E+02  0.12537123160E+02  0.40659135121E+02  0.00000000000E+00 0.  1.
         11    1    3    3    0    0  0.75903621282E+01 -0.50511077123E+01 -0.42403366584E-01  0.91175152681E+01  0.51100000000E-03 0. -1.
        -11    1    3    3    0    0  0.43214884439E+01 -0.35058402215E+01 -0.16162445854E+02  0.17093590444E+02  0.51100000000E-03 0.  1.
        -12    1    3    3    0    0  0.20568866896E+02 -0.12442785502E+02  0.36677260598E+01  0.24317759167E+02  0.00000000000E+00 0.  1.
</event>
<event>
 7    1  0.5019004E-011  0.5052886E+02  0.7816164E-02  0.1300439E+00
        -11   -1    0    0    0    0  0.00000000000E+00  0.00000000000E+00  0.45593999997E+02  0.45594000000E+02  0.51100000000E-03 0.  1.
         11   -1    0    0    0    0 -0.00000000000E+00 -0.00000000000E+00 -0.45593999997E+02  0.45594000000E+02  0.51100000000E-03 0. -1.
    9900012    2    1    2    0    0 -0.32973060735E+01  0.39224685340E+02 -0.10184172356E+02  0.50528861618E+02  0.30000005375E+02 0.  0.
        -12    1    1    2    0    0  0.32973060735E+01 -0.39224685340E+02  0.10184172356E+02  0.40659138382E+02  0.00000000000E+00 0.  1.
         11    1    3    3    0    0 -0.24366493156E+00  0.87725308615E+01 -0.14458589922E+02  0.16913529884E+02  0.51100000000E-03 0. -1.
        -11    1    3    3    0    0 -0.59597761721E+01  0.23546620451E+02 -0.12272942294E+01  0.24320125782E+02  0.51100000000E-03 0.  1.
        -12    1    3    3    0    0  0.29061350302E+01  0.69055340273E+01  0.55017117955E+01  0.92952059524E+01  0.00000000000E+00 0.  1.
</event>
<event>
 7    1  0.5019004E-011  0.5052888E+02  0.7816164E-02  0.1300439E+00
        -11   -1    0    0    0    0  0.00000000000E+00  0.00000000000E+00  0.45593999997E+02  0.45594000000E+02  0.51100000000E-03 0.  1.
         11   -1    0    0    0    0 -0.00000000000E+00 -0.00000000000E+00 -0.45593999997E+02  0.45594000000E+02  0.51100000000E-03 0. -1.
    9900012    2    1    2    0    0  0.17115439435E+02  0.32995110895E+02  0.16478722259E+02  0.50528881744E+02  0.30000066550E+02 0.  0.
        -12    1    1    2    0    0 -0.17115439435E+02 -0.32995110895E+02 -0.16478722259E+02  0.40659118256E+02  0.00000000000E+00 0.  1.
         11    1    3    3    0    0 -0.18049401259E+01  0.78965506511E+01 -0.66763692787E+01  0.10497010434E+02  0.51100000000E-03 0. -1.
        -11    1    3    3    0    0  0.91361089744E+00  0.66804447605E+01  0.64521475580E+01  0.93323756590E+01  0.51100000000E-03 0.  1.
         12    1    3    3    0    0  0.18006768664E+02  0.18418115483E+02  0.16702943979E+02  0.30699495651E+02  0.00000000000E+00 0. -1.
</event>
<event>
 7    1  0.5019004E-011  0.5052886E+02  0.7816164E-02  0.1300439E+00
        -11   -1    0    0    0    0  0.00000000000E+00  0.00000000000E+00  0.45593999997E+02  0.45594000000E+02  0.51100000000E-03 0.  1.
         11   -1    0    0    0    0 -0.00000000000E+00 -0.00000000000E+00 -0.45593999997E+02  0.45594000000E+02  0.51100000000E-03 0. -1.
    9900012    2    1    2    0    0 -0.84559257005E+00  0.30687863913E+02 -0.26659061801E+02  0.50528860874E+02  0.30000003114E+02 0.  0.
        -12    1    1    2    0    0  0.84559257005E+00 -0.30687863913E+02  0.26659061801E+02  0.40659139126E+02  0.00000000000E+00 0.  1.
         11    1    3    3    0    0  0.87236423190E+01  0.12083967039E+02 -0.19593045169E+02  0.24617303142E+02  0.51100000000E-03 0. -1.
        -11    1    3    3    0    0 -0.11031111718E+02  0.12724443848E+02 -0.95544713647E+01  0.19361942575E+02  0.51100000000E-03 0.  1.
        -12    1    3    3    0    0  0.14618768285E+01  0.58794530260E+01  0.24884547335E+01  0.65496151571E+01  0.00000000000E+00 0.  1.
</event>
<event>
 7    1  0.5019004E-011  0.5052885E+02  0.7816164E-02  0.1300439E+00
        -11   -1    0    0    0    0  0.00000000000E+00  0.00000000000E+00  0.45593999997E+02  0.45594000000E+02  0.51100000000E-03 0. -1.
         11   -1    0    0    0    0 -0.00000000000E+00 -0.00000000000E+00 -0.45593999997E+02  0.45594000000E+02  0.51100000000E-03 0.  1.
    9900012    2    1    2    0    0 -0.13650846860E+01  0.28394833635E+02  0.29069508496E+02  0.50528851490E+02  0.29999974588E+02 0.  0.
        -12    1    1    2    0    0  0.13650846860E+01 -0.28394833635E+02 -0.29069508496E+02  0.40659148510E+02  0.00000000000E+00 0.  1.
         11    1    3    3    0    0  0.35419877340E+01  0.40180905152E+01  0.10472685935E+02  0.11762987693E+02  0.51100000000E-03 0. -1.
        -11    1    3    3    0    0 -0.36427074536E+01  0.13226875810E+02 -0.33449495684E+01  0.14121198574E+02  0.51100000000E-03 0.  1.
        -12    1    3    3    0    0 -0.12643649664E+01  0.11149867310E+02  0.21941772129E+02  0.24644665223E+02  0.00000000000E+00 0.  1.
</event>
<event>
 7    1  0.5019004E-011  0.5052887E+02  0.7816164E-02  0.1300439E+00
        -11   -1    0    0    0    0  0.00000000000E+00  0.00000000000E+00  0.45593999997E+02  0.45594000000E+02  0.51100000000E-03 0. -1.
         11   -1    0    0    0    0 -0.00000000000E+00 -0.00000000000E+00 -0.45593999997E+02  0.45594000000E+02  0.51100000000E-03 0.  1.
    9900012    2    1    2    0    0 -0.31267957881E+02 -0.15316801072E+02  0.20997039627E+02  0.50528865009E+02  0.30000015682E+02 0.  0.
        -12    1    1    2    0    0  0.31267957881E+02  0.15316801072E+02 -0.20997039627E+02  0.40659134991E+02  0.00000000000E+00 0.  1.
         11    1    3    3    0    0 -0.21547780476E+02 -0.53930942825E+01  0.27016881560E+02  0.34975765880E+02  0.51100000000E-03 0. -1.
        -11    1    3    3    0    0 -0.90891096771E+01 -0.10096459570E+02 -0.53049463344E+01  0.14583993501E+02  0.51100000000E-03 0.  1.
         12    1    3    3    0    0 -0.63106772811E+00  0.17275278118E+00 -0.71489559917E+00  0.96910562818E+00  0.00000000000E+00 0. -1.
</event>
<event>
 7    1  0.5019004E-011  0.5052886E+02  0.7816164E-02  0.1300439E+00
        -11   -1    0    0    0    0  0.00000000000E+00  0.00000000000E+00  0.45593999997E+02  0.45594000000E+02  0.51100000000E-03 0. -1.
         11   -1    0    0    0    0 -0.00000000000E+00 -0.00000000000E+00 -0.45593999997E+02  0.45594000000E+02  0.51100000000E-03 0.  1.
    9900012    2    1    2    0    0 -0.76445218397E+00 -0.35215303635E+02  0.20309198558E+02  0.50528861503E+02  0.30000005026E+02 0.  0.
        -12    1    1    2    0    0  0.76445218397E+00  0.35215303635E+02 -0.20309198558E+02  0.40659138497E+02  0.00000000000E+00 0.  1.
         11    1    3    3    0    0  0.63687206480E+01 -0.29536404445E+01 -0.18639191980E+01  0.72635245993E+01  0.51100000000E-03 0. -1.
        -11    1    3    3    0    0 -0.11271336845E+02 -0.20802117443E+02  0.89784504403E+01  0.25305803622E+02  0.51100000000E-03 0.  1.
         12    1    3    3    0    0  0.41381640134E+01 -0.11459545747E+02  0.13194667316E+02  0.17959533282E+02  0.00000000000E+00 0. -1.
</event>
<event>
 7    1  0.5019004E-011  0.5052886E+02  0.7816164E-02  0.1300439E+00
        -11   -1    0    0    0    0  0.00000000000E+00  0.00000000000E+00  0.45593999997E+02  0.45594000000E+02  0.51100000000E-03 0. -1.
         11   -1    0    0    0    0 -0.00000000000E+00 -0.00000000000E+00 -0.45593999997E+02  0.45594000000E+02  0.51100000000E-03 0.  1.
    9900012    2    1    2    0    0 -0.96677890722E+01  0.36643378055E+02 -0.14729652358E+02  0.50528856386E+02  0.29999989470E+02 0.  0.
        -12    1    1    2    0    0  0.96677890722E+01 -0.36643378055E+02  0.14729652358E+02  0.40659143614E+02  0.00000000000E+00 0.  1.
         11    1    3    3    0    0  0.47134433031E+01  0.19625527064E+02 -0.80696107047E+01  0.21736984094E+02  0.51100000000E-03 0. -1.
        -11    1    3    3    0    0 -0.12023688841E+02  0.15625299486E+02  0.18974012863E+01  0.19807049485E+02  0.51100000000E-03 0.  1.
        -12    1    3    3    0    0 -0.23575435338E+01  0.13925515049E+01 -0.85574429397E+01  0.89848228071E+01  0.00000000000E+00 0.  1.
</event>
<event>
 7    1  0.5019004E-011  0.5052886E+02  0.7816164E-02  0.1300439E+00
        -11   -1    0    0    0    0  0.00000000000E+00  0.00000000000E+00  0.45593999997E+02  0.45594000000E+02  0.51100000000E-03 0. -1.
         11   -1    0    0    0    0 -0.00000000000E+00 -0.00000000000E+00 -0.45593999997E+02  0.45594000000E+02  0.51100000000E-03 0.  1.
    9900012    2    1    2    0    0 -0.61682882925E+01  0.24022650852E+02  0.32218470496E+02  0.50528863566E+02  0.30000011295E+02 0.  0.
        -12    1    1    2    0    0  0.61682882925E+01 -0.24022650852E+02 -0.32218470496E+02  0.40659136434E+02  0.00000000000E+00 0.  1.
         11    1    3    3    0    0 -0.71101433586E+01  0.22792401874E+02  0.33362285646E+02  0.41025477761E+02  0.51100000000E-03 0. -1.
        -11    1    3    3    0    0  0.26955270577E+01 -0.11007857292E+01  0.31646568373E+01  0.43003079540E+01  0.51100000000E-03 0.  1.
         12    1    3    3    0    0 -0.17536719916E+01  0.23310347069E+01 -0.43084719866E+01  0.52030778505E+01  0.00000000000E+00 0. -1.
</event>
<event>
 7    1  0.5019004E-011  0.5052886E+02  0.7816164E-02  0.1300439E+00
        -11   -1    0    0    0    0  0.00000000000E+00  0.00000000000E+00  0.45593999997E+02  0.45594000000E+02  0.51100000000E-03 0.  1.
         11   -1    0    0    0    0 -0.00000000000E+00 -0.00000000000E+00 -0.45593999997E+02  0.45594000000E+02  0.51100000000E-03 0. -1.
    9900012    2    1    2    0    0  0.31491704723E+02 -0.56801167076E+01  0.25083349897E+02  0.50528860385E+02  0.30000001627E+02 0.  0.
        -12    1    1    2    0    0 -0.31491704723E+02  0.56801167076E+01 -0.25083349897E+02  0.40659139615E+02  0.00000000000E+00 0.  1.
         11    1    3    3    0    0  0.17748306030E+02  0.57602857730E+00  0.78802525191E+01  0.19427623526E+02  0.51100000000E-03 0. -1.
        -11    1    3    3    0    0  0.51514712034E+01 -0.65862093776E+01  0.20306033769E+02  0.21960209863E+02  0.51100000000E-03 0.  1.
        -12    1    3    3    0    0  0.85919274894E+01  0.33006409275E+00 -0.31029363913E+01  0.91410269957E+01  0.00000000000E+00 0.  1.
</event>
<event>
 7    1  0.5019004E-011  0.5052885E+02  0.7816164E-02  0.1300439E+00
        -11   -1    0    0    0    0  0.00000000000E+00  0.00000000000E+00  0.45593999997E+02  0.45594000000E+02  0.51100000000E-03 0. -1.
         11   -1    0    0    0    0 -0.00000000000E+00 -0.00000000000E+00 -0.45593999997E+02  0.45594000000E+02  0.51100000000E-03 0.  1.
    9900012    2    1    2    0    0  0.29982434195E+02 -0.25886730096E+02  0.91704586492E+01  0.50528850143E+02  0.29999970494E+02 0.  0.
        -12    1    1    2    0    0 -0.29982434195E+02  0.25886730096E+02 -0.91704586492E+01  0.40659149857E+02  0.00000000000E+00 0.  1.
         11    1    3    3    0    0  0.26540552885E+02 -0.17980374293E+02  0.24930023033E+01  0.32154468864E+02  0.51100000000E-03 0. -1.
        -11    1    3    3    0    0  0.59066812990E+01  0.14329071322E+01  0.62318613343E+01  0.87050676487E+01  0.51100000000E-03 0.  1.
         12    1    3    3    0    0 -0.24647999898E+01 -0.93392629354E+01  0.44559501162E+00  0.96693136303E+01  0.00000000000E+00 0. -1.
</event>
<event>
 7    1  0.5019004E-011  0.5052885E+02  0.7816164E-02  0.1300439E+00
        -11   -1    0    0    0    0  0.00000000000E+00  0.00000000000E+00  0.45593999997E+02  0.45594000000E+02  0.51100000000E-03 0.  1.
         11   -1    0    0    0    0 -0.00000000000E+00 -0.00000000000E+00 -0.45593999997E+02  0.45594000000E+02  0.51100000000E-03 0. -1.
    9900012    2    1    2    0    0 -0.49928893691E+01 -0.36806977816E+00 -0.40349742326E+02  0.50528854345E+02  0.29999983266E+02 0.  0.
        -12    1    1    2    0    0  0.49928893691E+01  0.36806977816E+00  0.40349742326E+02  0.40659145655E+02  0.00000000000E+00 0.  1.
         11    1    3    3    0    0 -0.89571953833E+01  0.96363673412E+01 -0.15186227428E+02  0.20092596359E+02  0.51100000000E-03 0. -1.
        -11    1    3    3    0    0  0.49753388443E+01 -0.11971910263E+02 -0.25068097725E+02  0.28222157177E+02  0.51100000000E-03 0.  1.
        -12    1    3    3    0    0 -0.10110328301E+01  0.19674731435E+01 -0.95417173657E-01  0.22141008087E+01  0.00000000000E+00 0.  1.
</event>
<event>
 7    1  0.5019004E-011  0.5052886E+02  0.7816164E-02  0.1300439E+00
        -11   -1    0    0    0    0  0.00000000000E+00  0.00000000000E+00  0.45593999997E+02  0.45594000000E+02  0.51100000000E-03 0.  1.
         11   -1    0    0    0    0 -0.00000000000E+00 -0.00000000000E+00 -0.45593999997E+02  0.45594000000E+02  0.51100000000E-03 0. -1.
    9900012    2    1    2    0    0  0.21663216279E+02 -0.20038120809E+02 -0.27970416485E+02  0.50528862977E+02  0.30000009506E+02 0.  0.
        -12    1    1    2    0    0 -0.21663216279E+02  0.20038120809E+02  0.27970416485E+02  0.40659137023E+02  0.00000000000E+00 0.  1.
         11    1    3    3    0    0  0.11917284232E+01 -0.10258722248E+02 -0.21998520796E+01  0.10559400941E+02  0.51100000000E-03 0. -1.
        -11    1    3    3    0    0  0.17051381614E+02 -0.21151704691E+01 -0.55173514260E+01  0.18046183200E+02  0.51100000000E-03 0.  1.
        -12    1    3    3    0    0  0.34201062415E+01 -0.76642280916E+01 -0.20253212979E+02  0.21923278836E+02  0.00000000000E+00 0.  1.
</event>
<event>
 7    1  0.5019004E-011  0.5052886E+02  0.7816164E-02  0.1300439E+00
        -11   -1    0    0    0    0  0.00000000000E+00  0.00000000000E+00  0.45593999997E+02  0.45594000000E+02  0.51100000000E-03 0.  1.
         11   -1    0    0    0    0 -0.00000000000E+00 -0.00000000000E+00 -0.45593999997E+02  0.45594000000E+02  0.51100000000E-03 0. -1.
    9900012    2    1    2    0    0  0.62667168262E+01  0.39049019796E+02 -0.94375927883E+01  0.50528857800E+02  0.29999993768E+02 0.  0.
        -12    1    1    2    0    0 -0.62667168262E+01 -0.39049019796E+02  0.94375927883E+01  0.40659142200E+02  0.00000000000E+00 0.  1.
         11    1    3    3    0    0  0.22221019467E+01 -0.41662112181E+01 -0.66856777624E+00  0.47688610913E+01  0.51100000000E-03 0. -1.
        -11    1    3    3    0    0 -0.38580200594E+01  0.94475476709E+01 -0.26607409975E+01  0.10546090209E+02  0.51100000000E-03 0.  1.
         12    1    3    3    0    0  0.79026349388E+01  0.33767683344E+02 -0.61082840146E+01  0.35213906500E+02  0.00000000000E+00 0. -1.
</event>
<event>
 7    1  0.5019004E-011  0.5052886E+02  0.7816164E-02  0.1300439E+00
        -11   -1    0    0    0    0  0.00000000000E+00  0.00000000000E+00  0.45593999997E+02  0.45594000000E+02  0.51100000000E-03 0.  1.
         11   -1    0    0    0    0 -0.00000000000E+00 -0.00000000000E+00 -0.45593999997E+02  0.45594000000E+02  0.51100000000E-03 0. -1.
    9900012    2    1    2    0    0  0.16331770862E+00  0.40612247631E+02  0.19453091482E+01  0.50528861323E+02  0.30000004476E+02 0.  0.
        -12    1    1    2    0    0 -0.16331770862E+00 -0.40612247631E+02 -0.19453091482E+01  0.40659138677E+02  0.00000000000E+00 0.  1.
         11    1    3    3    0    0  0.17235941192E+01  0.30365659706E+02  0.82020908506E+01  0.31501085071E+02  0.51100000000E-03 0. -1.
        -11    1    3    3    0    0 -0.14746954496E+01  0.75379475222E+01 -0.11087950080E+02  0.13488440116E+02  0.51100000000E-03 0.  1.
        -12    1    3    3    0    0 -0.85580961053E-01  0.27086404024E+01  0.48311683776E+01  0.55393361356E+01  0.00000000000E+00 0.  1.
</event>
<event>
 7    1  0.5019004E-011  0.5052888E+02  0.7816164E-02  0.1300439E+00
        -11   -1    0    0    0    0  0.00000000000E+00  0.00000000000E+00  0.45593999997E+02  0.45594000000E+02  0.51100000000E-03 0.  1.
         11   -1    0    0    0    0 -0.00000000000E+00 -0.00000000000E+00 -0.45593999997E+02  0.45594000000E+02  0.51100000000E-03 0. -1.
    9900012    2    1    2    0    0 -0.15564147613E+02  0.37197554985E+02  0.52214466748E+01  0.50528876877E+02  0.30000051756E+02 0.  0.
        -12    1    1    2    0    0  0.15564147613E+02 -0.37197554985E+02 -0.52214466748E+01  0.40659123123E+02  0.00000000000E+00 0.  1.
         11    1    3    3    0    0 -0.61493776603E+01  0.23036425686E+01 -0.45783924917E+01  0.80052041050E+01  0.51100000000E-03 0. -1.
        -11    1    3    3    0    0  0.60594107442E+00  0.98987116724E+01  0.11926144438E+02  0.15510789109E+02  0.51100000000E-03 0.  1.
        -12    1    3    3    0    0 -0.10020711027E+02  0.24995200744E+02 -0.21263052718E+01  0.27012883663E+02  0.00000000000E+00 0.  1.
</event>
<event>
 7    1  0.5019004E-011  0.5052886E+02  0.7816164E-02  0.1300439E+00
        -11   -1    0    0    0    0  0.00000000000E+00  0.00000000000E+00  0.45593999997E+02  0.45594000000E+02  0.51100000000E-03 0. -1.
         11   -1    0    0    0    0 -0.00000000000E+00 -0.00000000000E+00 -0.45593999997E+02  0.45594000000E+02  0.51100000000E-03 0.  1.
    9900012    2    1    2    0    0  0.29589101211E+02  0.26602564016E+02  0.83638817624E+01  0.50528857844E+02  0.29999993904E+02 0.  0.
        -12    1    1    2    0    0 -0.29589101211E+02 -0.26602564016E+02 -0.83638817624E+01  0.40659142156E+02  0.00000000000E+00 0.  1.
         11    1    3    3    0    0  0.37242666587E+01 -0.26087149498E+01 -0.61582011991E+01  0.76549982433E+01  0.51100000000E-03 0.  1.
        -11    1    3    3    0    0  0.20357939851E+02  0.16849601523E+02  0.67773732350E+01  0.27281634385E+02  0.51100000000E-03 0. -1.
        -12    1    3    3    0    0  0.55068947010E+01  0.12361677443E+02  0.77447097265E+01  0.15592225216E+02  0.00000000000E+00 0.  1.
</event>
<event>
 7    1  0.5019004E-011  0.5052886E+02  0.7816164E-02  0.1300439E+00
        -11   -1    0    0    0    0  0.00000000000E+00  0.00000000000E+00  0.45593999997E+02  0.45594000000E+02  0.51100000000E-03 0.  1.
         11   -1    0    0    0    0 -0.00000000000E+00 -0.00000000000E+00 -0.45593999997E+02  0.45594000000E+02  0.51100000000E-03 0. -1.
    9900012    2    1    2    0    0  0.21615640980E+02 -0.34432038871E+02 -0.60388424801E+00  0.50528856970E+02  0.29999991246E+02 0.  0.
        -12    1    1    2    0    0 -0.21615640980E+02  0.34432038871E+02  0.60388424801E+00  0.40659143030E+02  0.00000000000E+00 0.  1.
         11    1    3    3    0    0  0.13459686716E+02 -0.15919095647E+02  0.96658957379E+01  0.22978475001E+02  0.51100000000E-03 0.  1.
        -11    1    3    3    0    0  0.46577959449E+01 -0.20280797131E+02 -0.11039819507E+02  0.23555963371E+02  0.51100000000E-03 0. -1.
         12    1    3    3    0    0  0.34981583189E+01  0.17678539077E+01  0.77003952132E+00  0.39944185969E+01  0.00000000000E+00 0. -1.
</event>
<event>
 7    1  0.5019004E-011  0.5052886E+02  0.7816164E-02  0.1300439E+00
        -11   -1    0    0    0    0  0.00000000000E+00  0.00000000000E+00  0.45593999997E+02  0.45594000000E+02  0.51100000000E-03 0.  1.
         11   -1    0    0    0    0 -0.00000000000E+00 -0.00000000000E+00 -0.45593999997E+02  0.45594000000E+02  0.51100000000E-03 0. -1.
    9900012    2    1    2    0    0 -0.39648499269E+02 -0.83676900148E+01 -0.33382678008E+01  0.50528858809E+02  0.29999996836E+02 0.  0.
        -12    1    1    2    0    0  0.39648499269E+02  0.83676900148E+01  0.33382678008E+01  0.40659141191E+02  0.00000000000E+00 0.  1.
         11    1    3    3    0    0 -0.32974182492E+02  0.40273175173E+01  0.14707208848E+00  0.33219536839E+02  0.51100000000E-03 0. -1.
        -11    1    3    3    0    0 -0.52845313138E+01 -0.92952193635E+01  0.19800701598E+01  0.10874192031E+02  0.51100000000E-03 0.  1.
         12    1    3    3    0    0 -0.13897854637E+01 -0.30997881686E+01 -0.54654100491E+01  0.64351299389E+01  0.00000000000E+00 0. -1.
</event>
<event>
 7    1  0.5019004E-011  0.5052887E+02  0.7816164E-02  0.1300439E+00
        -11   -1    0    0    0    0  0.00000000000E+00  0.00000000000E+00  0.45593999997E+02  0.45594000000E+02  0.51100000000E-03 0.  1.
         11   -1    0    0    0    0 -0.00000000000E+00 -0.00000000000E+00 -0.45593999997E+02  0.45594000000E+02  0.51100000000E-03 0. -1.
    9900012    2    1    2    0    0 -0.11112052847E+02  0.82817061117E+01 -0.38224341933E+02  0.50528871987E+02  0.30000036891E+02 0.  0.
        -12    1    1    2    0    0  0.11112052847E+02 -0.82817061117E+01  0.38224341933E+02  0.40659128013E+02  0.00000000000E+00 0.  1.
         11    1    3    3    0    0 -0.19139733322E+02  0.41651094232E+01 -0.20522297804E+02  0.28369741549E+02  0.51100000000E-03 0. -1.
        -11    1    3    3    0    0  0.27175017470E+01 -0.14578851577E+00  0.46233585813E+00  0.27604030037E+01  0.51100000000E-03 0.  1.
         12    1    3    3    0    0  0.53101787279E+01  0.42623852043E+01 -0.18164379987E+02  0.19398727434E+02  0.00000000000E+00 0. -1.
</event>
<event>
 7    1  0.5019004E-011  0.5052886E+02  0.7816164E-02  0.1300439E+00
        -11   -1    0    0    0    0  0.00000000000E+00  0.00000000000E+00  0.45593999997E+02  0.45594000000E+02  0.51100000000E-03 0.  1.
         11   -1    0    0    0    0 -0.00000000000E+00 -0.00000000000E+00 -0.45593999997E+02  0.45594000000E+02  0.51100000000E-03 0. -1.
    9900012    2    1    2    0    0  0.28889243205E+02  0.17040077630E+02 -0.22982887404E+02  0.50528859182E+02  0.29999997970E+02 0.  0.
        -12    1    1    2    0    0 -0.28889243205E+02 -0.17040077630E+02  0.22982887404E+02  0.40659140818E+02  0.00000000000E+00 0.  1.
         11    1    3    3    0    0  0.10725421809E+02  0.27903498275E+01  0.15355395205E+01  0.11188324585E+02  0.51100000000E-03 0. -1.
        -11    1    3    3    0    0  0.15991270387E+02  0.34157491614E+01 -0.22950740805E+02  0.28180216016E+02  0.51100000000E-03 0.  1.
        -12    1    3    3    0    0  0.21725510093E+01  0.10833978641E+02 -0.15676861199E+01  0.11160318582E+02  0.00000000000E+00 0.  1.
</event>
<event>
 7    1  0.5019004E-011  0.5052885E+02  0.7816164E-02  0.1300439E+00
        -11   -1    0    0    0    0  0.00000000000E+00  0.00000000000E+00  0.45593999997E+02  0.45594000000E+02  0.51100000000E-03 0. -1.
         11   -1    0    0    0    0 -0.00000000000E+00 -0.00000000000E+00 -0.45593999997E+02  0.45594000000E+02  0.51100000000E-03 0.  1.
    9900012    2    1    2    0    0  0.23047064879E+02  0.31434563615E+02  0.11570111733E+02  0.50528850049E+02  0.29999970210E+02 0.  0.
        -12    1    1    2    0    0 -0.23047064879E+02 -0.31434563615E+02 -0.11570111733E+02  0.40659149951E+02  0.00000000000E+00 0.  1.
         11    1    3    3    0    0  0.18708467744E+02  0.23924147185E+02 -0.32464034011E+01  0.30543587202E+02  0.51100000000E-03 0. -1.
        -11    1    3    3    0    0  0.14318477528E+01 -0.19707107723E+01  0.37188470763E+00  0.24641808846E+01  0.51100000000E-03 0.  1.
         12    1    3    3    0    0  0.29067493827E+01  0.94811272021E+01  0.14444630427E+02  0.17521081963E+02  0.00000000000E+00 0. -1.
</event>
<event>
 7    1  0.5019004E-011  0.5052887E+02  0.7816164E-02  0.1300439E+00
        -11   -1    0    0    0    0  0.00000000000E+00  0.00000000000E+00  0.45593999997E+02  0.45594000000E+02  0.51100000000E-03 0.  1.
         11   -1    0    0    0    0 -0.00000000000E+00 -0.00000000000E+00 -0.45593999997E+02  0.45594000000E+02  0.51100000000E-03 0. -1.
    9900012    2    1    2    0    0 -0.33244373583E+02 -0.22882901245E+02  0.49345306627E+01  0.50528866498E+02  0.30000020206E+02 0.  0.
        -12    1    1    2    0    0  0.33244373583E+02  0.22882901245E+02 -0.49345306627E+01  0.40659133502E+02  0.00000000000E+00 0.  1.
         11    1    3    3    0    0 -0.25580339211E+02 -0.26149466809E+02  0.49248568890E+01  0.36910738061E+02  0.51100000000E-03 0. -1.
        -11    1    3    3    0    0 -0.79604607230E+01  0.55743748537E+01  0.26754729612E+01  0.10079719528E+02  0.51100000000E-03 0.  1.
         12    1    3    3    0    0  0.29642635142E+00 -0.23078092895E+01 -0.26657991875E+01  0.35384089088E+01  0.00000000000E+00 0. -1.
</event>
<event>
 7    1  0.5019004E-011  0.5052886E+02  0.7816164E-02  0.1300439E+00
        -11   -1    0    0    0    0  0.00000000000E+00  0.00000000000E+00  0.45593999997E+02  0.45594000000E+02  0.51100000000E-03 0.  1.
         11   -1    0    0    0    0 -0.00000000000E+00 -0.00000000000E+00 -0.45593999997E+02  0.45594000000E+02  0.51100000000E-03 0. -1.
    9900012    2    1    2    0    0  0.85673407981E+01  0.36530546204E+02 -0.15661602708E+02  0.50528856703E+02  0.29999990434E+02 0.  0.
        -12    1    1    2    0    0 -0.85673407981E+01 -0.36530546204E+02  0.15661602708E+02  0.40659143297E+02  0.00000000000E+00 0.  1.
         11    1    3    3    0    0  0.43370003792E+01  0.50318958394E+01 -0.16610777553E+02  0.17889870855E+02  0.51100000000E-03 0. -1.
        -11    1    3    3    0    0  0.98307637749E+00  0.38597818734E+01  0.26075590061E+01  0.47606427619E+01  0.51100000000E-03 0.  1.
         12    1    3    3    0    0  0.32472640413E+01  0.27638868491E+02 -0.16583841610E+01  0.27878343086E+02  0.00000000000E+00 0. -1.
</event>
<event>
 7    1  0.5019004E-011  0.5052887E+02  0.7816164E-02  0.1300439E+00
        -11   -1    0    0    0    0  0.00000000000E+00  0.00000000000E+00  0.45593999997E+02  0.45594000000E+02  0.51100000000E-03 0. -1.
         11   -1    0    0    0    0 -0.00000000000E+00 -0.00000000000E+00 -0.45593999997E+02  0.45594000000E+02  0.51100000000E-03 0.  1.
    9900012    2    1    2    0    0 -0.62834077705E+01 -0.29919253470E+02  0.26805261414E+02  0.50528868419E+02  0.30000026046E+02 0.  0.
        -12    1    1    2    0    0  0.62834077705E+01  0.29919253470E+02 -0.26805261414E+02  0.40659131581E+02  0.00000000000E+00 0.  1.
         11    1    3    3    0    0 -0.57308556784E+01 -0.67968062383E+01  0.23672164020E+02  0.25286570180E+02  0.51100000000E-03 0. -1.
        -11    1    3    3    0    0  0.45333225166E+01 -0.11277146332E+02  0.16761238398E+01  0.12269247484E+02  0.51100000000E-03 0.  1.
         12    1    3    3    0    0 -0.50858746087E+01 -0.11845300900E+02  0.14569735550E+01  0.12973050755E+02  0.00000000000E+00 0. -1.
</event>
<event>
 7    1  0.5019004E-011  0.5052886E+02  0.7816164E-02  0.1300439E+00
        -11   -1    0    0    0    0  0.00000000000E+00  0.00000000000E+00  0.45593999997E+02  0.45594000000E+02  0.51100000000E-03 0. -1.
         11   -1    0    0    0    0 -0.00000000000E+00 -0.00000000000E+00 -0.45593999997E+02  0.45594000000E+02  0.51100000000E-03 0.  1.
    9900012    2    1    2    0    0  0.26653111385E+01 -0.12230390104E+02  0.38684351162E+02  0.50528863875E+02  0.30000012236E+02 0.  0.
        -12    1    1    2    0    0 -0.26653111385E+01  0.12230390104E+02 -0.38684351162E+02  0.40659136125E+02  0.00000000000E+00 0.  1.
         11    1    3    3    0    0 -0.10733404061E+02 -0.26710165443E+01  0.17498307109E+02  0.20700991379E+02  0.51100000000E-03 0. -1.
        -11    1    3    3    0    0  0.75276232743E+01 -0.11328889414E+02  0.93742246173E+01  0.16519229248E+02  0.51100000000E-03 0.  1.
        -12    1    3    3    0    0  0.58710919248E+01  0.17695158542E+01  0.11811819435E+02  0.13308643249E+02  0.00000000000E+00 0.  1.
</event>
<event>
 7    1  0.5019004E-011  0.5052884E+02  0.7816164E-02  0.1300439E+00
        -11   -1    0    0    0    0  0.00000000000E+00  0.00000000000E+00  0.45593999997E+02  0.45594000000E+02  0.51100000000E-03 0. -1.
         11   -1    0    0    0    0 -0.00000000000E+00 -0.00000000000E+00 -0.45593999997E+02  0.45594000000E+02  0.51100000000E-03 0.  1.
    9900012    2    1    2    0    0 -0.33481674683E+02  0.19409060780E+02  0.12467269219E+02  0.50528843815E+02  0.29999951260E+02 0.  0.
        -12    1    1    2    0    0  0.33481674683E+02 -0.19409060780E+02 -0.12467269219E+02  0.40659156185E+02  0.00000000000E+00 0.  1.
         11    1    3    3    0    0 -0.32535713121E+02  0.25399639506E+02  0.13756648724E+02  0.43508156703E+02  0.51100000000E-03 0. -1.
        -11    1    3    3    0    0 -0.89010409620E+00 -0.12414258055E+01 -0.16610821756E+01  0.22566828726E+01  0.51100000000E-03 0.  1.
         12    1    3    3    0    0 -0.55857465079E-01 -0.47491529205E+01  0.37170267053E+00  0.47640042395E+01  0.00000000000E+00 0. -1.
</event>
<event>
 7    1  0.5019004E-011  0.5052886E+02  0.7816164E-02  0.1300439E+00
        -11   -1    0    0    0    0  0.00000000000E+00  0.00000000000E+00  0.45593999997E+02  0.45594000000E+02  0.51100000000E-03 0. -1.
         11   -1    0    0    0    0 -0.00000000000E+00 -0.00000000000E+00 -0.45593999997E+02  0.45594000000E+02  0.51100000000E-03 0.  1.
    9900012    2    1    2    0    0  0.19250738874E+02 -0.34996734759E+02 -0.76028307684E+01  0.50528862938E+02  0.30000009385E+02 0.  0.
        -12    1    1    2    0    0 -0.19250738874E+02  0.34996734759E+02  0.76028307684E+01  0.40659137062E+02  0.00000000000E+00 0.  1.
         11    1    3    3    0    0  0.17283769440E+02 -0.33469267278E+02 -0.10233897393E+02  0.39034000490E+02  0.51100000000E-03 0. -1.
        -11    1    3    3    0    0  0.19914154603E+01 -0.25230665227E+01  0.66330538586E+01  0.73708211188E+01  0.51100000000E-03 0.  1.
         12    1    3    3    0    0 -0.24446026958E-01  0.99559904137E+00 -0.40019872339E+01  0.41240413285E+01  0.00000000000E+00 0. -1.
</event>
<event>
 7    1  0.5019004E-011  0.5052885E+02  0.7816164E-02  0.1300439E+00
        -11   -1    0    0    0    0  0.00000000000E+00  0.00000000000E+00  0.45593999997E+02  0.45594000000E+02  0.51100000000E-03 0. -1.
         11   -1    0    0    0    0 -0.00000000000E+00 -0.00000000000E+00 -0.45593999997E+02  0.45594000000E+02  0.51100000000E-03 0.  1.
    9900012    2    1    2    0    0  0.23914754677E+02  0.22066725571E+02  0.24378482482E+02  0.50528852483E+02  0.29999977607E+02 0.  0.
        -12    1    1    2    0    0 -0.23914754677E+02 -0.22066725571E+02 -0.24378482482E+02  0.40659147517E+02  0.00000000000E+00 0.  1.
         11    1    3    3    0    0 -0.37115715085E+01  0.61291225203E+01  0.14418681478E+02  0.16100940400E+02  0.51100000000E-03 0. -1.
        -11    1    3    3    0    0  0.95113258768E+01  0.32840433650E+01  0.67077581072E+01  0.12093150121E+02  0.51100000000E-03 0.  1.
         12    1    3    3    0    0  0.18115000309E+02  0.12653559686E+02  0.32520428964E+01  0.22334761962E+02  0.00000000000E+00 0. -1.
</event>
<event>
 7    1  0.5019004E-011  0.5052885E+02  0.7816164E-02  0.1300439E+00
        -11   -1    0    0    0    0  0.00000000000E+00  0.00000000000E+00  0.45593999997E+02  0.45594000000E+02  0.51100000000E-03 0. -1.
         11   -1    0    0    0    0 -0.00000000000E+00 -0.00000000000E+00 -0.45593999997E+02  0.45594000000E+02  0.51100000000E-03 0.  1.
    9900012    2    1    2    0    0  0.15989385327E+01 -0.17600592980E+02  0.36617329203E+02  0.50528852497E+02  0.29999977651E+02 0.  0.
        -12    1    1    2    0    0 -0.15989385327E+01  0.17600592980E+02 -0.36617329203E+02  0.40659147503E+02  0.00000000000E+00 0.  1.
         11    1    3    3    0    0  0.23914424999E+00 -0.20976088255E+02  0.11062910271E+02  0.23715848127E+02  0.51100000000E-03 0. -1.
        -11    1    3    3    0    0 -0.27413755657E+01  0.14239080346E+00  0.11402216373E+02  0.11727998704E+02  0.51100000000E-03 0.  1.
         12    1    3    3    0    0  0.41011698484E+01  0.32331044724E+01  0.14152202559E+02  0.15085005666E+02  0.00000000000E+00 0. -1.
</event>
<event>
 7    1  0.5019004E-011  0.5052888E+02  0.7816164E-02  0.1300439E+00
        -11   -1    0    0    0    0  0.00000000000E+00  0.00000000000E+00  0.45593999997E+02  0.45594000000E+02  0.51100000000E-03 0.  1.
         11   -1    0    0    0    0 -0.00000000000E+00 -0.00000000000E+00 -0.45593999997E+02  0.45594000000E+02  0.51100000000E-03 0. -1.
    9900012    2    1    2    0    0 -0.22298194022E+02  0.33318475312E+02  0.67700582743E+01  0.50528881185E+02  0.30000064849E+02 0.  0.
        -12    1    1    2    0    0  0.22298194022E+02 -0.33318475312E+02 -0.67700582743E+01  0.40659118815E+02  0.00000000000E+00 0.  1.
         11    1    3    3    0    0 -0.19207764258E+02  0.24921775877E+02 -0.61647594131E+01  0.32063021997E+02  0.51100000000E-03 0. -1.
        -11    1    3    3    0    0  0.31250418866E+00  0.14159125999E+01  0.10092344821E+02  0.10195974284E+02  0.51100000000E-03 0.  1.
         12    1    3    3    0    0 -0.34029339527E+01  0.69807868350E+01  0.28424728665E+01  0.82698849036E+01  0.00000000000E+00 0. -1.
</event>
<event>
 7    1  0.5019004E-011  0.5052885E+02  0.7816164E-02  0.1300439E+00
        -11   -1    0    0    0    0  0.00000000000E+00  0.00000000000E+00  0.45593999997E+02  0.45594000000E+02  0.51100000000E-03 0.  1.
         11   -1    0    0    0    0 -0.00000000000E+00 -0.00000000000E+00 -0.45593999997E+02  0.45594000000E+02  0.51100000000E-03 0. -1.
    9900012    2    1    2    0    0 -0.75235863663E+01  0.30850841895E+02 -0.25392667916E+02  0.50528851198E+02  0.29999973702E+02 0.  0.
        -12    1    1    2    0    0  0.75235863663E+01 -0.30850841895E+02  0.25392667916E+02  0.40659148802E+02  0.00000000000E+00 0.  1.
         11    1    3    3    0    0  0.32993705225E+01 -0.23654742170E+01 -0.31166353528E+01  0.51180787703E+01  0.51100000000E-03 0. -1.
        -11    1    3    3    0    0 -0.14486736842E+02  0.17950804811E+02 -0.86917363557E+01  0.24650420257E+02  0.51100000000E-03 0.  1.
        -12    1    3    3    0    0  0.36637799535E+01  0.15265511300E+02 -0.13584296207E+02  0.20760352171E+02  0.00000000000E+00 0.  1.
</event>
<event>
 7    1  0.5019004E-011  0.5052887E+02  0.7816164E-02  0.1300439E+00
        -11   -1    0    0    0    0  0.00000000000E+00  0.00000000000E+00  0.45593999997E+02  0.45594000000E+02  0.51100000000E-03 0.  1.
         11   -1    0    0    0    0 -0.00000000000E+00 -0.00000000000E+00 -0.45593999997E+02  0.45594000000E+02  0.51100000000E-03 0. -1.
    9900012    2    1    2    0    0  0.28284557213E+01 -0.58841013590E+01 -0.40131562331E+02  0.50528866885E+02  0.30000021383E+02 0.  0.
        -12    1    1    2    0    0 -0.28284557213E+01  0.58841013590E+01  0.40131562331E+02  0.40659133115E+02  0.00000000000E+00 0.  1.
         11    1    3    3    0    0 -0.11973123261E+01 -0.97629738991E+01 -0.19565222879E+02  0.21898565312E+02  0.51100000000E-03 0. -1.
        -11    1    3    3    0    0 -0.24274785478E+01  0.28450496126E+00  0.30368716263E+01  0.38982284065E+01  0.51100000000E-03 0.  1.
        -12    1    3    3    0    0  0.64532465952E+01  0.35943675788E+01 -0.23603211078E+02  0.24732073166E+02  0.00000000000E+00 0.  1.
</event>
<event>
 7    1  0.5019004E-011  0.5052885E+02  0.7816164E-02  0.1300439E+00
        -11   -1    0    0    0    0  0.00000000000E+00  0.00000000000E+00  0.45593999997E+02  0.45594000000E+02  0.51100000000E-03 0. -1.
         11   -1    0    0    0    0 -0.00000000000E+00 -0.00000000000E+00 -0.45593999997E+02  0.45594000000E+02  0.51100000000E-03 0.  1.
    9900012    2    1    2    0    0  0.65306937546E+01 -0.81574622781E+00  0.40122947805E+02  0.50528851665E+02  0.29999975120E+02 0.  0.
        -12    1    1    2    0    0 -0.65306937546E+01  0.81574622781E+00 -0.40122947805E+02  0.40659148335E+02  0.00000000000E+00 0.  1.
         11    1    3    3    0    0  0.98767152141E+01  0.49648622729E+01  0.14631477848E+02  0.18337925321E+02  0.51100000000E-03 0. -1.
        -11    1    3    3    0    0 -0.10888346330E+02 -0.17039605716E+01  0.13042977244E+02  0.17075679286E+02  0.51100000000E-03 0.  1.
        -12    1    3    3    0    0  0.75423248702E+01 -0.40766479291E+01  0.12448492713E+02  0.15115247058E+02  0.00000000000E+00 0.  1.
</event>
<event>
 7    1  0.5019004E-011  0.5052888E+02  0.7816164E-02  0.1300439E+00
        -11   -1    0    0    0    0  0.00000000000E+00  0.00000000000E+00  0.45593999997E+02  0.45594000000E+02  0.51100000000E-03 0. -1.
         11   -1    0    0    0    0 -0.00000000000E+00 -0.00000000000E+00 -0.45593999997E+02  0.45594000000E+02  0.51100000000E-03 0.  1.
    9900012    2    1    2    0    0 -0.12248980420E+02 -0.23007284976E+01  0.38701845216E+02  0.50528884219E+02  0.30000074072E+02 0.  0.
        -12    1    1    2    0    0  0.12248980420E+02  0.23007284976E+01 -0.38701845216E+02  0.40659115781E+02  0.00000000000E+00 0.  1.
         11    1    3    3    0    0 -0.52471462620E+01 -0.61012107166E+01  0.32212223234E+02  0.33202178273E+02  0.51100000000E-03 0. -1.
        -11    1    3    3    0    0 -0.50018859429E+01  0.35441035257E+00 -0.38006375262E+01  0.62920040965E+01  0.51100000000E-03 0.  1.
        -12    1    3    3    0    0 -0.19999482148E+01  0.34460718664E+01  0.10290259508E+02  0.11034701850E+02  0.00000000000E+00 0.  1.
</event>
<event>
 7    1  0.5019004E-011  0.5052885E+02  0.7816164E-02  0.1300439E+00
        -11   -1    0    0    0    0  0.00000000000E+00  0.00000000000E+00  0.45593999997E+02  0.45594000000E+02  0.51100000000E-03 0.  1.
         11   -1    0    0    0    0 -0.00000000000E+00 -0.00000000000E+00 -0.45593999997E+02  0.45594000000E+02  0.51100000000E-03 0. -1.
    9900012    2    1    2    0    0 -0.13018409961E+02 -0.16771504235E+02 -0.34675703202E+02  0.50528846728E+02  0.29999960115E+02 0.  0.
        -12    1    1    2    0    0  0.13018409961E+02  0.16771504235E+02  0.34675703202E+02  0.40659153272E+02  0.00000000000E+00 0.  1.
         11    1    3    3    0    0 -0.17285531355E+02 -0.13918450349E+02 -0.89635312146E+01  0.23934446859E+02  0.51100000000E-03 0. -1.
        -11    1    3    3    0    0  0.36250295351E+01 -0.32633353568E+00 -0.94890300194E+01  0.10163120765E+02  0.51100000000E-03 0.  1.
         12    1    3    3    0    0  0.64209185908E+00 -0.25267203503E+01 -0.16223141968E+02  0.16431279105E+02  0.00000000000E+00 0. -1.
</event>
<event>
 7    1  0.5019004E-011  0.5052885E+02  0.7816164E-02  0.1300439E+00
        -11   -1    0    0    0    0  0.00000000000E+00  0.00000000000E+00  0.45593999997E+02  0.45594000000E+02  0.51100000000E-03 0.  1.
         11   -1    0    0    0    0 -0.00000000000E+00 -0.00000000000E+00 -0.45593999997E+02  0.45594000000E+02  0.51100000000E-03 0. -1.
    9900012    2    1    2    0    0  0.29642443994E+02 -0.87561270670E+01 -0.26416318184E+02  0.50528854491E+02  0.29999983710E+02 0.  0.
        -12    1    1    2    0    0 -0.29642443994E+02  0.87561270670E+01  0.26416318184E+02  0.40659145509E+02  0.00000000000E+00 0.  1.
         11    1    3    3    0    0  0.20743901795E+02 -0.12623631409E+02 -0.31128310690E+02  0.39479580271E+02  0.51100000000E-03 0. -1.
        -11    1    3    3    0    0  0.32504783269E+01  0.29121353416E+00  0.20482959609E+01  0.38530418218E+01  0.51100000000E-03 0.  1.
         12    1    3    3    0    0  0.56480638718E+01  0.35762908078E+01  0.26636965457E+01  0.71962323983E+01  0.00000000000E+00 0. -1.
</event>
<event>
 7    1  0.5019004E-011  0.5052886E+02  0.7816164E-02  0.1300439E+00
        -11   -1    0    0    0    0  0.00000000000E+00  0.00000000000E+00  0.45593999997E+02  0.45594000000E+02  0.51100000000E-03 0. -1.
         11   -1    0    0    0    0 -0.00000000000E+00 -0.00000000000E+00 -0.45593999997E+02  0.45594000000E+02  0.51100000000E-03 0.  1.
    9900012    2    1    2    0    0 -0.20004907801E+02  0.34147836215E+02  0.93217282205E+01  0.50528859929E+02  0.30000000240E+02 0.  0.
        -12    1    1    2    0    0  0.20004907801E+02 -0.34147836215E+02 -0.93217282205E+01  0.40659140071E+02  0.00000000000E+00 0.  1.
         11    1    3    3    0    0 -0.10417102991E+02  0.22475823328E+02  0.14350994964E+02  0.28629176127E+02  0.51100000000E-03 0. -1.
        -11    1    3    3    0    0 -0.13605448556E+02  0.10131550552E+02 -0.34132152316E+01  0.17303369195E+02  0.51100000000E-03 0.  1.
         12    1    3    3    0    0  0.40176437460E+01  0.15404623346E+01 -0.16160515123E+01  0.45963146068E+01  0.00000000000E+00 0. -1.
</event>
<event>
 7    1  0.5019004E-011  0.5052885E+02  0.7816164E-02  0.1300439E+00
        -11   -1    0    0    0    0  0.00000000000E+00  0.00000000000E+00  0.45593999997E+02  0.45594000000E+02  0.51100000000E-03 0.  1.
         11   -1    0    0    0    0 -0.00000000000E+00 -0.00000000000E+00 -0.45593999997E+02  0.45594000000E+02  0.51100000000E-03 0. -1.
    9900012    2    1    2    0    0 -0.16267994862E+02  0.18502912788E+02 -0.32344413444E+02  0.50528849499E+02  0.29999968536E+02 0.  0.
        -12    1    1    2    0    0  0.16267994862E+02 -0.18502912788E+02  0.32344413444E+02  0.40659150501E+02  0.00000000000E+00 0.  1.
         11    1    3    3    0    0 -0.22623961486E+02  0.73087841602E+01 -0.20370840203E+02  0.31308674359E+02  0.51100000000E-03 0. -1.
        -11    1    3    3    0    0  0.49879750773E+01  0.41812914599E+01 -0.17367334654E+01  0.67364187099E+01  0.51100000000E-03 0.  1.
         12    1    3    3    0    0  0.13679915476E+01  0.70128371676E+01 -0.10236839776E+02  0.12483756430E+02  0.00000000000E+00 0. -1.
</event>
<event>
 7    1  0.5019004E-011  0.5052885E+02  0.7816164E-02  0.1300439E+00
        -11   -1    0    0    0    0  0.00000000000E+00  0.00000000000E+00  0.45593999997E+02  0.45594000000E+02  0.51100000000E-03 0. -1.
         11   -1    0    0    0    0 -0.00000000000E+00 -0.00000000000E+00 -0.45593999997E+02  0.45594000000E+02  0.51100000000E-03 0.  1.
    9900012    2    1    2    0    0 -0.26276266389E+02 -0.17094519904E+02  0.25894047436E+02  0.50528850000E+02  0.29999970061E+02 0.  0.
        -12    1    1    2    0    0  0.26276266389E+02  0.17094519904E+02 -0.25894047436E+02  0.40659150000E+02  0.00000000000E+00 0.  1.
         11    1    3    3    0    0 -0.14474134280E+02  0.30076414332E+01  0.19897803109E+02  0.24788486016E+02  0.51100000000E-03 0. -1.
        -11    1    3    3    0    0 -0.12422600039E+01 -0.11052581934E+02  0.28623381733E+01  0.11484587821E+02  0.51100000000E-03 0.  1.
         12    1    3    3    0    0 -0.10559872105E+02 -0.90495794025E+01  0.31339061537E+01  0.14255776163E+02  0.00000000000E+00 0. -1.
</event>
<event>
 7    1  0.5019004E-011  0.5052887E+02  0.7816164E-02  0.1300439E+00
        -11   -1    0    0    0    0  0.00000000000E+00  0.00000000000E+00  0.45593999997E+02  0.45594000000E+02  0.51100000000E-03 0.  1.
         11   -1    0    0    0    0 -0.00000000000E+00 -0.00000000000E+00 -0.45593999997E+02  0.45594000000E+02  0.51100000000E-03 0. -1.
    9900012    2    1    2    0    0  0.28580926963E+01  0.40542240805E+02 -0.11500091028E+01  0.50528874280E+02  0.30000043862E+02 0.  0.
        -12    1    1    2    0    0 -0.28580926963E+01 -0.40542240805E+02  0.11500091028E+01  0.40659125720E+02  0.00000000000E+00 0.  1.
         11    1    3    3    0    0  0.76623168910E+01  0.30302233421E+02 -0.97577555790E+01  0.32743705420E+02  0.51100000000E-03 0. -1.
        -11    1    3    3    0    0 -0.77362410459E+01  0.41009107046E+01  0.50461040395E+01  0.10105941835E+02  0.51100000000E-03 0.  1.
        -12    1    3    3    0    0  0.29320168512E+01  0.61390966801E+01  0.35616424367E+01  0.76792270255E+01  0.00000000000E+00 0.  1.
</event>
<event>
 7    1  0.5019004E-011  0.5052886E+02  0.7816164E-02  0.1300439E+00
        -11   -1    0    0    0    0  0.00000000000E+00  0.00000000000E+00  0.45593999997E+02  0.45594000000E+02  0.51100000000E-03 0.  1.
         11   -1    0    0    0    0 -0.00000000000E+00 -0.00000000000E+00 -0.45593999997E+02  0.45594000000E+02  0.51100000000E-03 0. -1.
    9900012    2    1    2    0    0 -0.14744119675E+02  0.37615356137E+02  0.45674696286E+01  0.50528857595E+02  0.29999993145E+02 0.  0.
        -12    1    1    2    0    0  0.14744119675E+02 -0.37615356137E+02 -0.45674696286E+01  0.40659142405E+02  0.00000000000E+00 0.  1.
         11    1    3    3    0    0  0.16045605866E+01 -0.18709830178E+01 -0.30484605508E+01  0.39202428649E+01  0.51100000000E-03 0. -1.
        -11    1    3    3    0    0 -0.13528272350E+02  0.35355515062E+02  0.12252009007E+02  0.39788670787E+02  0.51100000000E-03 0.  1.
        -12    1    3    3    0    0 -0.28204079123E+01  0.41308240934E+01 -0.46360788277E+01  0.68199439425E+01  0.00000000000E+00 0.  1.
</event>
<event>
 7    1  0.5019004E-011  0.5052886E+02  0.7816164E-02  0.1300439E+00
        -11   -1    0    0    0    0  0.00000000000E+00  0.00000000000E+00  0.45593999997E+02  0.45594000000E+02  0.51100000000E-03 0.  1.
         11   -1    0    0    0    0 -0.00000000000E+00 -0.00000000000E+00 -0.45593999997E+02  0.45594000000E+02  0.51100000000E-03 0. -1.
    9900012    2    1    2    0    0 -0.71232675616E+01 -0.19368497138E+02 -0.35032643106E+02  0.50528859513E+02  0.29999998977E+02 0.  0.
        -12    1    1    2    0    0  0.71232675616E+01  0.19368497138E+02  0.35032643106E+02  0.40659140487E+02  0.00000000000E+00 0.  1.
         11    1    3    3    0    0  0.53106468879E+01 -0.70123969986E+01  0.11783518593E+01  0.88749757972E+01  0.51100000000E-03 0. -1.
        -11    1    3    3    0    0 -0.70591538997E+01 -0.27260910126E+01 -0.65475258582E+01  0.10006663835E+02  0.51100000000E-03 0.  1.
         12    1    3    3    0    0 -0.53747605498E+01 -0.96300091269E+01 -0.29663469107E+02  0.31647219881E+02  0.00000000000E+00 0. -1.
</event>
<event>
 7    1  0.5019004E-011  0.5052886E+02  0.7816164E-02  0.1300439E+00
        -11   -1    0    0    0    0  0.00000000000E+00  0.00000000000E+00  0.45593999997E+02  0.45594000000E+02  0.51100000000E-03 0. -1.
         11   -1    0    0    0    0 -0.00000000000E+00 -0.00000000000E+00 -0.45593999997E+02  0.45594000000E+02  0.51100000000E-03 0.  1.
    9900012    2    1    2    0    0 -0.31089036429E+01  0.86851042034E+01  0.39598850715E+02  0.50528864559E+02  0.30000014314E+02 0.  0.
        -12    1    1    2    0    0  0.31089036429E+01 -0.86851042034E+01 -0.39598850715E+02  0.40659135441E+02  0.00000000000E+00 0.  1.
         11    1    3    3    0    0 -0.40451171558E+01  0.12777802173E+01  0.20749026890E+02  0.21178239120E+02  0.51100000000E-03 0. -1.
        -11    1    3    3    0    0  0.59158122085E+01  0.84727114644E+01  0.54203930476E+00  0.10347824917E+02  0.51100000000E-03 0.  1.
        -12    1    3    3    0    0 -0.49795986956E+01 -0.10653874783E+01  0.18307784520E+02  0.19002800522E+02  0.00000000000E+00 0.  1.
</event>
<event>
 7    1  0.5019004E-011  0.5052887E+02  0.7816164E-02  0.1300439E+00
        -11   -1    0    0    0    0  0.00000000000E+00  0.00000000000E+00  0.45593999997E+02  0.45594000000E+02  0.51100000000E-03 0.  1.
         11   -1    0    0    0    0 -0.00000000000E+00 -0.00000000000E+00 -0.45593999997E+02  0.45594000000E+02  0.51100000000E-03 0. -1.
    9900012    2    1    2    0    0  0.31297273293E+02 -0.15796069270E+01 -0.25906565503E+02  0.50528872983E+02  0.30000039919E+02 0.  0.
        -12    1    1    2    0    0 -0.31297273293E+02  0.15796069270E+01  0.25906565503E+02  0.40659127017E+02  0.00000000000E+00 0.  1.
         11    1    3    3    0    0  0.67789456751E+00  0.18040068673E+01 -0.43325797583E+01  0.47418592815E+01  0.51100000000E-03 0. -1.
        -11    1    3    3    0    0  0.24198541144E+02 -0.70267155405E+00 -0.11786289535E+01  0.24237415441E+02  0.51100000000E-03 0.  1.
        -12    1    3    3    0    0  0.64208375822E+01 -0.26809422403E+01 -0.20395356791E+02  0.21549598260E+02  0.00000000000E+00 0.  1.
</event>
<event>
 7    1  0.5019004E-011  0.5052886E+02  0.7816164E-02  0.1300439E+00
        -11   -1    0    0    0    0  0.00000000000E+00  0.00000000000E+00  0.45593999997E+02  0.45594000000E+02  0.51100000000E-03 0.  1.
         11   -1    0    0    0    0 -0.00000000000E+00 -0.00000000000E+00 -0.45593999997E+02  0.45594000000E+02  0.51100000000E-03 0. -1.
    9900012    2    1    2    0    0 -0.24303319163E+02 -0.11547402871E+02 -0.30482314197E+02  0.50528864321E+02  0.30000013589E+02 0.  0.
        -12    1    1    2    0    0  0.24303319163E+02  0.11547402871E+02  0.30482314197E+02  0.40659135679E+02  0.00000000000E+00 0.  1.
         11    1    3    3    0    0 -0.11394110733E+02 -0.13658902615E+02 -0.94904446696E+01  0.20160851181E+02  0.51100000000E-03 0. -1.
        -11    1    3    3    0    0 -0.16330908904E+02  0.46753294209E+01 -0.19448088978E+02  0.25822189218E+02  0.51100000000E-03 0.  1.
        -12    1    3    3    0    0  0.34217004743E+01 -0.25638296765E+01 -0.15437805486E+01  0.45458239218E+01  0.00000000000E+00 0.  1.
</event>
<event>
 7    1  0.5019004E-011  0.5052884E+02  0.7816164E-02  0.1300439E+00
        -11   -1    0    0    0    0  0.00000000000E+00  0.00000000000E+00  0.45593999997E+02  0.45594000000E+02  0.51100000000E-03 0.  1.
         11   -1    0    0    0    0 -0.00000000000E+00 -0.00000000000E+00 -0.45593999997E+02  0.45594000000E+02  0.51100000000E-03 0. -1.
    9900012    2    1    2    0    0 -0.21375117370E+02 -0.47692316375E+01 -0.34256762743E+02  0.50528843508E+02  0.29999950326E+02 0.  0.
        -12    1    1    2    0    0  0.21375117370E+02  0.47692316375E+01  0.34256762743E+02  0.40659156492E+02  0.00000000000E+00 0.  1.
         11    1    3    3    0    0 -0.14681528535E+02  0.31976697559E+01 -0.32073839362E+02  0.35418971522E+02  0.51100000000E-03 0. -1.
        -11    1    3    3    0    0 -0.33102289143E+01 -0.10204164643E+02 -0.56371026021E+00  0.10742456007E+02  0.51100000000E-03 0.  1.
         12    1    3    3    0    0 -0.33833599206E+01  0.22372632501E+01 -0.16192131214E+01  0.43674159791E+01  0.00000000000E+00 0. -1.
</event>
<event>
 7    1  0.5019004E-011  0.5052886E+02  0.7816164E-02  0.1300439E+00
        -11   -1    0    0    0    0  0.00000000000E+00  0.00000000000E+00  0.45593999997E+02  0.45594000000E+02  0.51100000000E-03 0.  1.
         11   -1    0    0    0    0 -0.00000000000E+00 -0.00000000000E+00 -0.45593999997E+02  0.45594000000E+02  0.51100000000E-03 0. -1.
    9900012    2    1    2    0    0  0.19504803463E+02  0.18386842696E+02 -0.30572080856E+02  0.50528862401E+02  0.30000007754E+02 0.  0.
        -12    1    1    2    0    0 -0.19504803463E+02 -0.18386842696E+02  0.30572080856E+02  0.40659137599E+02  0.00000000000E+00 0.  1.
         11    1    3    3    0    0  0.38854960438E+01 -0.68089496540E+01 -0.28732323632E+01  0.83495113253E+01  0.51100000000E-03 0. -1.
        -11    1    3    3    0    0  0.14768111617E+02  0.13570807829E+02 -0.15905839294E+02  0.25598040350E+02  0.51100000000E-03 0.  1.
        -12    1    3    3    0    0  0.85119580195E+00  0.11624984521E+02 -0.11793009199E+02  0.16581310725E+02  0.00000000000E+00 0.  1.
</event>
<event>
 7    1  0.5019004E-011  0.5052885E+02  0.7816164E-02  0.1300439E+00
        -11   -1    0    0    0    0  0.00000000000E+00  0.00000000000E+00  0.45593999997E+02  0.45594000000E+02  0.51100000000E-03 0.  1.
         11   -1    0    0    0    0 -0.00000000000E+00 -0.00000000000E+00 -0.45593999997E+02  0.45594000000E+02  0.51100000000E-03 0. -1.
    9900012    2    1    2    0    0 -0.58676145638E+01 -0.40016507606E+02 -0.41732913586E+01  0.50528854136E+02  0.29999982632E+02 0.  0.
        -12    1    1    2    0    0  0.58676145638E+01  0.40016507606E+02  0.41732913586E+01  0.40659145864E+02  0.00000000000E+00 0.  1.
         11    1    3    3    0    0  0.55091518785E+01 -0.19298128992E+02 -0.48006082783E+01  0.20635270221E+02  0.51100000000E-03 0. -1.
        -11    1    3    3    0    0 -0.91557751831E+01 -0.16330825964E+00  0.10298043076E+01  0.92149544744E+01  0.51100000000E-03 0.  1.
        -12    1    3    3    0    0 -0.22209912592E+01 -0.20555070354E+02 -0.40248738797E+00  0.20678629441E+02  0.00000000000E+00 0.  1.
</event>
<event>
 7    1  0.5019004E-011  0.5052886E+02  0.7816164E-02  0.1300439E+00
        -11   -1    0    0    0    0  0.00000000000E+00  0.00000000000E+00  0.45593999997E+02  0.45594000000E+02  0.51100000000E-03 0.  1.
         11   -1    0    0    0    0 -0.00000000000E+00 -0.00000000000E+00 -0.45593999997E+02  0.45594000000E+02  0.51100000000E-03 0. -1.
    9900012    2    1    2    0    0  0.28090388431E+02  0.23539596576E+02 -0.17606333134E+02  0.50528862089E+02  0.30000006807E+02 0.  0.
        -12    1    1    2    0    0 -0.28090388431E+02 -0.23539596576E+02  0.17606333134E+02  0.40659137911E+02  0.00000000000E+00 0.  1.
         11    1    3    3    0    0  0.12650346879E+02  0.74008875260E+00 -0.68533183091E+01  0.14406490885E+02  0.51100000000E-03 0. -1.
        -11    1    3    3    0    0  0.31885380012E+01 -0.21782955637E+01 -0.70741827790E+01  0.80595166356E+01  0.51100000000E-03 0.  1.
        -12    1    3    3    0    0  0.12251503552E+02  0.24977803387E+02 -0.36788320459E+01  0.28062854569E+02  0.00000000000E+00 0.  1.
</event>
<event>
 7    1  0.5019004E-011  0.5052886E+02  0.7816164E-02  0.1300439E+00
        -11   -1    0    0    0    0  0.00000000000E+00  0.00000000000E+00  0.45593999997E+02  0.45594000000E+02  0.51100000000E-03 0. -1.
         11   -1    0    0    0    0 -0.00000000000E+00 -0.00000000000E+00 -0.45593999997E+02  0.45594000000E+02  0.51100000000E-03 0.  1.
    9900012    2    1    2    0    0  0.19869964938E+02  0.74140245021E+01  0.34689804363E+02  0.50528858436E+02  0.29999995702E+02 0.  0.
        -12    1    1    2    0    0 -0.19869964938E+02 -0.74140245021E+01 -0.34689804363E+02  0.40659141564E+02  0.00000000000E+00 0.  1.
         11    1    3    3    0    0  0.52553652137E+01  0.17290037024E+02  0.17125396819E+02  0.24896655605E+02  0.51100000000E-03 0. -1.
        -11    1    3    3    0    0  0.79761728303E+01 -0.18469571018E+01  0.66919523182E+01  0.10574157633E+02  0.51100000000E-03 0.  1.
         12    1    3    3    0    0  0.66384268941E+01 -0.80290554197E+01  0.10872455226E+02  0.15058045198E+02  0.00000000000E+00 0. -1.
</event>
<event>
 7    1  0.5019004E-011  0.5052888E+02  0.7816164E-02  0.1300439E+00
        -11   -1    0    0    0    0  0.00000000000E+00  0.00000000000E+00  0.45593999997E+02  0.45594000000E+02  0.51100000000E-03 0. -1.
         11   -1    0    0    0    0 -0.00000000000E+00 -0.00000000000E+00 -0.45593999997E+02  0.45594000000E+02  0.51100000000E-03 0.  1.
    9900012    2    1    2    0    0 -0.33554481966E+02 -0.55162732726E+01  0.22289714009E+02  0.50528881940E+02  0.30000067145E+02 0.  0.
        -12    1    1    2    0    0  0.33554481966E+02  0.55162732726E+01 -0.22289714009E+02  0.40659118060E+02  0.00000000000E+00 0.  1.
         11    1    3    3    0    0 -0.33634467915E+02 -0.48205861583E+01  0.10879652652E+02  0.35677476437E+02  0.51100000000E-03 0. -1.
        -11    1    3    3    0    0  0.37797231198E+01  0.25707925538E+01  0.54622007964E+01  0.71225640761E+01  0.51100000000E-03 0.  1.
         12    1    3    3    0    0 -0.36997371705E+01 -0.32664796681E+01  0.59478605608E+01  0.77288414270E+01  0.00000000000E+00 0. -1.
</event>
<event>
 7    1  0.5019004E-011  0.5052885E+02  0.7816164E-02  0.1300439E+00
        -11   -1    0    0    0    0  0.00000000000E+00  0.00000000000E+00  0.45593999997E+02  0.45594000000E+02  0.51100000000E-03 0.  1.
         11   -1    0    0    0    0 -0.00000000000E+00 -0.00000000000E+00 -0.45593999997E+02  0.45594000000E+02  0.51100000000E-03 0. -1.
    9900012    2    1    2    0    0 -0.11553869275E+02  0.16462830131E+02 -0.35336234437E+02  0.50528854223E+02  0.29999982895E+02 0.  0.
        -12    1    1    2    0    0  0.11553869275E+02 -0.16462830131E+02  0.35336234437E+02  0.40659145777E+02  0.00000000000E+00 0.  1.
         11    1    3    3    0    0  0.44458930613E+01  0.11994750800E+02 -0.76364835941E+01  0.14898184246E+02  0.51100000000E-03 0. -1.
        -11    1    3    3    0    0 -0.50746685922E+01 -0.29308593408E+01 -0.11345353552E+01  0.59690341371E+01  0.51100000000E-03 0.  1.
         12    1    3    3    0    0 -0.10925093744E+02  0.73989386714E+01 -0.26565215488E+02  0.29661635840E+02  0.00000000000E+00 0. -1.
</event>
<event>
 7    1  0.5019004E-011  0.5052886E+02  0.7816164E-02  0.1300439E+00
        -11   -1    0    0    0    0  0.00000000000E+00  0.00000000000E+00  0.45593999997E+02  0.45594000000E+02  0.51100000000E-03 0.  1.
         11   -1    0    0    0    0 -0.00000000000E+00 -0.00000000000E+00 -0.45593999997E+02  0.45594000000E+02  0.51100000000E-03 0. -1.
    9900012    2    1    2    0    0 -0.46119112385E+01  0.84532198203E+01 -0.39502397350E+02  0.50528855309E+02  0.29999986197E+02 0.  0.
        -12    1    1    2    0    0  0.46119112385E+01 -0.84532198203E+01  0.39502397350E+02  0.40659144691E+02  0.00000000000E+00 0.  1.
         11    1    3    3    0    0  0.93488954241E+01 -0.10037102418E+01 -0.25442093998E+02  0.27123964075E+02  0.51100000000E-03 0. -1.
        -11    1    3    3    0    0 -0.84126626163E+01  0.84074819475E+00 -0.67046716865E+01  0.10790383335E+02  0.51100000000E-03 0.  1.
         12    1    3    3    0    0 -0.55481440463E+01  0.86161818673E+01 -0.73556316658E+01  0.12614507899E+02  0.00000000000E+00 0. -1.
</event>
<event>
 7    1  0.5019004E-011  0.5052886E+02  0.7816164E-02  0.1300439E+00
        -11   -1    0    0    0    0  0.00000000000E+00  0.00000000000E+00  0.45593999997E+02  0.45594000000E+02  0.51100000000E-03 0. -1.
         11   -1    0    0    0    0 -0.00000000000E+00 -0.00000000000E+00 -0.45593999997E+02  0.45594000000E+02  0.51100000000E-03 0.  1.
    9900012    2    1    2    0    0 -0.73588958029E+01 -0.36608390083E+02  0.16088456107E+02  0.50528855988E+02  0.29999988260E+02 0.  0.
        -12    1    1    2    0    0  0.73588958029E+01  0.36608390083E+02 -0.16088456107E+02  0.40659144012E+02  0.00000000000E+00 0.  1.
         11    1    3    3    0    0  0.17351497436E+01 -0.11133265362E+02  0.73069692088E+01  0.13429524993E+02  0.51100000000E-03 0. -1.
        -11    1    3    3    0    0 -0.30822244304E-01 -0.12798553680E+02 -0.72769997730E+01  0.14722725708E+02  0.51100000000E-03 0.  1.
        -12    1    3    3    0    0 -0.90632233023E+01 -0.12676571041E+02  0.16058486672E+02  0.22376605287E+02  0.00000000000E+00 0.  1.
</event>
<event>
 7    1  0.5019004E-011  0.5052885E+02  0.7816164E-02  0.1300439E+00
        -11   -1    0    0    0    0  0.00000000000E+00  0.00000000000E+00  0.45593999997E+02  0.45594000000E+02  0.51100000000E-03 0. -1.
         11   -1    0    0    0    0 -0.00000000000E+00 -0.00000000000E+00 -0.45593999997E+02  0.45594000000E+02  0.51100000000E-03 0.  1.
    9900012    2    1    2    0    0 -0.66398058089E+01 -0.38019621832E+02 -0.12790146625E+02  0.50528849540E+02  0.29999968662E+02 0.  0.
        -12    1    1    2    0    0  0.66398058089E+01  0.38019621832E+02  0.12790146625E+02  0.40659150460E+02  0.00000000000E+00 0.  1.
         11    1    3    3    0    0 -0.88723987447E+01 -0.41448305230E+02 -0.91035029659E+01  0.43353837574E+02  0.51100000000E-03 0. -1.
        -11    1    3    3    0    0 -0.48680163772E+00  0.27106494208E+01 -0.29632884555E+00  0.27699110388E+01  0.51100000000E-03 0.  1.
         12    1    3    3    0    0  0.27193945736E+01  0.71803397680E+00 -0.33903148141E+01  0.44051009270E+01  0.00000000000E+00 0. -1.
</event>
<event>
 7    1  0.5019004E-011  0.5052888E+02  0.7816164E-02  0.1300439E+00
        -11   -1    0    0    0    0  0.00000000000E+00  0.00000000000E+00  0.45593999997E+02  0.45594000000E+02  0.51100000000E-03 0.  1.
         11   -1    0    0    0    0 -0.00000000000E+00 -0.00000000000E+00 -0.45593999997E+02  0.45594000000E+02  0.51100000000E-03 0. -1.
    9900012    2    1    2    0    0 -0.92758580576E+01 -0.31519463695E+02 -0.23950914565E+02  0.50528875036E+02  0.30000046160E+02 0.  0.
        -12    1    1    2    0    0  0.92758580576E+01  0.31519463695E+02  0.23950914565E+02  0.40659124964E+02  0.00000000000E+00 0.  1.
         11    1    3    3    0    0  0.88390094214E+01 -0.30522747482E+01 -0.38558586660E+01  0.10114945131E+02  0.51100000000E-03 0. -1.
        -11    1    3    3    0    0 -0.31227673938E+01 -0.13352548558E+02 -0.67062365113E+01  0.15264856292E+02  0.51100000000E-03 0.  1.
         12    1    3    3    0    0 -0.14992100085E+02 -0.15114640388E+02 -0.13388819388E+02  0.25149073614E+02  0.00000000000E+00 0. -1.
</event>
<event>
 7    1  0.5019004E-011  0.5052886E+02  0.7816164E-02  0.1300439E+00
        -11   -1    0    0    0    0  0.00000000000E+00  0.00000000000E+00  0.45593999997E+02  0.45594000000E+02  0.51100000000E-03 0.  1.
         11   -1    0    0    0    0 -0.00000000000E+00 -0.00000000000E+00 -0.45593999997E+02  0.45594000000E+02  0.51100000000E-03 0. -1.
    9900012    2    1    2    0    0  0.18913593888E+02  0.49747009699E+01 -0.35646797349E+02  0.50528857796E+02  0.29999993756E+02 0.  0.
        -12    1    1    2    0    0 -0.18913593888E+02 -0.49747009699E+01  0.35646797349E+02  0.40659142204E+02  0.00000000000E+00 0.  1.
         11    1    3    3    0    0  0.11117741762E+02  0.13667362832E+02 -0.18372241576E+02  0.25454670484E+02  0.51100000000E-03 0. -1.
        -11    1    3    3    0    0  0.52913750481E+01 -0.12414894591E+02 -0.11293220767E+02  0.17597303576E+02  0.51100000000E-03 0.  1.
        -12    1    3    3    0    0  0.25044770780E+01  0.37222327296E+01 -0.59813350066E+01  0.74768837351E+01  0.00000000000E+00 0.  1.
</event>
<event>
 7    1  0.5019004E-011  0.5052886E+02  0.7816164E-02  0.1300439E+00
        -11   -1    0    0    0    0  0.00000000000E+00  0.00000000000E+00  0.45593999997E+02  0.45594000000E+02  0.51100000000E-03 0.  1.
         11   -1    0    0    0    0 -0.00000000000E+00 -0.00000000000E+00 -0.45593999997E+02  0.45594000000E+02  0.51100000000E-03 0. -1.
    9900012    2    1    2    0    0 -0.14726288785E+02  0.37270460972E+02  0.68712934983E+01  0.50528861829E+02  0.30000006016E+02 0.  0.
        -12    1    1    2    0    0  0.14726288785E+02 -0.37270460972E+02 -0.68712934983E+01  0.40659138171E+02  0.00000000000E+00 0.  1.
         11    1    3    3    0    0 -0.85875938488E+01  0.60382238051E+01 -0.93765147329E+01  0.14075721780E+02  0.51100000000E-03 0.  1.
        -11    1    3    3    0    0 -0.71846672713E+01  0.27757959205E+02  0.15955343942E+02  0.32813057516E+02  0.51100000000E-03 0. -1.
         12    1    3    3    0    0  0.10459723350E+01  0.34742779622E+01  0.29246428963E+00  0.36400825327E+01  0.00000000000E+00 0. -1.
</event>
<event>
 7    1  0.5019004E-011  0.5052886E+02  0.7816164E-02  0.1300439E+00
        -11   -1    0    0    0    0  0.00000000000E+00  0.00000000000E+00  0.45593999997E+02  0.45594000000E+02  0.51100000000E-03 0. -1.
         11   -1    0    0    0    0 -0.00000000000E+00 -0.00000000000E+00 -0.45593999997E+02  0.45594000000E+02  0.51100000000E-03 0.  1.
    9900012    2    1    2    0    0  0.95254370111E+01 -0.39236030351E+02 -0.47922817366E+01  0.50528855983E+02  0.29999988247E+02 0.  0.
        -12    1    1    2    0    0 -0.95254370111E+01  0.39236030351E+02  0.47922817366E+01  0.40659144017E+02  0.00000000000E+00 0.  1.
         11    1    3    3    0    0 -0.15413219640E+01 -0.19802016380E+02  0.31437785157E+01  0.20109173770E+02  0.51100000000E-03 0. -1.
        -11    1    3    3    0    0  0.33249643813E+01 -0.85257810738E+01 -0.13185702286E+02  0.16050142556E+02  0.51100000000E-03 0.  1.
        -12    1    3    3    0    0  0.77417945938E+01 -0.10908232897E+02  0.52496420333E+01  0.14369539657E+02  0.00000000000E+00 0.  1.
</event>
<event>
 7    1  0.5019004E-011  0.5052884E+02  0.7816164E-02  0.1300439E+00
        -11   -1    0    0    0    0  0.00000000000E+00  0.00000000000E+00  0.45593999997E+02  0.45594000000E+02  0.51100000000E-03 0.  1.
         11   -1    0    0    0    0 -0.00000000000E+00 -0.00000000000E+00 -0.45593999997E+02  0.45594000000E+02  0.51100000000E-03 0. -1.
    9900012    2    1    2    0    0 -0.12801234530E+01  0.29830341744E+02 -0.27598530830E+02  0.50528844714E+02  0.29999953994E+02 0.  0.
        -12    1    1    2    0    0  0.12801234530E+01 -0.29830341744E+02  0.27598530830E+02  0.40659155286E+02  0.00000000000E+00 0.  1.
         11    1    3    3    0    0 -0.45207600494E+00  0.29040021914E+02 -0.30973773442E+02  0.42460592165E+02  0.51100000000E-03 0. -1.
        -11    1    3    3    0    0  0.24330385225E+01 -0.19103891380E+01  0.14800662720E+01  0.34292651605E+01  0.51100000000E-03 0.  1.
         12    1    3    3    0    0 -0.32610859706E+01  0.27007089671E+01  0.18951763405E+01  0.46389873889E+01  0.00000000000E+00 0. -1.
</event>
<event>
 7    1  0.5019004E-011  0.5052886E+02  0.7816164E-02  0.1300439E+00
        -11   -1    0    0    0    0  0.00000000000E+00  0.00000000000E+00  0.45593999997E+02  0.45594000000E+02  0.51100000000E-03 0.  1.
         11   -1    0    0    0    0 -0.00000000000E+00 -0.00000000000E+00 -0.45593999997E+02  0.45594000000E+02  0.51100000000E-03 0. -1.
    9900012    2    1    2    0    0  0.14876254489E+02 -0.30060751870E+02 -0.22982908670E+02  0.50528857836E+02  0.29999993878E+02 0.  0.
        -12    1    1    2    0    0 -0.14876254489E+02  0.30060751870E+02  0.22982908670E+02  0.40659142164E+02  0.00000000000E+00 0.  1.
         11    1    3    3    0    0  0.10410222756E+02 -0.22243683798E+02 -0.73232245071E+01  0.25627793978E+02  0.51100000000E-03 0. -1.
        -11    1    3    3    0    0  0.20311707982E+00  0.83738047027E+00 -0.15219264471E+02  0.15243637161E+02  0.51100000000E-03 0.  1.
        -12    1    3    3    0    0  0.42629146529E+01 -0.86544485419E+01 -0.44041969206E+00  0.96574266969E+01  0.00000000000E+00 0.  1.
</event>
<event>
 7    1  0.5019004E-011  0.5052886E+02  0.7816164E-02  0.1300439E+00
        -11   -1    0    0    0    0  0.00000000000E+00  0.00000000000E+00  0.45593999997E+02  0.45594000000E+02  0.51100000000E-03 0.  1.
         11   -1    0    0    0    0 -0.00000000000E+00 -0.00000000000E+00 -0.45593999997E+02  0.45594000000E+02  0.51100000000E-03 0. -1.
    9900012    2    1    2    0    0  0.20638787451E+02  0.21491680225E+02 -0.27664311720E+02  0.50528855773E+02  0.29999987608E+02 0.  0.
        -12    1    1    2    0    0 -0.20638787451E+02 -0.21491680225E+02  0.27664311720E+02  0.40659144227E+02  0.00000000000E+00 0.  1.
         11    1    3    3    0    0  0.11135435103E+02 -0.13771606411E+01 -0.18132526470E+02  0.21323297184E+02  0.51100000000E-03 0. -1.
        -11    1    3    3    0    0 -0.24724547079E+01  0.23416005592E+01  0.43882899169E+00  0.34334671408E+01  0.51100000000E-03 0.  1.
         12    1    3    3    0    0  0.11975807056E+02  0.20527240307E+02 -0.99706142410E+01  0.25772091448E+02  0.00000000000E+00 0. -1.
</event>
<event>
 7    1  0.5019004E-011  0.5052887E+02  0.7816164E-02  0.1300439E+00
        -11   -1    0    0    0    0  0.00000000000E+00  0.00000000000E+00  0.45593999997E+02  0.45594000000E+02  0.51100000000E-03 0.  1.
         11   -1    0    0    0    0 -0.00000000000E+00 -0.00000000000E+00 -0.45593999997E+02  0.45594000000E+02  0.51100000000E-03 0. -1.
    9900012    2    1    2    0    0 -0.15886374133E+02 -0.30820141941E+02 -0.21234561362E+02  0.50528872751E+02  0.30000039215E+02 0.  0.
        -12    1    1    2    0    0  0.15886374133E+02  0.30820141941E+02  0.21234561362E+02  0.40659127249E+02  0.00000000000E+00 0.  1.
         11    1    3    3    0    0 -0.95985003856E+01 -0.95193744811E+01 -0.11669823811E+02  0.17858737027E+02  0.51100000000E-03 0. -1.
        -11    1    3    3    0    0  0.73685878843E+01 -0.28476213098E+01 -0.27373175221E+00  0.79044268525E+01  0.51100000000E-03 0.  1.
        -12    1    3    3    0    0 -0.13656461632E+02 -0.18453146150E+02 -0.92910057982E+01  0.24765708871E+02  0.00000000000E+00 0.  1.
</event>
<event>
 7    1  0.5019004E-011  0.5052884E+02  0.7816164E-02  0.1300439E+00
        -11   -1    0    0    0    0  0.00000000000E+00  0.00000000000E+00  0.45593999997E+02  0.45594000000E+02  0.51100000000E-03 0. -1.
         11   -1    0    0    0    0 -0.00000000000E+00 -0.00000000000E+00 -0.45593999997E+02  0.45594000000E+02  0.51100000000E-03 0.  1.
    9900012    2    1    2    0    0 -0.29326300636E+02 -0.96160109795E+01 -0.26470123170E+02  0.50528843630E+02  0.29999950696E+02 0.  0.
        -12    1    1    2    0    0  0.29326300636E+02  0.96160109795E+01  0.26470123170E+02  0.40659156370E+02  0.00000000000E+00 0.  1.
         11    1    3    3    0    0 -0.14507679181E+02 -0.58447974110E+01 -0.74770193316E+01  0.17336096168E+02  0.51100000000E-03 0. -1.
        -11    1    3    3    0    0 -0.83137736445E+01  0.75034408550E+01 -0.16496720271E+02  0.19938962783E+02  0.51100000000E-03 0.  1.
        -12    1    3    3    0    0 -0.65048478103E+01 -0.11274654424E+02 -0.24963835667E+01  0.13253784679E+02  0.00000000000E+00 0.  1.
</event>
<event>
 7    1  0.5019004E-011  0.5052888E+02  0.7816164E-02  0.1300439E+00
        -11   -1    0    0    0    0  0.00000000000E+00  0.00000000000E+00  0.45593999997E+02  0.45594000000E+02  0.51100000000E-03 0. -1.
         11   -1    0    0    0    0 -0.00000000000E+00 -0.00000000000E+00 -0.45593999997E+02  0.45594000000E+02  0.51100000000E-03 0.  1.
    9900012    2    1    2    0    0  0.15118871701E+01  0.39771831030E+02  0.83114328212E+01  0.50528877262E+02  0.30000052924E+02 0.  0.
        -12    1    1    2    0    0 -0.15118871701E+01 -0.39771831030E+02 -0.83114328212E+01  0.40659122738E+02  0.00000000000E+00 0.  1.
         11    1    3    3    0    0 -0.79427749211E+01  0.26072487859E+02  0.11174238601E+02  0.29457187666E+02  0.51100000000E-03 0. -1.
        -11    1    3    3    0    0  0.12387000102E+02  0.10612724891E+02 -0.77525899519E+00  0.16329994731E+02  0.51100000000E-03 0.  1.
        -12    1    3    3    0    0 -0.29323380107E+01  0.30866182799E+01 -0.20875467842E+01  0.47416948648E+01  0.00000000000E+00 0.  1.
</event>
<event>
 7    1  0.5019004E-011  0.5052888E+02  0.7816164E-02  0.1300439E+00
        -11   -1    0    0    0    0  0.00000000000E+00  0.00000000000E+00  0.45593999997E+02  0.45594000000E+02  0.51100000000E-03 0. -1.
         11   -1    0    0    0    0 -0.00000000000E+00 -0.00000000000E+00 -0.45593999997E+02  0.45594000000E+02  0.51100000000E-03 0.  1.
    9900012    2    1    2    0    0  0.18502205805E+02 -0.30702240543E+02  0.19188667877E+02  0.50528878404E+02  0.30000056398E+02 0.  0.
        -12    1    1    2    0    0 -0.18502205805E+02  0.30702240543E+02 -0.19188667877E+02  0.40659121596E+02  0.00000000000E+00 0.  1.
         11    1    3    3    0    0  0.12439559973E+02 -0.25676910223E+02  0.25745246133E+02  0.38429989196E+02  0.51100000000E-03 0. -1.
        -11    1    3    3    0    0 -0.61028495294E+00 -0.29364546831E+01 -0.98017547773E+00  0.31553063335E+01  0.51100000000E-03 0.  1.
         12    1    3    3    0    0  0.66729307851E+01 -0.20888756377E+01 -0.55764027785E+01  0.89435828749E+01  0.00000000000E+00 0. -1.
</event>
<event>
 7    1  0.5019004E-011  0.5052886E+02  0.7816164E-02  0.1300439E+00
        -11   -1    0    0    0    0  0.00000000000E+00  0.00000000000E+00  0.45593999997E+02  0.45594000000E+02  0.51100000000E-03 0. -1.
         11   -1    0    0    0    0 -0.00000000000E+00 -0.00000000000E+00 -0.45593999997E+02  0.45594000000E+02  0.51100000000E-03 0.  1.
    9900012    2    1    2    0    0  0.38129976459E+02  0.11907808773E+02 -0.75811954350E+01  0.50528861559E+02  0.30000005194E+02 0.  0.
        -12    1    1    2    0    0 -0.38129976459E+02 -0.11907808773E+02  0.75811954350E+01  0.40659138441E+02  0.00000000000E+00 0.  1.
         11    1    3    3    0    0  0.27400082008E+02  0.45700289195E+01 -0.20867077498E+01  0.27856848491E+02  0.51100000000E-03 0. -1.
        -11    1    3    3    0    0 -0.24363369062E+00 -0.33003615805E+01  0.35978182568E+01  0.48883576391E+01  0.51100000000E-03 0.  1.
        -12    1    3    3    0    0  0.10973528142E+02  0.10638141435E+02 -0.90923059420E+01  0.17783655429E+02  0.00000000000E+00 0.  1.
</event>
<event>
 7    1  0.5019004E-011  0.5052887E+02  0.7816164E-02  0.1300439E+00
        -11   -1    0    0    0    0  0.00000000000E+00  0.00000000000E+00  0.45593999997E+02  0.45594000000E+02  0.51100000000E-03 0.  1.
         11   -1    0    0    0    0 -0.00000000000E+00 -0.00000000000E+00 -0.45593999997E+02  0.45594000000E+02  0.51100000000E-03 0. -1.
    9900012    2    1    2    0    0  0.38283956518E+02 -0.13199376828E+02 -0.36442159266E+01  0.50528865909E+02  0.30000018418E+02 0.  0.
        -12    1    1    2    0    0 -0.38283956518E+02  0.13199376828E+02  0.36442159266E+01  0.40659134091E+02  0.00000000000E+00 0.  1.
         11    1    3    3    0    0  0.12859430359E+02 -0.18491304354E+02 -0.26941284544E+01  0.22683730166E+02  0.51100000000E-03 0. -1.
        -11    1    3    3    0    0  0.24277704804E+00  0.10987803251E+01  0.18481346438E+01  0.21637608049E+01  0.51100000000E-03 0.  1.
         12    1    3    3    0    0  0.25181749110E+02  0.41931472008E+01 -0.27982221160E+01  0.25681374938E+02  0.00000000000E+00 0. -1.
</event>
<event>
 7    1  0.5019004E-011  0.5052886E+02  0.7816164E-02  0.1300439E+00
        -11   -1    0    0    0    0  0.00000000000E+00  0.00000000000E+00  0.45593999997E+02  0.45594000000E+02  0.51100000000E-03 0.  1.
         11   -1    0    0    0    0 -0.00000000000E+00 -0.00000000000E+00 -0.45593999997E+02  0.45594000000E+02  0.51100000000E-03 0. -1.
    9900012    2    1    2    0    0  0.55924595906E+01  0.34820118895E+02 -0.20234856036E+02  0.50528859786E+02  0.29999999806E+02 0.  0.
        -12    1    1    2    0    0 -0.55924595906E+01 -0.34820118895E+02  0.20234856036E+02  0.40659140214E+02  0.00000000000E+00 0.  1.
         11    1    3    3    0    0 -0.30173516709E+01  0.40794472597E+01 -0.69686629860E+01  0.86202415931E+01  0.51100000000E-03 0. -1.
        -11    1    3    3    0    0  0.15547605727E+02  0.17614310405E+02 -0.26222392459E+01  0.23640391574E+02  0.51100000000E-03 0.  1.
        -12    1    3    3    0    0 -0.69377944652E+01  0.13126361231E+02 -0.10643953804E+02  0.18268226619E+02  0.00000000000E+00 0.  1.
</event>
<event>
 7    1  0.5019004E-011  0.5052886E+02  0.7816164E-02  0.1300439E+00
        -11   -1    0    0    0    0  0.00000000000E+00  0.00000000000E+00  0.45593999997E+02  0.45594000000E+02  0.51100000000E-03 0.  1.
         11   -1    0    0    0    0 -0.00000000000E+00 -0.00000000000E+00 -0.45593999997E+02  0.45594000000E+02  0.51100000000E-03 0. -1.
    9900012    2    1    2    0    0  0.26572020687E+02 -0.19234195997E+02 -0.24023722957E+02  0.50528857808E+02  0.29999993794E+02 0.  0.
        -12    1    1    2    0    0 -0.26572020687E+02  0.19234195997E+02  0.24023722957E+02  0.40659142192E+02  0.00000000000E+00 0.  1.
         11    1    3    3    0    0  0.21551025768E+02 -0.13461993671E+02 -0.13525520223E+02  0.28785615901E+02  0.51100000000E-03 0. -1.
        -11    1    3    3    0    0  0.12777652121E+01 -0.44466556503E+01  0.43637920455E+01  0.63598829932E+01  0.51100000000E-03 0.  1.
         12    1    3    3    0    0  0.37432297071E+01 -0.13255466755E+01 -0.14861994780E+02  0.15383358914E+02  0.00000000000E+00 0. -1.
</event>
<event>
 7    1  0.5019004E-011  0.5052885E+02  0.7816164E-02  0.1300439E+00
        -11   -1    0    0    0    0  0.00000000000E+00  0.00000000000E+00  0.45593999997E+02  0.45594000000E+02  0.51100000000E-03 0. -1.
         11   -1    0    0    0    0 -0.00000000000E+00 -0.00000000000E+00 -0.45593999997E+02  0.45594000000E+02  0.51100000000E-03 0.  1.
    9900012    2    1    2    0    0 -0.31960367099E+02  0.11005163435E+02  0.22596183571E+02  0.50528853436E+02  0.29999980504E+02 0.  0.
        -12    1    1    2    0    0  0.31960367099E+02 -0.11005163435E+02 -0.22596183571E+02  0.40659146564E+02  0.00000000000E+00 0.  1.
         11    1    3    3    0    0  0.30210209520E+01 -0.23808519138E+01  0.73256595344E+01  0.82740746493E+01  0.51100000000E-03 0. -1.
        -11    1    3    3    0    0 -0.59420127267E+01  0.15968478850E+01 -0.20005073043E+01  0.64698893459E+01  0.51100000000E-03 0.  1.
         12    1    3    3    0    0 -0.29039375324E+02  0.11789167464E+02  0.17271031341E+02  0.35784889441E+02  0.00000000000E+00 0. -1.
</event>
<event>
 7    1  0.5019004E-011  0.5052886E+02  0.7816164E-02  0.1300439E+00
        -11   -1    0    0    0    0  0.00000000000E+00  0.00000000000E+00  0.45593999997E+02  0.45594000000E+02  0.51100000000E-03 0.  1.
         11   -1    0    0    0    0 -0.00000000000E+00 -0.00000000000E+00 -0.45593999997E+02  0.45594000000E+02  0.51100000000E-03 0. -1.
    9900012    2    1    2    0    0  0.10384491215E+02  0.33692740192E+02 -0.20251600141E+02  0.50528859481E+02  0.29999998880E+02 0.  0.
        -12    1    1    2    0    0 -0.10384491215E+02 -0.33692740192E+02  0.20251600141E+02  0.40659140519E+02  0.00000000000E+00 0.  1.
         11    1    3    3    0    0  0.22464128472E+01  0.59321344467E+01 -0.16528013046E+02  0.17703440493E+02  0.51100000000E-03 0. -1.
        -11    1    3    3    0    0  0.55357696439E+01  0.27951308021E+02 -0.26815515186E+00  0.28495478116E+02  0.51100000000E-03 0.  1.
         12    1    3    3    0    0  0.26023087235E+01 -0.19070227487E+00 -0.34554319423E+01  0.43299408724E+01  0.00000000000E+00 0. -1.
</event>
<event>
 7    1  0.5019004E-011  0.5052886E+02  0.7816164E-02  0.1300439E+00
        -11   -1    0    0    0    0  0.00000000000E+00  0.00000000000E+00  0.45593999997E+02  0.45594000000E+02  0.51100000000E-03 0. -1.
         11   -1    0    0    0    0 -0.00000000000E+00 -0.00000000000E+00 -0.45593999997E+02  0.45594000000E+02  0.51100000000E-03 0.  1.
    9900012    2    1    2    0    0  0.28691101580E+02  0.23508273368E+02 -0.16653748896E+02  0.50528861065E+02  0.30000003693E+02 0.  0.
        -12    1    1    2    0    0 -0.28691101580E+02 -0.23508273368E+02  0.16653748896E+02  0.40659138935E+02  0.00000000000E+00 0.  1.
         11    1    3    3    0    0  0.24513742246E+02  0.19329483843E+02 -0.17001521978E+02  0.35547211626E+02  0.51100000000E-03 0. -1.
        -11    1    3    3    0    0  0.10041952065E+01  0.41404029993E+01  0.66660400937E+01  0.79112221434E+01  0.51100000000E-03 0.  1.
        -12    1    3    3    0    0  0.31731641280E+01  0.38386525207E-01 -0.63182670121E+01  0.70704272957E+01  0.00000000000E+00 0.  1.
</event>
<event>
 7    1  0.5019004E-011  0.5052886E+02  0.7816164E-02  0.1300439E+00
        -11   -1    0    0    0    0  0.00000000000E+00  0.00000000000E+00  0.45593999997E+02  0.45594000000E+02  0.51100000000E-03 0.  1.
         11   -1    0    0    0    0 -0.00000000000E+00 -0.00000000000E+00 -0.45593999997E+02  0.45594000000E+02  0.51100000000E-03 0. -1.
    9900012    2    1    2    0    0 -0.53977281745E+01  0.18393113101E+02 -0.35856985553E+02  0.50528862135E+02  0.30000006944E+02 0.  0.
        -12    1    1    2    0    0  0.53977281745E+01 -0.18393113101E+02  0.35856985553E+02  0.40659137865E+02  0.00000000000E+00 0.  1.
         11    1    3    3    0    0 -0.68051385873E+01 -0.91131485905E+00 -0.10950838732E+02  0.12925218573E+02  0.51100000000E-03 0.  1.
        -11    1    3    3    0    0  0.10908192807E+01  0.85509031175E+01  0.18052186986E+01  0.88071928354E+01  0.51100000000E-03 0. -1.
         12    1    3    3    0    0  0.31659113213E+00  0.10753524843E+02 -0.26711365520E+02  0.28796450726E+02  0.00000000000E+00 0. -1.
</event>
<event>
 7    1  0.5019004E-011  0.5052886E+02  0.7816164E-02  0.1300439E+00
        -11   -1    0    0    0    0  0.00000000000E+00  0.00000000000E+00  0.45593999997E+02  0.45594000000E+02  0.51100000000E-03 0.  1.
         11   -1    0    0    0    0 -0.00000000000E+00 -0.00000000000E+00 -0.45593999997E+02  0.45594000000E+02  0.51100000000E-03 0. -1.
    9900012    2    1    2    0    0 -0.14000057966E+02 -0.72908509011E+01 -0.37470091335E+02  0.50528857430E+02  0.29999992643E+02 0.  0.
        -12    1    1    2    0    0  0.14000057966E+02  0.72908509011E+01  0.37470091335E+02  0.40659142570E+02  0.00000000000E+00 0.  1.
         11    1    3    3    0    0 -0.16440654428E+02 -0.78273106873E+01 -0.31834767591E+02  0.36674437125E+02  0.51100000000E-03 0. -1.
        -11    1    3    3    0    0  0.34174791837E+01 -0.12892068492E+01 -0.91069929513E+01  0.98121628170E+01  0.51100000000E-03 0.  1.
         12    1    3    3    0    0 -0.97688272145E+00  0.18256666354E+01  0.34716692070E+01  0.40422574879E+01  0.00000000000E+00 0. -1.
</event>
<event>
 7    1  0.5019004E-011  0.5052886E+02  0.7816164E-02  0.1300439E+00
        -11   -1    0    0    0    0  0.00000000000E+00  0.00000000000E+00  0.45593999997E+02  0.45594000000E+02  0.51100000000E-03 0. -1.
         11   -1    0    0    0    0 -0.00000000000E+00 -0.00000000000E+00 -0.45593999997E+02  0.45594000000E+02  0.51100000000E-03 0.  1.
    9900012    2    1    2    0    0  0.14612965268E+02 -0.15026781339E+02  0.34839961222E+02  0.50528858232E+02  0.29999995083E+02 0.  0.
        -12    1    1    2    0    0 -0.14612965268E+02  0.15026781339E+02 -0.34839961222E+02  0.40659141768E+02  0.00000000000E+00 0.  1.
         11    1    3    3    0    0 -0.60734382028E+01  0.16803381557E+01  0.11372675535E+02  0.13001843601E+02  0.51100000000E-03 0.  1.
        -11    1    3    3    0    0  0.16330335191E+02 -0.16636228493E+02  0.23594619128E+02  0.33168509132E+02  0.51100000000E-03 0. -1.
         12    1    3    3    0    0  0.43560682795E+01 -0.70891001017E-01 -0.12733344180E+00  0.43585055002E+01  0.00000000000E+00 0. -1.
</event>
<event>
 7    1  0.5019004E-011  0.5052886E+02  0.7816164E-02  0.1300439E+00
        -11   -1    0    0    0    0  0.00000000000E+00  0.00000000000E+00  0.45593999997E+02  0.45594000000E+02  0.51100000000E-03 0.  1.
         11   -1    0    0    0    0 -0.00000000000E+00 -0.00000000000E+00 -0.45593999997E+02  0.45594000000E+02  0.51100000000E-03 0. -1.
    9900012    2    1    2    0    0 -0.29779044666E+02 -0.15005692872E+02 -0.23263774795E+02  0.50528861575E+02  0.30000005243E+02 0.  0.
        -12    1    1    2    0    0  0.29779044666E+02  0.15005692872E+02  0.23263774795E+02  0.40659138425E+02  0.00000000000E+00 0.  1.
         11    1    3    3    0    0  0.10360174191E+01 -0.66798563774E+01 -0.31185900547E+01  0.74444219054E+01  0.51100000000E-03 0. -1.
        -11    1    3    3    0    0 -0.23007839782E+02  0.14679101459E+01 -0.20058887894E+02  0.30559359211E+02  0.51100000000E-03 0.  1.
        -12    1    3    3    0    0 -0.78072223032E+01 -0.97937466401E+01 -0.86296846379E-01  0.12525080458E+02  0.00000000000E+00 0.  1.
</event>
<event>
 7    1  0.5019004E-011  0.5052885E+02  0.7816164E-02  0.1300439E+00
        -11   -1    0    0    0    0  0.00000000000E+00  0.00000000000E+00  0.45593999997E+02  0.45594000000E+02  0.51100000000E-03 0.  1.
         11   -1    0    0    0    0 -0.00000000000E+00 -0.00000000000E+00 -0.45593999997E+02  0.45594000000E+02  0.51100000000E-03 0. -1.
    9900012    2    1    2    0    0  0.35085022915E+02  0.18206054262E+02 -0.95261471896E+01  0.50528846971E+02  0.29999960854E+02 0.  0.
        -12    1    1    2    0    0 -0.35085022915E+02 -0.18206054262E+02  0.95261471896E+01  0.40659153029E+02  0.00000000000E+00 0.  1.
         11    1    3    3    0    0  0.19402050967E+02  0.16379549526E+01  0.65925299272E+01  0.20556846287E+02  0.51100000000E-03 0. -1.
        -11    1    3    3    0    0  0.82236742156E+00  0.63016218400E+01 -0.78700873155E+01  0.10115582070E+02  0.51100000000E-03 0.  1.
         12    1    3    3    0    0  0.14860604526E+02  0.10266477469E+02 -0.82485898014E+01  0.19856418615E+02  0.00000000000E+00 0. -1.
</event>
<event>
 7    1  0.5019004E-011  0.5052886E+02  0.7816164E-02  0.1300439E+00
        -11   -1    0    0    0    0  0.00000000000E+00  0.00000000000E+00  0.45593999997E+02  0.45594000000E+02  0.51100000000E-03 0.  1.
         11   -1    0    0    0    0 -0.00000000000E+00 -0.00000000000E+00 -0.45593999997E+02  0.45594000000E+02  0.51100000000E-03 0. -1.
    9900012    2    1    2    0    0 -0.33202988277E+02  0.18461132993E+02 -0.14488404144E+02  0.50528859373E+02  0.29999998550E+02 0.  0.
        -12    1    1    2    0    0  0.33202988277E+02 -0.18461132993E+02  0.14488404144E+02  0.40659140627E+02  0.00000000000E+00 0.  1.
         11    1    3    3    0    0 -0.34105863365E+02  0.57943431073E+01 -0.82056495669E+01  0.35554423255E+02  0.51100000000E-03 0. -1.
        -11    1    3    3    0    0  0.11050071599E-01  0.98695999174E+01 -0.24913511586E+01  0.10179192281E+02  0.51100000000E-03 0.  1.
         12    1    3    3    0    0  0.89182501658E+00  0.27971899681E+01 -0.37914034187E+01  0.47952438375E+01  0.00000000000E+00 0. -1.
</event>
<event>
 7    1  0.5019004E-011  0.5052886E+02  0.7816164E-02  0.1300439E+00
        -11   -1    0    0    0    0  0.00000000000E+00  0.00000000000E+00  0.45593999997E+02  0.45594000000E+02  0.51100000000E-03 0.  1.
         11   -1    0    0    0    0 -0.00000000000E+00 -0.00000000000E+00 -0.45593999997E+02  0.45594000000E+02  0.51100000000E-03 0. -1.
    9900012    2    1    2    0    0  0.32491346996E+02  0.12633310287E+02 -0.20925524707E+02  0.50528859051E+02  0.29999997572E+02 0.  0.
        -12    1    1    2    0    0 -0.32491346996E+02 -0.12633310287E+02  0.20925524707E+02  0.40659140949E+02  0.00000000000E+00 0.  1.
         11    1    3    3    0    0  0.14147370131E+02 -0.61048764788E+01 -0.64419802609E+01  0.16700799633E+02  0.51100000000E-03 0.  1.
        -11    1    3    3    0    0  0.12375709975E+02  0.20133621257E+02 -0.14446386018E+02  0.27698717868E+02  0.51100000000E-03 0. -1.
         12    1    3    3    0    0  0.59682668906E+01 -0.13954344907E+01 -0.37158428234E-01  0.61293415506E+01  0.00000000000E+00 0. -1.
</event>
<event>
 7    1  0.5019004E-011  0.5052887E+02  0.7816164E-02  0.1300439E+00
        -11   -1    0    0    0    0  0.00000000000E+00  0.00000000000E+00  0.45593999997E+02  0.45594000000E+02  0.51100000000E-03 0. -1.
         11   -1    0    0    0    0 -0.00000000000E+00 -0.00000000000E+00 -0.45593999997E+02  0.45594000000E+02  0.51100000000E-03 0.  1.
    9900012    2    1    2    0    0 -0.86770894565E+01 -0.39385679697E+02 -0.51614777116E+01  0.50528874347E+02  0.30000044067E+02 0.  0.
        -12    1    1    2    0    0  0.86770894565E+01  0.39385679697E+02  0.51614777116E+01  0.40659125653E+02  0.00000000000E+00 0.  1.
         11    1    3    3    0    0 -0.11663491527E+02 -0.31910026490E+01 -0.90408721228E+00  0.12125877554E+02  0.51100000000E-03 0. -1.
        -11    1    3    3    0    0  0.14704633563E+01 -0.29575686806E+02 -0.79672326850E+01  0.30665294870E+02  0.51100000000E-03 0.  1.
        -12    1    3    3    0    0  0.15159387145E+01 -0.66189902426E+01  0.37098421857E+01  0.77377019237E+01  0.00000000000E+00 0.  1.
</event>
<event>
 7    1  0.5019004E-011  0.5052886E+02  0.7816164E-02  0.1300439E+00
        -11   -1    0    0    0    0  0.00000000000E+00  0.00000000000E+00  0.45593999997E+02  0.45594000000E+02  0.51100000000E-03 0.  1.
         11   -1    0    0    0    0 -0.00000000000E+00 -0.00000000000E+00 -0.45593999997E+02  0.45594000000E+02  0.51100000000E-03 0. -1.
    9900012    2    1    2    0    0  0.29284602525E+02 -0.46958243245E+01 -0.27812356291E+02  0.50528857441E+02  0.29999992679E+02 0.  0.
        -12    1    1    2    0    0 -0.29284602525E+02  0.46958243245E+01  0.27812356291E+02  0.40659142559E+02  0.00000000000E+00 0.  1.
         11    1    3    3    0    0  0.19777331875E+02  0.79287355489E+01 -0.14539857030E+02  0.25795642000E+02  0.51100000000E-03 0. -1.
        -11    1    3    3    0    0  0.12875562871E+02 -0.11512302155E+02 -0.10335785837E+02  0.20128131788E+02  0.51100000000E-03 0.  1.
         12    1    3    3    0    0 -0.33682922204E+01 -0.11122577181E+01 -0.29367134243E+01  0.46050836528E+01  0.00000000000E+00 0. -1.
</event>
<event>
 7    1  0.5019004E-011  0.5052885E+02  0.7816164E-02  0.1300439E+00
        -11   -1    0    0    0    0  0.00000000000E+00  0.00000000000E+00  0.45593999997E+02  0.45594000000E+02  0.51100000000E-03 0. -1.
         11   -1    0    0    0    0 -0.00000000000E+00 -0.00000000000E+00 -0.45593999997E+02  0.45594000000E+02  0.51100000000E-03 0.  1.
    9900012    2    1    2    0    0 -0.20392643772E+02 -0.30318368409E+02  0.17835441682E+02  0.50528851423E+02  0.29999974385E+02 0.  0.
        -12    1    1    2    0    0  0.20392643772E+02  0.30318368409E+02 -0.17835441682E+02  0.40659148577E+02  0.00000000000E+00 0.  1.
         11    1    3    3    0    0 -0.20013736153E+02 -0.35266665081E+02  0.18419053095E+02  0.44537049946E+02  0.51100000000E-03 0. -1.
        -11    1    3    3    0    0 -0.34976994793E+00  0.37439708373E+01  0.11033990940E+01  0.39188195249E+01  0.51100000000E-03 0.  1.
         12    1    3    3    0    0 -0.29137671715E-01  0.12043258347E+01 -0.16870105075E+01  0.20729819518E+01  0.00000000000E+00 0. -1.
</event>
<event>
 7    1  0.5019004E-011  0.5052886E+02  0.7816164E-02  0.1300439E+00
        -11   -1    0    0    0    0  0.00000000000E+00  0.00000000000E+00  0.45593999997E+02  0.45594000000E+02  0.51100000000E-03 0. -1.
         11   -1    0    0    0    0 -0.00000000000E+00 -0.00000000000E+00 -0.45593999997E+02  0.45594000000E+02  0.51100000000E-03 0.  1.
    9900012    2    1    2    0    0  0.36888721597E+02  0.12139056732E+02 -0.12042893648E+02  0.50528858754E+02  0.29999996670E+02 0.  0.
        -12    1    1    2    0    0 -0.36888721597E+02 -0.12139056732E+02  0.12042893648E+02  0.40659141246E+02  0.00000000000E+00 0.  1.
         11    1    3    3    0    0  0.26791866752E+02  0.29413640983E+01 -0.16970737290E+01  0.27006217920E+02  0.51100000000E-03 0. -1.
        -11    1    3    3    0    0 -0.10394699486E+01 -0.12018419027E+01 -0.79392463003E+01  0.80967001804E+01  0.51100000000E-03 0.  1.
        -12    1    3    3    0    0  0.11136324793E+02  0.10399534537E+02 -0.24065736191E+01  0.15425940654E+02  0.00000000000E+00 0.  1.
</event>
<event>
 7    1  0.5019004E-011  0.5052886E+02  0.7816164E-02  0.1300439E+00
        -11   -1    0    0    0    0  0.00000000000E+00  0.00000000000E+00  0.45593999997E+02  0.45594000000E+02  0.51100000000E-03 0. -1.
         11   -1    0    0    0    0 -0.00000000000E+00 -0.00000000000E+00 -0.45593999997E+02  0.45594000000E+02  0.51100000000E-03 0.  1.
    9900012    2    1    2    0    0  0.33298687375E+02 -0.20554286226E+02  0.11040129257E+02  0.50528859365E+02  0.29999998526E+02 0.  0.
        -12    1    1    2    0    0 -0.33298687375E+02  0.20554286226E+02 -0.11040129257E+02  0.40659140635E+02  0.00000000000E+00 0.  1.
         11    1    3    3    0    0  0.54870586343E+01 -0.15638263844E+02 -0.14254619397E+01  0.16634153135E+02  0.51100000000E-03 0. -1.
        -11    1    3    3    0    0  0.12481666091E+02  0.70119450062E+00  0.12342411672E+02  0.17567549297E+02  0.51100000000E-03 0.  1.
        -12    1    3    3    0    0  0.15329962649E+02 -0.56172168830E+01  0.12317952444E+00  0.16327156934E+02  0.00000000000E+00 0.  1.
</event>
<event>
 7    1  0.5019004E-011  0.5052886E+02  0.7816164E-02  0.1300439E+00
        -11   -1    0    0    0    0  0.00000000000E+00  0.00000000000E+00  0.45593999997E+02  0.45594000000E+02  0.51100000000E-03 0. -1.
         11   -1    0    0    0    0 -0.00000000000E+00 -0.00000000000E+00 -0.45593999997E+02  0.45594000000E+02  0.51100000000E-03 0.  1.
    9900012    2    1    2    0    0 -0.33763572339E+02  0.11388139777E+02 -0.19583088123E+02  0.50528857301E+02  0.29999992251E+02 0.  0.
        -12    1    1    2    0    0  0.33763572339E+02 -0.11388139777E+02  0.19583088123E+02  0.40659142699E+02  0.00000000000E+00 0.  1.
         11    1    3    3    0    0  0.21427281183E+01  0.48750088939E+01  0.33026933143E+01  0.62661614162E+01  0.51100000000E-03 0. -1.
        -11    1    3    3    0    0 -0.24557985596E+02  0.77329339088E+01 -0.19681880488E+02  0.32407859281E+02  0.51100000000E-03 0.  1.
         12    1    3    3    0    0 -0.11348314860E+02 -0.12198030261E+01 -0.32039009492E+01  0.11854836603E+02  0.00000000000E+00 0. -1.
</event>
<event>
 7    1  0.5019004E-011  0.5052885E+02  0.7816164E-02  0.1300439E+00
        -11   -1    0    0    0    0  0.00000000000E+00  0.00000000000E+00  0.45593999997E+02  0.45594000000E+02  0.51100000000E-03 0. -1.
         11   -1    0    0    0    0 -0.00000000000E+00 -0.00000000000E+00 -0.45593999997E+02  0.45594000000E+02  0.51100000000E-03 0.  1.
    9900012    2    1    2    0    0  0.49273253902E+00  0.38251757774E+02  0.13774123894E+02  0.50528852847E+02  0.29999978715E+02 0.  0.
        -12    1    1    2    0    0 -0.49273253902E+00 -0.38251757774E+02 -0.13774123894E+02  0.40659147153E+02  0.00000000000E+00 0.  1.
         11    1    3    3    0    0 -0.89640872344E+01  0.75541746271E+01  0.13622333525E+02  0.17971877619E+02  0.51100000000E-03 0. -1.
        -11    1    3    3    0    0  0.61314589771E+01  0.26482619654E+02  0.33146644096E+00  0.27185176166E+02  0.51100000000E-03 0.  1.
         12    1    3    3    0    0  0.33253607963E+01  0.42149634931E+01 -0.17967607230E+00  0.53717990622E+01  0.00000000000E+00 0. -1.
</event>
<event>
 7    1  0.5019004E-011  0.5052886E+02  0.7816164E-02  0.1300439E+00
        -11   -1    0    0    0    0  0.00000000000E+00  0.00000000000E+00  0.45593999997E+02  0.45594000000E+02  0.51100000000E-03 0.  1.
         11   -1    0    0    0    0 -0.00000000000E+00 -0.00000000000E+00 -0.45593999997E+02  0.45594000000E+02  0.51100000000E-03 0. -1.
    9900012    2    1    2    0    0  0.18348490182E+02 -0.10588881765E+02 -0.34704091677E+02  0.50528862182E+02  0.30000007087E+02 0.  0.
        -12    1    1    2    0    0 -0.18348490182E+02  0.10588881765E+02  0.34704091677E+02  0.40659137818E+02  0.00000000000E+00 0.  1.
         11    1    3    3    0    0  0.29794208556E+01 -0.43012015961E+01 -0.68868870872E+01  0.86490749689E+01  0.51100000000E-03 0. -1.
        -11    1    3    3    0    0  0.46366202896E+01 -0.13137886944E+02 -0.25327346784E+02  0.28906345608E+02  0.51100000000E-03 0.  1.
        -12    1    3    3    0    0  0.10732449037E+02  0.68502067742E+01 -0.24898578066E+01  0.12973441605E+02  0.00000000000E+00 0.  1.
</event>
<event>
 7    1  0.5019004E-011  0.5052885E+02  0.7816164E-02  0.1300439E+00
        -11   -1    0    0    0    0  0.00000000000E+00  0.00000000000E+00  0.45593999997E+02  0.45594000000E+02  0.51100000000E-03 0.  1.
         11   -1    0    0    0    0 -0.00000000000E+00 -0.00000000000E+00 -0.45593999997E+02  0.45594000000E+02  0.51100000000E-03 0. -1.
    9900012    2    1    2    0    0  0.21270724237E+02 -0.17905988983E+02 -0.29666447601E+02  0.50528852637E+02  0.29999978076E+02 0.  0.
        -12    1    1    2    0    0 -0.21270724237E+02  0.17905988983E+02  0.29666447601E+02  0.40659147363E+02  0.00000000000E+00 0.  1.
         11    1    3    3    0    0  0.65016200490E+01 -0.35785173512E+00 -0.14741366918E+02  0.16115428011E+02  0.51100000000E-03 0. -1.
        -11    1    3    3    0    0  0.18461291810E+02 -0.15584450116E+02 -0.65178172203E+01  0.25023515387E+02  0.51100000000E-03 0.  1.
        -12    1    3    3    0    0 -0.36921876218E+01 -0.19636871310E+01 -0.84072634629E+01  0.93899092390E+01  0.00000000000E+00 0.  1.
</event>
<event>
 7    1  0.5019004E-011  0.5052885E+02  0.7816164E-02  0.1300439E+00
        -11   -1    0    0    0    0  0.00000000000E+00  0.00000000000E+00  0.45593999997E+02  0.45594000000E+02  0.51100000000E-03 0. -1.
         11   -1    0    0    0    0 -0.00000000000E+00 -0.00000000000E+00 -0.45593999997E+02  0.45594000000E+02  0.51100000000E-03 0.  1.
    9900012    2    1    2    0    0 -0.30144960815E+02  0.77581126034E+01  0.26158360748E+02  0.50528845917E+02  0.29999957649E+02 0.  0.
        -12    1    1    2    0    0  0.30144960815E+02 -0.77581126034E+01 -0.26158360748E+02  0.40659154083E+02  0.00000000000E+00 0.  1.
         11    1    3    3    0    0 -0.19180194942E+02 -0.58006804580E+00  0.28336344680E+02  0.34222284947E+02  0.51100000000E-03 0. -1.
        -11    1    3    3    0    0  0.10058916031E+01  0.27709435663E+01 -0.62732873997E+00  0.30138825083E+01  0.51100000000E-03 0.  1.
         12    1    3    3    0    0 -0.11970657476E+02  0.55672370829E+01 -0.15506551918E+01  0.13292678461E+02  0.00000000000E+00 0. -1.
</event>
<event>
 7    1  0.5019004E-011  0.5052883E+02  0.7816164E-02  0.1300439E+00
        -11   -1    0    0    0    0  0.00000000000E+00  0.00000000000E+00  0.45593999997E+02  0.45594000000E+02  0.51100000000E-03 0.  1.
         11   -1    0    0    0    0 -0.00000000000E+00 -0.00000000000E+00 -0.45593999997E+02  0.45594000000E+02  0.51100000000E-03 0. -1.
    9900012    2    1    2    0    0 -0.20045935330E+02 -0.21024648685E+02 -0.28448073583E+02  0.50528828019E+02  0.29999903247E+02 0.  0.
        -12    1    1    2    0    0  0.20045935330E+02  0.21024648685E+02  0.28448073583E+02  0.40659171981E+02  0.00000000000E+00 0.  1.
         11    1    3    3    0    0 -0.22840501788E+02 -0.73935090704E+01 -0.18758759456E+02  0.30467089702E+02  0.51100000000E-03 0. -1.
        -11    1    3    3    0    0  0.15529502855E+00 -0.10179697066E+02 -0.11496107953E+02  0.15356133864E+02  0.51100000000E-03 0.  1.
         12    1    3    3    0    0  0.26392714295E+01 -0.34514425484E+01  0.18067938264E+01  0.47056044536E+01  0.00000000000E+00 0. -1.
</event>
<event>
 7    1  0.5019004E-011  0.5052887E+02  0.7816164E-02  0.1300439E+00
        -11   -1    0    0    0    0  0.00000000000E+00  0.00000000000E+00  0.45593999997E+02  0.45594000000E+02  0.51100000000E-03 0. -1.
         11   -1    0    0    0    0 -0.00000000000E+00 -0.00000000000E+00 -0.45593999997E+02  0.45594000000E+02  0.51100000000E-03 0.  1.
    9900012    2    1    2    0    0 -0.15535247578E+02 -0.22548349813E+02  0.30056496752E+02  0.50528868263E+02  0.30000025573E+02 0.  0.
        -12    1    1    2    0    0  0.15535247578E+02  0.22548349813E+02 -0.30056496752E+02  0.40659131737E+02  0.00000000000E+00 0.  1.
         11    1    3    3    0    0 -0.59258203721E+01 -0.17605479515E+02  0.14323862888E+02  0.23457222861E+02  0.51100000000E-03 0. -1.
        -11    1    3    3    0    0 -0.10048721749E+02  0.48387973569E+01  0.41386368191E+01  0.11896179371E+02  0.51100000000E-03 0.  1.
        -12    1    3    3    0    0  0.43929454238E+00 -0.97816676543E+01  0.11593997045E+02  0.15175466031E+02  0.00000000000E+00 0.  1.
</event>
<event>
 7    1  0.5019004E-011  0.5052886E+02  0.7816164E-02  0.1300439E+00
        -11   -1    0    0    0    0  0.00000000000E+00  0.00000000000E+00  0.45593999997E+02  0.45594000000E+02  0.51100000000E-03 0.  1.
         11   -1    0    0    0    0 -0.00000000000E+00 -0.00000000000E+00 -0.45593999997E+02  0.45594000000E+02  0.51100000000E-03 0. -1.
    9900012    2    1    2    0    0 -0.24401772265E+02  0.54842314031E+01 -0.32056864912E+02  0.50528857464E+02  0.29999992749E+02 0.  0.
        -12    1    1    2    0    0  0.24401772265E+02 -0.54842314031E+01  0.32056864912E+02  0.40659142536E+02  0.00000000000E+00 0.  1.
         11    1    3    3    0    0 -0.66959480952E+01  0.14367002956E+02 -0.88220651946E+01  0.18140433551E+02  0.51100000000E-03 0. -1.
        -11    1    3    3    0    0 -0.10980591917E+02 -0.80007559856E+01 -0.21422807746E+02  0.25367739102E+02  0.51100000000E-03 0.  1.
         12    1    3    3    0    0 -0.67252322530E+01 -0.88201556785E+00 -0.18119919711E+01  0.70206848115E+01  0.00000000000E+00 0. -1.
</event>
<event>
 7    1  0.5019004E-011  0.5052886E+02  0.7816164E-02  0.1300439E+00
        -11   -1    0    0    0    0  0.00000000000E+00  0.00000000000E+00  0.45593999997E+02  0.45594000000E+02  0.51100000000E-03 0.  1.
         11   -1    0    0    0    0 -0.00000000000E+00 -0.00000000000E+00 -0.45593999997E+02  0.45594000000E+02  0.51100000000E-03 0. -1.
    9900012    2    1    2    0    0 -0.14272404437E+02  0.37625352803E+02 -0.58135183193E+01  0.50528859610E+02  0.29999999271E+02 0.  0.
        -12    1    1    2    0    0  0.14272404437E+02 -0.37625352803E+02  0.58135183193E+01  0.40659140390E+02  0.00000000000E+00 0.  1.
         11    1    3    3    0    0 -0.14265501836E+02  0.23463948703E+02  0.74901900751E+01  0.28463386639E+02  0.51100000000E-03 0.  1.
        -11    1    3    3    0    0 -0.34162943278E+01  0.13608092442E+02 -0.11647077851E+02  0.18234737990E+02  0.51100000000E-03 0. -1.
         12    1    3    3    0    0  0.34093917263E+01  0.55331165864E+00 -0.16566305436E+01  0.38307349808E+01  0.00000000000E+00 0. -1.
</event>
<event>
 7    1  0.5019004E-011  0.5052887E+02  0.7816164E-02  0.1300439E+00
        -11   -1    0    0    0    0  0.00000000000E+00  0.00000000000E+00  0.45593999997E+02  0.45594000000E+02  0.51100000000E-03 0.  1.
         11   -1    0    0    0    0 -0.00000000000E+00 -0.00000000000E+00 -0.45593999997E+02  0.45594000000E+02  0.51100000000E-03 0. -1.
    9900012    2    1    2    0    0  0.19033744906E+02  0.78731334896E+01 -0.35055595539E+02  0.50528874890E+02  0.30000045716E+02 0.  0.
        -12    1    1    2    0    0 -0.19033744906E+02 -0.78731334896E+01  0.35055595539E+02  0.40659125110E+02  0.00000000000E+00 0.  1.
         11    1    3    3    0    0  0.13623867368E+02 -0.29143826296E+01 -0.18689535330E+02  0.23310987094E+02  0.51100000000E-03 0. -1.
        -11    1    3    3    0    0 -0.43424413133E+01  0.99944821049E+01 -0.12784413980E+02  0.16798443684E+02  0.51100000000E-03 0.  1.
        -12    1    3    3    0    0  0.97523188506E+01  0.79303401420E+00 -0.35816462293E+01  0.10419444113E+02  0.00000000000E+00 0.  1.
</event>
<event>
 7    1  0.5019004E-011  0.5052888E+02  0.7816164E-02  0.1300439E+00
        -11   -1    0    0    0    0  0.00000000000E+00  0.00000000000E+00  0.45593999997E+02  0.45594000000E+02  0.51100000000E-03 0.  1.
         11   -1    0    0    0    0 -0.00000000000E+00 -0.00000000000E+00 -0.45593999997E+02  0.45594000000E+02  0.51100000000E-03 0. -1.
    9900012    2    1    2    0    0 -0.20019618063E+02  0.25186763127E+02 -0.24859730143E+02  0.50528876461E+02  0.30000050490E+02 0.  0.
        -12    1    1    2    0    0  0.20019618063E+02 -0.25186763127E+02  0.24859730143E+02  0.40659123539E+02  0.00000000000E+00 0.  1.
         11    1    3    3    0    0 -0.22745851363E+02  0.16205230187E+02 -0.59225287961E+01  0.28549248453E+02  0.51100000000E-03 0.  1.
        -11    1    3    3    0    0  0.21404927599E+01  0.96380404737E+01 -0.18559620458E+02  0.21022203625E+02  0.51100000000E-03 0. -1.
        -12    1    3    3    0    0  0.58574053979E+00 -0.65650753385E+00 -0.37758088861E+00  0.95742438312E+00  0.00000000000E+00 0.  1.
</event>
<event>
 7    1  0.5019004E-011  0.5052886E+02  0.7816164E-02  0.1300439E+00
        -11   -1    0    0    0    0  0.00000000000E+00  0.00000000000E+00  0.45593999997E+02  0.45594000000E+02  0.51100000000E-03 0. -1.
         11   -1    0    0    0    0 -0.00000000000E+00 -0.00000000000E+00 -0.45593999997E+02  0.45594000000E+02  0.51100000000E-03 0.  1.
    9900012    2    1    2    0    0 -0.37151000067E+02 -0.92176295567E+01  0.13711460397E+02  0.50528860230E+02  0.30000001155E+02 0.  0.
        -12    1    1    2    0    0  0.37151000067E+02  0.92176295567E+01 -0.13711460397E+02  0.40659139770E+02  0.00000000000E+00 0.  1.
         11    1    3    3    0    0  0.90407055401E+00  0.94819649440E+00 -0.53015860139E+01  0.54610653432E+01  0.51100000000E-03 0. -1.
        -11    1    3    3    0    0 -0.12737640858E+02  0.70401041515E+00  0.95503609535E+01  0.15935887798E+02  0.51100000000E-03 0.  1.
         12    1    3    3    0    0 -0.25317429762E+02 -0.10869836466E+02  0.94626854577E+01  0.29131907089E+02  0.00000000000E+00 0. -1.
</event>
<event>
 7    1  0.5019004E-011  0.5052886E+02  0.7816164E-02  0.1300439E+00
        -11   -1    0    0    0    0  0.00000000000E+00  0.00000000000E+00  0.45593999997E+02  0.45594000000E+02  0.51100000000E-03 0. -1.
         11   -1    0    0    0    0 -0.00000000000E+00 -0.00000000000E+00 -0.45593999997E+02  0.45594000000E+02  0.51100000000E-03 0.  1.
    9900012    2    1    2    0    0  0.31866791586E+02 -0.15993924112E+02  0.19541433649E+02  0.50528860271E+02  0.30000001279E+02 0.  0.
        -12    1    1    2    0    0 -0.31866791586E+02  0.15993924112E+02 -0.19541433649E+02  0.40659139729E+02  0.00000000000E+00 0.  1.
         11    1    3    3    0    0  0.20742598237E+02 -0.14895167695E+02  0.59497448746E+01  0.26220619112E+02  0.51100000000E-03 0. -1.
        -11    1    3    3    0    0  0.15399225817E+01  0.23708808357E+00  0.14504889382E+02  0.14588330561E+02  0.51100000000E-03 0.  1.
        -12    1    3    3    0    0  0.95842707670E+01 -0.13358445004E+01 -0.91320060786E+00  0.97199105971E+01  0.00000000000E+00 0.  1.
</event>
<event>
 7    1  0.5019004E-011  0.5052886E+02  0.7816164E-02  0.1300439E+00
        -11   -1    0    0    0    0  0.00000000000E+00  0.00000000000E+00  0.45593999997E+02  0.45594000000E+02  0.51100000000E-03 0.  1.
         11   -1    0    0    0    0 -0.00000000000E+00 -0.00000000000E+00 -0.45593999997E+02  0.45594000000E+02  0.51100000000E-03 0. -1.
    9900012    2    1    2    0    0 -0.15313982237E+02 -0.26363630311E+02 -0.26899941599E+02  0.50528856955E+02  0.29999991199E+02 0.  0.
        -12    1    1    2    0    0  0.15313982237E+02  0.26363630311E+02  0.26899941599E+02  0.40659143045E+02  0.00000000000E+00 0.  1.
         11    1    3    3    0    0 -0.13195456922E+02 -0.74657838588E+01 -0.16916219417E+02  0.22715996382E+02  0.51100000000E-03 0. -1.
        -11    1    3    3    0    0  0.20529084851E+01 -0.22306468531E+01  0.44424632385E+01  0.53782616632E+01  0.51100000000E-03 0.  1.
        -12    1    3    3    0    0 -0.41714338009E+01 -0.16667199600E+02 -0.14426185421E+02  0.22434598910E+02  0.00000000000E+00 0.  1.
</event>
<event>
 7    1  0.5019004E-011  0.5052886E+02  0.7816164E-02  0.1300439E+00
        -11   -1    0    0    0    0  0.00000000000E+00  0.00000000000E+00  0.45593999997E+02  0.45594000000E+02  0.51100000000E-03 0.  1.
         11   -1    0    0    0    0 -0.00000000000E+00 -0.00000000000E+00 -0.45593999997E+02  0.45594000000E+02  0.51100000000E-03 0. -1.
    9900012    2    1    2    0    0  0.35915891469E+02 -0.19806872049E+00 -0.19057161806E+02  0.50528857026E+02  0.29999991417E+02 0.  0.
        -12    1    1    2    0    0 -0.35915891469E+02  0.19806872049E+00  0.19057161806E+02  0.40659142974E+02  0.00000000000E+00 0.  1.
         11    1    3    3    0    0  0.27535468085E+02 -0.28462390281E+01 -0.14474618607E+02  0.31238080340E+02  0.51100000000E-03 0. -1.
        -11    1    3    3    0    0  0.26742192472E+01  0.22763975617E+00  0.62546719093E+01  0.68061875815E+01  0.51100000000E-03 0.  1.
        -12    1    3    3    0    0  0.57062041370E+01  0.24205305514E+01 -0.10837215108E+02  0.12484589104E+02  0.00000000000E+00 0.  1.
</event>
<event>
 7    1  0.5019004E-011  0.5052888E+02  0.7816164E-02  0.1300439E+00
        -11   -1    0    0    0    0  0.00000000000E+00  0.00000000000E+00  0.45593999997E+02  0.45594000000E+02  0.51100000000E-03 0.  1.
         11   -1    0    0    0    0 -0.00000000000E+00 -0.00000000000E+00 -0.45593999997E+02  0.45594000000E+02  0.51100000000E-03 0. -1.
    9900012    2    1    2    0    0 -0.24008352572E+02 -0.10710530628E+01 -0.32796585508E+02  0.50528878405E+02  0.30000056398E+02 0.  0.
        -12    1    1    2    0    0  0.24008352572E+02  0.10710530628E+01  0.32796585508E+02  0.40659121595E+02  0.00000000000E+00 0.  1.
         11    1    3    3    0    0 -0.43622050520E+01  0.93818779046E+01 -0.27769937971E+01  0.10712616895E+02  0.51100000000E-03 0. -1.
        -11    1    3    3    0    0 -0.14545142001E+02 -0.89363454198E+01 -0.11589841122E+02  0.20633561079E+02  0.51100000000E-03 0.  1.
         12    1    3    3    0    0 -0.51010055194E+01 -0.15165855477E+01 -0.18429750589E+02  0.19182700431E+02  0.00000000000E+00 0. -1.
</event>
<event>
 7    1  0.5019004E-011  0.5052888E+02  0.7816164E-02  0.1300439E+00
        -11   -1    0    0    0    0  0.00000000000E+00  0.00000000000E+00  0.45593999997E+02  0.45594000000E+02  0.51100000000E-03 0.  1.
         11   -1    0    0    0    0 -0.00000000000E+00 -0.00000000000E+00 -0.45593999997E+02  0.45594000000E+02  0.51100000000E-03 0. -1.
    9900012    2    1    2    0    0  0.28442852338E+02  0.19152548472E+02 -0.21848302860E+02  0.50528876793E+02  0.30000051500E+02 0.  0.
        -12    1    1    2    0    0 -0.28442852338E+02 -0.19152548472E+02  0.21848302860E+02  0.40659123207E+02  0.00000000000E+00 0.  1.
         11    1    3    3    0    0  0.20788720821E+02  0.12349720029E+02  0.94638009439E+00  0.24198804386E+02  0.51100000000E-03 0. -1.
        -11    1    3    3    0    0  0.69099590330E+01  0.80453119814E+01 -0.22468230425E+02  0.24845441381E+02  0.51100000000E-03 0.  1.
         12    1    3    3    0    0  0.74417248384E+00 -0.12424835383E+01 -0.32645252934E+00  0.14846310258E+01  0.00000000000E+00 0. -1.
</event>
<event>
 7    1  0.5019004E-011  0.5052886E+02  0.7816164E-02  0.1300439E+00
        -11   -1    0    0    0    0  0.00000000000E+00  0.00000000000E+00  0.45593999997E+02  0.45594000000E+02  0.51100000000E-03 0.  1.
         11   -1    0    0    0    0 -0.00000000000E+00 -0.00000000000E+00 -0.45593999997E+02  0.45594000000E+02  0.51100000000E-03 0. -1.
    9900012    2    1    2    0    0  0.11555946994E+02 -0.33435623925E+02 -0.20042075280E+02  0.50528860317E+02  0.30000001420E+02 0.  0.
        -12    1    1    2    0    0 -0.11555946994E+02  0.33435623925E+02  0.20042075280E+02  0.40659139683E+02  0.00000000000E+00 0.  1.
         11    1    3    3    0    0 -0.27878168302E+01 -0.23737356086E+02 -0.20276654514E+02  0.31342889388E+02  0.51100000000E-03 0. -1.
        -11    1    3    3    0    0  0.10676544824E+02 -0.91547618605E+01 -0.28658650966E+01  0.14353099217E+02  0.51100000000E-03 0.  1.
         12    1    3    3    0    0  0.36672190001E+01 -0.54350597856E+00  0.31004443303E+01  0.48328717124E+01  0.00000000000E+00 0. -1.
</event>
<event>
 7    1  0.5019004E-011  0.5052885E+02  0.7816164E-02  0.1300439E+00
        -11   -1    0    0    0    0  0.00000000000E+00  0.00000000000E+00  0.45593999997E+02  0.45594000000E+02  0.51100000000E-03 0. -1.
         11   -1    0    0    0    0 -0.00000000000E+00 -0.00000000000E+00 -0.45593999997E+02  0.45594000000E+02  0.51100000000E-03 0.  1.
    9900012    2    1    2    0    0 -0.51012287212E+01 -0.88179148712E+01  0.39362266943E+02  0.50528853230E+02  0.29999979879E+02 0.  0.
        -12    1    1    2    0    0  0.51012287212E+01  0.88179148712E+01 -0.39362266943E+02  0.40659146770E+02  0.00000000000E+00 0.  1.
         11    1    3    3    0    0  0.16274457636E+01 -0.96460064662E+01  0.17429331144E+02  0.19986885822E+02  0.51100000000E-03 0. -1.
        -11    1    3    3    0    0 -0.10859848487E+02  0.28568065893E+01  0.23194479706E+02  0.25769779630E+02  0.51100000000E-03 0.  1.
        -12    1    3    3    0    0  0.41311740027E+01 -0.20287149943E+01 -0.12615439072E+01  0.47721877790E+01  0.00000000000E+00 0.  1.
</event>
<event>
 7    1  0.5019004E-011  0.5052885E+02  0.7816164E-02  0.1300439E+00
        -11   -1    0    0    0    0  0.00000000000E+00  0.00000000000E+00  0.45593999997E+02  0.45594000000E+02  0.51100000000E-03 0.  1.
         11   -1    0    0    0    0 -0.00000000000E+00 -0.00000000000E+00 -0.45593999997E+02  0.45594000000E+02  0.51100000000E-03 0. -1.
    9900012    2    1    2    0    0 -0.62881564757E+01 -0.28028852731E+02 -0.28775138264E+02  0.50528854911E+02  0.29999984986E+02 0.  0.
        -12    1    1    2    0    0  0.62881564757E+01  0.28028852731E+02  0.28775138264E+02  0.40659145089E+02  0.00000000000E+00 0.  1.
         11    1    3    3    0    0  0.27061113226E+01 -0.21734520477E+02 -0.15548267052E+02  0.26860026571E+02  0.51100000000E-03 0. -1.
        -11    1    3    3    0    0 -0.37925038525E+01  0.48157936570E+01 -0.85928603511E+01  0.10555197928E+02  0.51100000000E-03 0.  1.
         12    1    3    3    0    0 -0.52017639458E+01 -0.11110125911E+02 -0.46340108614E+01  0.13113630412E+02  0.00000000000E+00 0. -1.
</event>
<event>
 7    1  0.5019004E-011  0.5052877E+02  0.7816164E-02  0.1300439E+00
        -11   -1    0    0    0    0  0.00000000000E+00  0.00000000000E+00  0.45593999997E+02  0.45594000000E+02  0.51100000000E-03 0. -1.
         11   -1    0    0    0    0 -0.00000000000E+00 -0.00000000000E+00 -0.45593999997E+02  0.45594000000E+02  0.51100000000E-03 0.  1.
    9900012    2    1    2    0    0 -0.16337187798E+02 -0.66454152719E+01  0.36634785860E+02  0.50528772459E+02  0.29999734365E+02 0.  0.
        -12    1    1    2    0    0  0.16337187798E+02  0.66454152719E+01 -0.36634785860E+02  0.40659227541E+02  0.00000000000E+00 0.  1.
         11    1    3    3    0    0 -0.70390617986E+01  0.18066081092E+01  0.23638589296E+02  0.24730449410E+02  0.51100000000E-03 0. -1.
        -11    1    3    3    0    0  0.20457768218E+01  0.30707383683E+01 -0.15937856529E+01  0.40193021658E+01  0.51100000000E-03 0.  1.
        -12    1    3    3    0    0 -0.11343902821E+02 -0.11522761749E+02  0.14589982217E+02  0.21779020883E+02  0.00000000000E+00 0.  1.
</event>
<event>
 7    1  0.5019004E-011  0.5052885E+02  0.7816164E-02  0.1300439E+00
        -11   -1    0    0    0    0  0.00000000000E+00  0.00000000000E+00  0.45593999997E+02  0.45594000000E+02  0.51100000000E-03 0.  1.
         11   -1    0    0    0    0 -0.00000000000E+00 -0.00000000000E+00 -0.45593999997E+02  0.45594000000E+02  0.51100000000E-03 0. -1.
    9900012    2    1    2    0    0  0.53077326947E+01 -0.29352916759E+02 -0.27629701661E+02  0.50528853889E+02  0.29999981881E+02 0.  0.
        -12    1    1    2    0    0 -0.53077326947E+01  0.29352916759E+02  0.27629701661E+02  0.40659146111E+02  0.00000000000E+00 0.  1.
         11    1    3    3    0    0 -0.24901833524E+00  0.31516617093E+01  0.95548277473E+00  0.33027154366E+01  0.51100000000E-03 0.  1.
        -11    1    3    3    0    0  0.43075880855E+01 -0.23717244085E+02 -0.90123694771E+01  0.25734913754E+02  0.51100000000E-03 0. -1.
         12    1    3    3    0    0  0.12491629444E+01 -0.87873343836E+01 -0.19572814958E+02  0.21491224698E+02  0.00000000000E+00 0. -1.
</event>
<event>
 7    1  0.5019004E-011  0.5052888E+02  0.7816164E-02  0.1300439E+00
        -11   -1    0    0    0    0  0.00000000000E+00  0.00000000000E+00  0.45593999997E+02  0.45594000000E+02  0.51100000000E-03 0.  1.
         11   -1    0    0    0    0 -0.00000000000E+00 -0.00000000000E+00 -0.45593999997E+02  0.45594000000E+02  0.51100000000E-03 0. -1.
    9900012    2    1    2    0    0  0.31479549234E+02 -0.17831291708E+02 -0.18553886004E+02  0.50528884542E+02  0.30000075054E+02 0.  0.
        -12    1    1    2    0    0 -0.31479549234E+02  0.17831291708E+02  0.18553886004E+02  0.40659115458E+02  0.00000000000E+00 0.  1.
         11    1    3    3    0    0 -0.24166784128E+01  0.13980829414E+01 -0.27882664990E+01  0.39458080025E+01  0.51100000000E-03 0. -1.
        -11    1    3    3    0    0  0.25395648695E+02 -0.88847936713E+01 -0.13942096464E+01  0.26941090401E+02  0.51100000000E-03 0.  1.
        -12    1    3    3    0    0  0.85005789524E+01 -0.10344580979E+02 -0.14371409858E+02  0.19641986138E+02  0.00000000000E+00 0.  1.
</event>
<event>
 7    1  0.5019004E-011  0.5052885E+02  0.7816164E-02  0.1300439E+00
        -11   -1    0    0    0    0  0.00000000000E+00  0.00000000000E+00  0.45593999997E+02  0.45594000000E+02  0.51100000000E-03 0. -1.
         11   -1    0    0    0    0 -0.00000000000E+00 -0.00000000000E+00 -0.45593999997E+02  0.45594000000E+02  0.51100000000E-03 0.  1.
    9900012    2    1    2    0    0  0.94454014402E+01  0.29378388647E+02  0.26473786389E+02  0.50528847357E+02  0.29999962027E+02 0.  0.
        -12    1    1    2    0    0 -0.94454014402E+01 -0.29378388647E+02 -0.26473786389E+02  0.40659152643E+02  0.00000000000E+00 0.  1.
         11    1    3    3    0    0 -0.48456084280E+01  0.83089377548E+01  0.49910555713E+01  0.10836466381E+02  0.51100000000E-03 0. -1.
        -11    1    3    3    0    0  0.13518255860E+02  0.19170278768E+01  0.54421840588E+01  0.14698149713E+02  0.51100000000E-03 0.  1.
        -12    1    3    3    0    0  0.77275400774E+00  0.19152423016E+02  0.16040546759E+02  0.24994231263E+02  0.00000000000E+00 0.  1.
</event>
<event>
 7    1  0.5019004E-011  0.5052886E+02  0.7816164E-02  0.1300439E+00
        -11   -1    0    0    0    0  0.00000000000E+00  0.00000000000E+00  0.45593999997E+02  0.45594000000E+02  0.51100000000E-03 0. -1.
         11   -1    0    0    0    0 -0.00000000000E+00 -0.00000000000E+00 -0.45593999997E+02  0.45594000000E+02  0.51100000000E-03 0.  1.
    9900012    2    1    2    0    0  0.27351593082E+01 -0.40516666792E+02 -0.20209192249E+01  0.50528862049E+02  0.30000006686E+02 0.  0.
        -12    1    1    2    0    0 -0.27351593082E+01  0.40516666792E+02  0.20209192249E+01  0.40659137951E+02  0.00000000000E+00 0.  1.
         11    1    3    3    0    0  0.80847844016E+01 -0.14383488837E+02 -0.11124284108E+01  0.16537411743E+02  0.51100000000E-03 0. -1.
        -11    1    3    3    0    0 -0.66629781028E+01  0.14878103253E+00 -0.35382228457E+01  0.75456235104E+01  0.51100000000E-03 0.  1.
        -12    1    3    3    0    0  0.13133530094E+01 -0.26281958988E+02  0.26297320316E+01  0.26445826796E+02  0.00000000000E+00 0.  1.
</event>
<event>
 7    1  0.5019004E-011  0.5052886E+02  0.7816164E-02  0.1300439E+00
        -11   -1    0    0    0    0  0.00000000000E+00  0.00000000000E+00  0.45593999997E+02  0.45594000000E+02  0.51100000000E-03 0. -1.
         11   -1    0    0    0    0 -0.00000000000E+00 -0.00000000000E+00 -0.45593999997E+02  0.45594000000E+02  0.51100000000E-03 0.  1.
    9900012    2    1    2    0    0 -0.35468366380E+02 -0.81995190389E+01  0.18108808265E+02  0.50528855113E+02  0.29999985602E+02 0.  0.
        -12    1    1    2    0    0  0.35468366380E+02  0.81995190389E+01 -0.18108808265E+02  0.40659144887E+02  0.00000000000E+00 0.  1.
         11    1    3    3    0    0 -0.16675647394E+02 -0.88861790421E+01  0.20569401902E+02  0.27931016609E+02  0.51100000000E-03 0. -1.
        -11    1    3    3    0    0 -0.43657430001E+01  0.52275615538E+01 -0.30479489339E+01  0.74617092349E+01  0.51100000000E-03 0.  1.
         12    1    3    3    0    0 -0.14426975986E+02 -0.45409015505E+01  0.58735529655E+00  0.15136129269E+02  0.00000000000E+00 0. -1.
</event>
<event>
 7    1  0.5019004E-011  0.5052886E+02  0.7816164E-02  0.1300439E+00
        -11   -1    0    0    0    0  0.00000000000E+00  0.00000000000E+00  0.45593999997E+02  0.45594000000E+02  0.51100000000E-03 0. -1.
         11   -1    0    0    0    0 -0.00000000000E+00 -0.00000000000E+00 -0.45593999997E+02  0.45594000000E+02  0.51100000000E-03 0.  1.
    9900012    2    1    2    0    0  0.14149399774E+02 -0.19123547519E+01  0.38069708081E+02  0.50528864643E+02  0.30000014568E+02 0.  0.
        -12    1    1    2    0    0 -0.14149399774E+02  0.19123547519E+01 -0.38069708081E+02  0.40659135357E+02  0.00000000000E+00 0.  1.
         11    1    3    3    0    0  0.16594327862E+02 -0.43934981069E+01  0.11113511194E+02  0.20449564155E+02  0.51100000000E-03 0.  1.
        -11    1    3    3    0    0 -0.27033180682E+01  0.66430815577E+01  0.23778473972E+02  0.24836551408E+02  0.51100000000E-03 0. -1.
         12    1    3    3    0    0  0.25838998013E+00 -0.41619382027E+01  0.31777229148E+01  0.52427490792E+01  0.00000000000E+00 0. -1.
</event>
<event>
 7    1  0.5019004E-011  0.5052886E+02  0.7816164E-02  0.1300439E+00
        -11   -1    0    0    0    0  0.00000000000E+00  0.00000000000E+00  0.45593999997E+02  0.45594000000E+02  0.51100000000E-03 0.  1.
         11   -1    0    0    0    0 -0.00000000000E+00 -0.00000000000E+00 -0.45593999997E+02  0.45594000000E+02  0.51100000000E-03 0. -1.
    9900012    2    1    2    0    0  0.34058308135E+02 -0.94035970821E+00 -0.22188130887E+02  0.50528858573E+02  0.29999996117E+02 0.  0.
        -12    1    1    2    0    0 -0.34058308135E+02  0.94035970821E+00  0.22188130887E+02  0.40659141427E+02  0.00000000000E+00 0.  1.
         11    1    3    3    0    0  0.15196552402E+02 -0.11366666471E+02 -0.97334016660E+01  0.21327808604E+02  0.51100000000E-03 0. -1.
        -11    1    3    3    0    0  0.25024675087E+01  0.79353732608E+01 -0.90740391487E+01  0.12311404435E+02  0.51100000000E-03 0.  1.
        -12    1    3    3    0    0  0.16359288224E+02  0.24909335025E+01 -0.33806900718E+01  0.16889645534E+02  0.00000000000E+00 0.  1.
</event>
<event>
 7    1  0.5019004E-011  0.5052886E+02  0.7816164E-02  0.1300439E+00
        -11   -1    0    0    0    0  0.00000000000E+00  0.00000000000E+00  0.45593999997E+02  0.45594000000E+02  0.51100000000E-03 0.  1.
         11   -1    0    0    0    0 -0.00000000000E+00 -0.00000000000E+00 -0.45593999997E+02  0.45594000000E+02  0.51100000000E-03 0. -1.
    9900012    2    1    2    0    0  0.39444655481E+02  0.96543590676E+01  0.20195226928E+01  0.50528856294E+02  0.29999989192E+02 0.  0.
        -12    1    1    2    0    0 -0.39444655481E+02 -0.96543590676E+01 -0.20195226928E+01  0.40659143706E+02  0.00000000000E+00 0.  1.
         11    1    3    3    0    0 -0.14255321017E+01  0.14924810308E-01  0.20501584968E+01  0.24971012487E+01  0.51100000000E-03 0.  1.
        -11    1    3    3    0    0  0.25840439546E+02 -0.19170135832E+01 -0.84958245158E+01  0.27268705350E+02  0.51100000000E-03 0. -1.
        -12    1    3    3    0    0  0.15029748037E+02  0.11556447840E+02  0.84651887118E+01  0.20763049696E+02  0.00000000000E+00 0.  1.
</event>
<event>
 7    1  0.5019004E-011  0.5052886E+02  0.7816164E-02  0.1300439E+00
        -11   -1    0    0    0    0  0.00000000000E+00  0.00000000000E+00  0.45593999997E+02  0.45594000000E+02  0.51100000000E-03 0. -1.
         11   -1    0    0    0    0 -0.00000000000E+00 -0.00000000000E+00 -0.45593999997E+02  0.45594000000E+02  0.51100000000E-03 0.  1.
    9900012    2    1    2    0    0  0.37010184769E+02 -0.15260921131E+02  0.71074569369E+01  0.50528862841E+02  0.30000009093E+02 0.  0.
        -12    1    1    2    0    0 -0.37010184769E+02  0.15260921131E+02 -0.71074569369E+01  0.40659137159E+02  0.00000000000E+00 0.  1.
         11    1    3    3    0    0  0.82621172401E+01  0.47151427917E+01 -0.33110968510E+01  0.10072661786E+02  0.51100000000E-03 0. -1.
        -11    1    3    3    0    0  0.74282412083E+01 -0.14997740044E+02  0.14572607325E+01  0.16799838778E+02  0.51100000000E-03 0.  1.
         12    1    3    3    0    0  0.21319826320E+02 -0.49783238791E+01  0.89612930554E+01  0.23656362277E+02  0.00000000000E+00 0. -1.
</event>
<event>
 7    1  0.5019004E-011  0.5052889E+02  0.7816164E-02  0.1300439E+00
        -11   -1    0    0    0    0  0.00000000000E+00  0.00000000000E+00  0.45593999997E+02  0.45594000000E+02  0.51100000000E-03 0.  1.
         11   -1    0    0    0    0 -0.00000000000E+00 -0.00000000000E+00 -0.45593999997E+02  0.45594000000E+02  0.51100000000E-03 0. -1.
    9900012    2    1    2    0    0 -0.26148806148E+02  0.22793188187E+02 -0.21210233901E+02  0.50528886472E+02  0.30000080921E+02 0.  0.
        -12    1    1    2    0    0  0.26148806148E+02 -0.22793188187E+02  0.21210233901E+02  0.40659113528E+02  0.00000000000E+00 0.  1.
         11    1    3    3    0    0  0.32519268842E+01 -0.31637868777E+01 -0.40609506285E+01  0.60889979583E+01  0.51100000000E-03 0. -1.
        -11    1    3    3    0    0 -0.21991281584E+02  0.12111255337E+02 -0.84618633792E+01  0.26493435105E+02  0.51100000000E-03 0.  1.
        -12    1    3    3    0    0 -0.74094514484E+01  0.13845719728E+02 -0.86874198936E+01  0.17946453409E+02  0.00000000000E+00 0.  1.
</event>
<event>
 7    1  0.5019004E-011  0.5052886E+02  0.7816164E-02  0.1300439E+00
        -11   -1    0    0    0    0  0.00000000000E+00  0.00000000000E+00  0.45593999997E+02  0.45594000000E+02  0.51100000000E-03 0.  1.
         11   -1    0    0    0    0 -0.00000000000E+00 -0.00000000000E+00 -0.45593999997E+02  0.45594000000E+02  0.51100000000E-03 0. -1.
    9900012    2    1    2    0    0  0.12792000903E+02  0.35035397531E+02 -0.16187986309E+02  0.50528864889E+02  0.30000015315E+02 0.  0.
        -12    1    1    2    0    0 -0.12792000903E+02 -0.35035397531E+02  0.16187986309E+02  0.40659135111E+02  0.00000000000E+00 0.  1.
         11    1    3    3    0    0 -0.65096678357E+01  0.13119786946E+02 -0.71087346295E+01  0.16280009003E+02  0.51100000000E-03 0. -1.
        -11    1    3    3    0    0  0.13386290477E+02  0.41287277163E+01 -0.60575054347E+01  0.15262127559E+02  0.51100000000E-03 0.  1.
        -12    1    3    3    0    0  0.59153782619E+01  0.17786882869E+02 -0.30217462449E+01  0.18986728326E+02  0.00000000000E+00 0.  1.
</event>
<event>
 7    1  0.5019004E-011  0.5052887E+02  0.7816164E-02  0.1300439E+00
        -11   -1    0    0    0    0  0.00000000000E+00  0.00000000000E+00  0.45593999997E+02  0.45594000000E+02  0.51100000000E-03 0. -1.
         11   -1    0    0    0    0 -0.00000000000E+00 -0.00000000000E+00 -0.45593999997E+02  0.45594000000E+02  0.51100000000E-03 0.  1.
    9900012    2    1    2    0    0 -0.11767300627E+02  0.16730890765E+02  0.35139337408E+02  0.50528866914E+02  0.30000021471E+02 0.  0.
        -12    1    1    2    0    0  0.11767300627E+02 -0.16730890765E+02 -0.35139337408E+02  0.40659133086E+02  0.00000000000E+00 0.  1.
         11    1    3    3    0    0 -0.26872834761E+01  0.50570508459E+01  0.21951619997E+02  0.22686314740E+02  0.51100000000E-03 0. -1.
        -11    1    3    3    0    0 -0.95129388549E+01  0.61590159381E+01 -0.21526107876E+01  0.11535303050E+02  0.51100000000E-03 0.  1.
        -12    1    3    3    0    0  0.43292170410E+00  0.55148239815E+01  0.15340328199E+02  0.16307249124E+02  0.00000000000E+00 0.  1.
</event>
<event>
 7    1  0.5019004E-011  0.5052880E+02  0.7816164E-02  0.1300439E+00
        -11   -1    0    0    0    0  0.00000000000E+00  0.00000000000E+00  0.45593999997E+02  0.45594000000E+02  0.51100000000E-03 0.  1.
         11   -1    0    0    0    0 -0.00000000000E+00 -0.00000000000E+00 -0.45593999997E+02  0.45594000000E+02  0.51100000000E-03 0. -1.
    9900012    2    1    2    0    0 -0.22198767463E+02 -0.30430436949E+02 -0.15309267991E+02  0.50528801087E+02  0.29999821385E+02 0.  0.
        -12    1    1    2    0    0  0.22198767463E+02  0.30430436949E+02  0.15309267991E+02  0.40659198913E+02  0.00000000000E+00 0.  1.
         11    1    3    3    0    0 -0.27720678671E+02 -0.27280559315E+02 -0.15626355993E+02  0.41914770002E+02  0.51100000000E-03 0. -1.
        -11    1    3    3    0    0  0.20682086949E+01 -0.44452991733E+01 -0.84320734598E-01  0.49035989022E+01  0.51100000000E-03 0.  1.
         12    1    3    3    0    0  0.34537025126E+01  0.12954215387E+01  0.40140873680E+00  0.37104321827E+01  0.00000000000E+00 0. -1.
</event>
<event>
 7    1  0.5019004E-011  0.5052887E+02  0.7816164E-02  0.1300439E+00
        -11   -1    0    0    0    0  0.00000000000E+00  0.00000000000E+00  0.45593999997E+02  0.45594000000E+02  0.51100000000E-03 0.  1.
         11   -1    0    0    0    0 -0.00000000000E+00 -0.00000000000E+00 -0.45593999997E+02  0.45594000000E+02  0.51100000000E-03 0. -1.
    9900012    2    1    2    0    0 -0.10820801386E+01  0.22406398739E+02 -0.33910876053E+02  0.50528866751E+02  0.30000020977E+02 0.  0.
        -12    1    1    2    0    0  0.10820801386E+01 -0.22406398739E+02  0.33910876053E+02  0.40659133249E+02  0.00000000000E+00 0.  1.
         11    1    3    3    0    0 -0.11918007375E+02  0.48690803421E+01 -0.21463102961E+02  0.25028216719E+02  0.51100000000E-03 0. -1.
        -11    1    3    3    0    0  0.18356333892E+01  0.10940253715E+02 -0.59692759526E+01  0.12597259898E+02  0.51100000000E-03 0.  1.
         12    1    3    3    0    0  0.90002938476E+01  0.65970646816E+01 -0.64784971395E+01  0.12903390134E+02  0.00000000000E+00 0. -1.
</event>
<event>
 7    1  0.5019004E-011  0.5052886E+02  0.7816164E-02  0.1300439E+00
        -11   -1    0    0    0    0  0.00000000000E+00  0.00000000000E+00  0.45593999997E+02  0.45594000000E+02  0.51100000000E-03 0.  1.
         11   -1    0    0    0    0 -0.00000000000E+00 -0.00000000000E+00 -0.45593999997E+02  0.45594000000E+02  0.51100000000E-03 0. -1.
    9900012    2    1    2    0    0  0.34297919646E+01  0.33885210865E+02 -0.22207985308E+02  0.50528860809E+02  0.30000002916E+02 0.  0.
        -12    1    1    2    0    0 -0.34297919646E+01 -0.33885210865E+02  0.22207985308E+02  0.40659139191E+02  0.00000000000E+00 0.  1.
         11    1    3    3    0    0 -0.36995071383E+00  0.19890751722E+02 -0.67353804558E+01  0.21003433476E+02  0.51100000000E-03 0. -1.
        -11    1    3    3    0    0 -0.51867600848E+01 -0.29455224720E+00 -0.10841113979E+02  0.12021605291E+02  0.51100000000E-03 0.  1.
        -12    1    3    3    0    0  0.89865027632E+01  0.14289011390E+02 -0.46314908732E+01  0.17503822043E+02  0.00000000000E+00 0.  1.
</event>
<event>
 7    1  0.5019004E-011  0.5052878E+02  0.7816164E-02  0.1300439E+00
        -11   -1    0    0    0    0  0.00000000000E+00  0.00000000000E+00  0.45593999997E+02  0.45594000000E+02  0.51100000000E-03 0. -1.
         11   -1    0    0    0    0 -0.00000000000E+00 -0.00000000000E+00 -0.45593999997E+02  0.45594000000E+02  0.51100000000E-03 0.  1.
    9900012    2    1    2    0    0 -0.35376138600E+02  0.19764803271E+02  0.33246480639E+01  0.50528783144E+02  0.29999766843E+02 0.  0.
        -12    1    1    2    0    0  0.35376138600E+02 -0.19764803271E+02 -0.33246480639E+01  0.40659216856E+02  0.00000000000E+00 0.  1.
         11    1    3    3    0    0 -0.23044055688E+02  0.39805011150E+01 -0.51444081331E+01  0.23944473830E+02  0.51100000000E-03 0. -1.
        -11    1    3    3    0    0 -0.11409872106E+02  0.10379335995E+02  0.12438722987E+02  0.19815085844E+02  0.51100000000E-03 0.  1.
        -12    1    3    3    0    0 -0.92221080549E+00  0.54049661609E+01 -0.39696667897E+01  0.67692234703E+01  0.00000000000E+00 0.  1.
</event>
<event>
 7    1  0.5019004E-011  0.5052886E+02  0.7816164E-02  0.1300439E+00
        -11   -1    0    0    0    0  0.00000000000E+00  0.00000000000E+00  0.45593999997E+02  0.45594000000E+02  0.51100000000E-03 0. -1.
         11   -1    0    0    0    0 -0.00000000000E+00 -0.00000000000E+00 -0.45593999997E+02  0.45594000000E+02  0.51100000000E-03 0.  1.
    9900012    2    1    2    0    0  0.37572370150E+02  0.55249712565E+01  0.14524371723E+02  0.50528859822E+02  0.29999999913E+02 0.  0.
        -12    1    1    2    0    0 -0.37572370150E+02 -0.55249712565E+01 -0.14524371723E+02  0.40659140178E+02  0.00000000000E+00 0.  1.
         11    1    3    3    0    0 -0.17814744166E+01  0.16324675388E+01  0.14489268195E+01  0.28174439749E+01  0.51100000000E-03 0.  1.
        -11    1    3    3    0    0  0.37398508068E+02  0.47839164350E+01  0.34632820484E+01  0.37861967526E+02  0.51100000000E-03 0. -1.
        -12    1    3    3    0    0  0.19553364989E+01 -0.89141271724E+00  0.96121628552E+01  0.98494483202E+01  0.00000000000E+00 0.  1.
</event>
<event>
 7    1  0.5019004E-011  0.5052885E+02  0.7816164E-02  0.1300439E+00
        -11   -1    0    0    0    0  0.00000000000E+00  0.00000000000E+00  0.45593999997E+02  0.45594000000E+02  0.51100000000E-03 0.  1.
         11   -1    0    0    0    0 -0.00000000000E+00 -0.00000000000E+00 -0.45593999997E+02  0.45594000000E+02  0.51100000000E-03 0. -1.
    9900012    2    1    2    0    0  0.27388203250E+02  0.29977218290E+02 -0.21021166656E+01  0.50528853573E+02  0.29999980922E+02 0.  0.
        -12    1    1    2    0    0 -0.27388203250E+02 -0.29977218290E+02  0.21021166656E+01  0.40659146427E+02  0.00000000000E+00 0.  1.
         11    1    3    3    0    0 -0.19128242689E+01  0.50839700670E+01 -0.86224044635E+01  0.10190755974E+02  0.51100000000E-03 0. -1.
        -11    1    3    3    0    0  0.13781099346E+02  0.10619690240E+02  0.81042037675E+01  0.19193088312E+02  0.51100000000E-03 0.  1.
         12    1    3    3    0    0  0.15519928173E+02  0.14273557983E+02 -0.15839159696E+01  0.21145009288E+02  0.00000000000E+00 0. -1.
</event>
<event>
 7    1  0.5019004E-011  0.5052886E+02  0.7816164E-02  0.1300439E+00
        -11   -1    0    0    0    0  0.00000000000E+00  0.00000000000E+00  0.45593999997E+02  0.45594000000E+02  0.51100000000E-03 0. -1.
         11   -1    0    0    0    0 -0.00000000000E+00 -0.00000000000E+00 -0.45593999997E+02  0.45594000000E+02  0.51100000000E-03 0.  1.
    9900012    2    1    2    0    0 -0.38953877442E+02  0.11228413578E+02 -0.31119477128E+01  0.50528855177E+02  0.29999985795E+02 0.  0.
        -12    1    1    2    0    0  0.38953877442E+02 -0.11228413578E+02  0.31119477128E+01  0.40659144823E+02  0.00000000000E+00 0.  1.
         11    1    3    3    0    0 -0.13878300835E+02  0.33369606474E+01  0.98910248233E+01  0.17365912379E+02  0.51100000000E-03 0. -1.
        -11    1    3    3    0    0 -0.10612330344E+02 -0.30843586544E+01 -0.97083013703E+01  0.14710062522E+02  0.51100000000E-03 0.  1.
        -12    1    3    3    0    0 -0.14463246262E+02  0.10975811585E+02 -0.32946711658E+01  0.18452880276E+02  0.00000000000E+00 0.  1.
</event>
<event>
 7    1  0.5019004E-011  0.5052886E+02  0.7816164E-02  0.1300439E+00
        -11   -1    0    0    0    0  0.00000000000E+00  0.00000000000E+00  0.45593999997E+02  0.45594000000E+02  0.51100000000E-03 0.  1.
         11   -1    0    0    0    0 -0.00000000000E+00 -0.00000000000E+00 -0.45593999997E+02  0.45594000000E+02  0.51100000000E-03 0. -1.
    9900012    2    1    2    0    0  0.19504717862E+02  0.21797457726E+02 -0.28241862851E+02  0.50528855893E+02  0.29999987973E+02 0.  0.
        -12    1    1    2    0    0 -0.19504717862E+02 -0.21797457726E+02  0.28241862851E+02  0.40659144107E+02  0.00000000000E+00 0.  1.
         11    1    3    3    0    0  0.24777084743E+02  0.70530973032E+01 -0.17717666629E+02  0.31266049015E+02  0.51100000000E-03 0. -1.
        -11    1    3    3    0    0 -0.22229551011E+01  0.20609089128E+01 -0.26449346022E+01  0.40230031368E+01  0.51100000000E-03 0.  1.
         12    1    3    3    0    0 -0.30494117804E+01  0.12683451510E+02 -0.78792616198E+01  0.15239803742E+02  0.00000000000E+00 0. -1.
</event>
<event>
 7    1  0.5019004E-011  0.5052887E+02  0.7816164E-02  0.1300439E+00
        -11   -1    0    0    0    0  0.00000000000E+00  0.00000000000E+00  0.45593999997E+02  0.45594000000E+02  0.51100000000E-03 0. -1.
         11   -1    0    0    0    0 -0.00000000000E+00 -0.00000000000E+00 -0.45593999997E+02  0.45594000000E+02  0.51100000000E-03 0.  1.
    9900012    2    1    2    0    0 -0.39420628225E+02 -0.90357902850E+01  0.41872940269E+01  0.50528869820E+02  0.30000030304E+02 0.  0.
        -12    1    1    2    0    0  0.39420628225E+02  0.90357902850E+01 -0.41872940269E+01  0.40659130180E+02  0.00000000000E+00 0.  1.
         11    1    3    3    0    0 -0.16001019939E+02  0.75638807412E+01  0.10519640453E+02  0.20589020532E+02  0.51100000000E-03 0. -1.
        -11    1    3    3    0    0 -0.16647451715E+02 -0.11747484089E+02 -0.17964281905E+01  0.20454050590E+02  0.51100000000E-03 0.  1.
        -12    1    3    3    0    0 -0.67721565712E+01 -0.48521869371E+01 -0.45359182355E+01  0.94857986979E+01  0.00000000000E+00 0.  1.
</event>
<event>
 7    1  0.5019004E-011  0.5052886E+02  0.7816164E-02  0.1300439E+00
        -11   -1    0    0    0    0  0.00000000000E+00  0.00000000000E+00  0.45593999997E+02  0.45594000000E+02  0.51100000000E-03 0.  1.
         11   -1    0    0    0    0 -0.00000000000E+00 -0.00000000000E+00 -0.45593999997E+02  0.45594000000E+02  0.51100000000E-03 0. -1.
    9900012    2    1    2    0    0  0.28085987110E+02 -0.29293071810E+02 -0.25018071110E+01  0.50528858754E+02  0.29999996668E+02 0.  0.
        -12    1    1    2    0    0 -0.28085987110E+02  0.29293071810E+02  0.25018071110E+01  0.40659141246E+02  0.00000000000E+00 0.  1.
         11    1    3    3    0    0  0.20934376546E+02 -0.17354658596E+02  0.89420322866E+01  0.28625028175E+02  0.51100000000E-03 0. -1.
        -11    1    3    3    0    0  0.85737889120E+01 -0.62419232033E+01 -0.11989895443E+02  0.16007156355E+02  0.51100000000E-03 0.  1.
        -12    1    3    3    0    0 -0.14221783474E+01 -0.56964900106E+01  0.54605604548E+00  0.58966742235E+01  0.00000000000E+00 0.  1.
</event>
<event>
 7    1  0.5019004E-011  0.5052886E+02  0.7816164E-02  0.1300439E+00
        -11   -1    0    0    0    0  0.00000000000E+00  0.00000000000E+00  0.45593999997E+02  0.45594000000E+02  0.51100000000E-03 0.  1.
         11   -1    0    0    0    0 -0.00000000000E+00 -0.00000000000E+00 -0.45593999997E+02  0.45594000000E+02  0.51100000000E-03 0. -1.
    9900012    2    1    2    0    0 -0.13794266953E+02  0.38174364902E+02 -0.23667701539E+01  0.50528861575E+02  0.30000005244E+02 0.  0.
        -12    1    1    2    0    0  0.13794266953E+02 -0.38174364902E+02  0.23667701539E+01  0.40659138425E+02  0.00000000000E+00 0.  1.
         11    1    3    3    0    0  0.30206989975E+01 -0.25986564038E+01  0.32890344524E+01  0.51667577289E+01  0.51100000000E-03 0.  1.
        -11    1    3    3    0    0 -0.14512033222E+02  0.38204693902E+02 -0.29435467221E+01  0.40973921120E+02  0.51100000000E-03 0. -1.
         12    1    3    3    0    0 -0.23029327290E+01  0.25683274043E+01 -0.27122578842E+01  0.43881827264E+01  0.00000000000E+00 0. -1.
</event>
<event>
 7    1  0.5348151E-011  0.5052884E+02  0.7816164E-02  0.1300439E+00
        -11   -1    0    0    0    0  0.00000000000E+00  0.00000000000E+00  0.45593999997E+02  0.45594000000E+02  0.51100000000E-03 0. -1.
         11   -1    0    0    0    0 -0.00000000000E+00 -0.00000000000E+00 -0.45593999997E+02  0.45594000000E+02  0.51100000000E-03 0.  1.
    9900012    2    1    2    0    0  0.35956011978E+02 -0.18930344101E+02 -0.14052479005E+01  0.50528838095E+02  0.29999933874E+02 0.  0.
        -12    1    1    2    0    0 -0.35956011978E+02  0.18930344101E+02  0.14052479005E+01  0.40659161905E+02  0.00000000000E+00 0.  1.
         11    1    3    3    0    0  0.21311177626E+02 -0.14130665085E+02 -0.92624663503E+01  0.27196236333E+02  0.51100000000E-03 0. -1.
        -11    1    3    3    0    0  0.89113748019E+01  0.51545444534E+01  0.21974725443E+01  0.10526671612E+02  0.51100000000E-03 0.  1.
         12    1    3    3    0    0  0.57334595504E+01 -0.99542234690E+01  0.56597459055E+01  0.12805930150E+02  0.00000000000E+00 0. -1.
</event>
<event>
 7    1  0.5019004E-011  0.5052886E+02  0.7816164E-02  0.1300439E+00
        -11   -1    0    0    0    0  0.00000000000E+00  0.00000000000E+00  0.45593999997E+02  0.45594000000E+02  0.51100000000E-03 0.  1.
         11   -1    0    0    0    0 -0.00000000000E+00 -0.00000000000E+00 -0.45593999997E+02  0.45594000000E+02  0.51100000000E-03 0. -1.
    9900012    2    1    2    0    0  0.36525523389E+02  0.17664997317E+02  0.26456589230E+01  0.50528862033E+02  0.30000006637E+02 0.  0.
        -12    1    1    2    0    0 -0.36525523389E+02 -0.17664997317E+02 -0.26456589230E+01  0.40659137967E+02  0.00000000000E+00 0.  1.
         11    1    3    3    0    0  0.31066562565E+02  0.20242841386E+02  0.11493547007E+02  0.38820169500E+02  0.51100000000E-03 0. -1.
        -11    1    3    3    0    0  0.13441308527E+01  0.12786851529E+01 -0.33685494811E+01  0.38456273009E+01  0.51100000000E-03 0.  1.
         12    1    3    3    0    0  0.41148299716E+01 -0.38565292215E+01 -0.54793386025E+01  0.78630652326E+01  0.00000000000E+00 0. -1.
</event>
<event>
 7    1  0.5019004E-011  0.5052884E+02  0.7816164E-02  0.1300439E+00
        -11   -1    0    0    0    0  0.00000000000E+00  0.00000000000E+00  0.45593999997E+02  0.45594000000E+02  0.51100000000E-03 0.  1.
         11   -1    0    0    0    0 -0.00000000000E+00 -0.00000000000E+00 -0.45593999997E+02  0.45594000000E+02  0.51100000000E-03 0. -1.
    9900012    2    1    2    0    0  0.31697773921E+02 -0.93200291126E+01 -0.23697155074E+02  0.50528843924E+02  0.29999951592E+02 0.  0.
        -12    1    1    2    0    0 -0.31697773921E+02  0.93200291126E+01  0.23697155074E+02  0.40659156076E+02  0.00000000000E+00 0.  1.
         11    1    3    3    0    0  0.20151109688E+02  0.42751643810E+01 -0.18426272185E+02  0.27638230028E+02  0.51100000000E-03 0. -1.
        -11    1    3    3    0    0  0.96484466649E+01 -0.11955171131E+02  0.17241740290E+01  0.15459347210E+02  0.51100000000E-03 0.  1.
        -12    1    3    3    0    0  0.18982175676E+01 -0.16400223628E+01 -0.69950569179E+01  0.74312666867E+01  0.00000000000E+00 0.  1.
</event>
<event>
 7    1  0.5019004E-011  0.5052886E+02  0.7816164E-02  0.1300439E+00
        -11   -1    0    0    0    0  0.00000000000E+00  0.00000000000E+00  0.45593999997E+02  0.45594000000E+02  0.51100000000E-03 0.  1.
         11   -1    0    0    0    0 -0.00000000000E+00 -0.00000000000E+00 -0.45593999997E+02  0.45594000000E+02  0.51100000000E-03 0. -1.
    9900012    2    1    2    0    0 -0.99993887832E+01  0.35047090597E+02 -0.18024409390E+02  0.50528859955E+02  0.30000000319E+02 0.  0.
        -12    1    1    2    0    0  0.99993887832E+01 -0.35047090597E+02  0.18024409390E+02  0.40659140045E+02  0.00000000000E+00 0.  1.
         11    1    3    3    0    0 -0.12214052994E+02  0.23789602152E+02 -0.19847786924E+02  0.33302596102E+02  0.51100000000E-03 0. -1.
        -11    1    3    3    0    0  0.37740544674E+01  0.39353589610E+00  0.45428092653E+01  0.59190771161E+01  0.51100000000E-03 0.  1.
        -12    1    3    3    0    0 -0.15593902563E+01  0.10863952549E+02 -0.27194317317E+01  0.11307186737E+02  0.00000000000E+00 0.  1.
</event>
<event>
 7    1  0.5019004E-011  0.5052886E+02  0.7816164E-02  0.1300439E+00
        -11   -1    0    0    0    0  0.00000000000E+00  0.00000000000E+00  0.45593999997E+02  0.45594000000E+02  0.51100000000E-03 0. -1.
         11   -1    0    0    0    0 -0.00000000000E+00 -0.00000000000E+00 -0.45593999997E+02  0.45594000000E+02  0.51100000000E-03 0.  1.
    9900012    2    1    2    0    0  0.94183301853E+01 -0.16553874981E+02  0.35922551707E+02  0.50528862755E+02  0.30000008830E+02 0.  0.
        -12    1    1    2    0    0 -0.94183301853E+01  0.16553874981E+02 -0.35922551707E+02  0.40659137245E+02  0.00000000000E+00 0.  1.
         11    1    3    3    0    0  0.26880726303E+01 -0.16424266260E+02  0.11458746885E+02  0.20206066839E+02  0.51100000000E-03 0. -1.
        -11    1    3    3    0    0 -0.15649548307E+01  0.66415816660E+01  0.65853416291E+01  0.94829539323E+01  0.51100000000E-03 0.  1.
         12    1    3    3    0    0  0.82952123856E+01 -0.67711903865E+01  0.17878463193E+02  0.20839841984E+02  0.00000000000E+00 0. -1.
</event>
<event>
 7    1  0.5019004E-011  0.5052884E+02  0.7816164E-02  0.1300439E+00
        -11   -1    0    0    0    0  0.00000000000E+00  0.00000000000E+00  0.45593999997E+02  0.45594000000E+02  0.51100000000E-03 0.  1.
         11   -1    0    0    0    0 -0.00000000000E+00 -0.00000000000E+00 -0.45593999997E+02  0.45594000000E+02  0.51100000000E-03 0. -1.
    9900012    2    1    2    0    0 -0.17402776933E+02  0.31182818138E+02 -0.19440736450E+02  0.50528843273E+02  0.29999949613E+02 0.  0.
        -12    1    1    2    0    0  0.17402776933E+02 -0.31182818138E+02  0.19440736450E+02  0.40659156727E+02  0.00000000000E+00 0.  1.
         11    1    3    3    0    0 -0.27228308490E+01  0.14683217041E+02 -0.15458392939E+02  0.21493547474E+02  0.51100000000E-03 0. -1.
        -11    1    3    3    0    0 -0.91033029207E+01  0.11689038957E+02  0.65372984966E+01  0.16193826839E+02  0.51100000000E-03 0.  1.
        -12    1    3    3    0    0 -0.55766431635E+01  0.48105621406E+01 -0.10519642008E+02  0.12841468960E+02  0.00000000000E+00 0.  1.
</event>
<event>
 7    1  0.5019004E-011  0.5052886E+02  0.7816164E-02  0.1300439E+00
        -11   -1    0    0    0    0  0.00000000000E+00  0.00000000000E+00  0.45593999997E+02  0.45594000000E+02  0.51100000000E-03 0.  1.
         11   -1    0    0    0    0 -0.00000000000E+00 -0.00000000000E+00 -0.45593999997E+02  0.45594000000E+02  0.51100000000E-03 0. -1.
    9900012    2    1    2    0    0 -0.12809098839E+02  0.16818663457E+02 -0.34730749093E+02  0.50528863436E+02  0.30000010901E+02 0.  0.
        -12    1    1    2    0    0  0.12809098839E+02 -0.16818663457E+02  0.34730749093E+02  0.40659136564E+02  0.00000000000E+00 0.  1.
         11    1    3    3    0    0 -0.25891955631E+01  0.11978377554E+02 -0.30141560618E+02  0.32537657249E+02  0.51100000000E-03 0. -1.
        -11    1    3    3    0    0 -0.73118428680E+01 -0.28864317134E+01 -0.56312938249E+01  0.96698502867E+01  0.51100000000E-03 0.  1.
         12    1    3    3    0    0 -0.29080604079E+01  0.77267176173E+01  0.10421053503E+01  0.83213559012E+01  0.00000000000E+00 0. -1.
</event>
<event>
 7    1  0.5019004E-011  0.5052886E+02  0.7816164E-02  0.1300439E+00
        -11   -1    0    0    0    0  0.00000000000E+00  0.00000000000E+00  0.45593999997E+02  0.45594000000E+02  0.51100000000E-03 0.  1.
         11   -1    0    0    0    0 -0.00000000000E+00 -0.00000000000E+00 -0.45593999997E+02  0.45594000000E+02  0.51100000000E-03 0. -1.
    9900012    2    1    2    0    0 -0.35055764955E+01 -0.34426808847E+02 -0.21346457435E+02  0.50528862294E+02  0.30000007428E+02 0.  0.
        -12    1    1    2    0    0  0.35055764955E+01  0.34426808847E+02  0.21346457435E+02  0.40659137706E+02  0.00000000000E+00 0.  1.
         11    1    3    3    0    0  0.11724070909E+02 -0.11814986745E+02 -0.56274131246E+01  0.17570302479E+02  0.51100000000E-03 0. -1.
        -11    1    3    3    0    0 -0.28269208327E+00 -0.44026489723E+01  0.37528502496E+00  0.44276485744E+01  0.51100000000E-03 0.  1.
         12    1    3    3    0    0 -0.14946955321E+02 -0.18209173130E+02 -0.16094329335E+02  0.28530911241E+02  0.00000000000E+00 0. -1.
</event>
<event>
 7    1  0.5019004E-011  0.5052887E+02  0.7816164E-02  0.1300439E+00
        -11   -1    0    0    0    0  0.00000000000E+00  0.00000000000E+00  0.45593999997E+02  0.45594000000E+02  0.51100000000E-03 0. -1.
         11   -1    0    0    0    0 -0.00000000000E+00 -0.00000000000E+00 -0.45593999997E+02  0.45594000000E+02  0.51100000000E-03 0.  1.
    9900012    2    1    2    0    0 -0.24253846561E+02 -0.30763327926E+02 -0.10887307685E+02  0.50528869578E+02  0.30000029568E+02 0.  0.
        -12    1    1    2    0    0  0.24253846561E+02  0.30763327926E+02  0.10887307685E+02  0.40659130422E+02  0.00000000000E+00 0.  1.
         11    1    3    3    0    0 -0.10521036779E+02 -0.95581371476E+01  0.97139548205E+01  0.17216594296E+02  0.51100000000E-03 0. -1.
        -11    1    3    3    0    0 -0.61995384842E+01 -0.43000343295E+01 -0.74876728505E+01  0.10629666864E+02  0.51100000000E-03 0.  1.
         12    1    3    3    0    0 -0.75332712979E+01 -0.16905156449E+02 -0.13113589655E+02  0.22682608418E+02  0.00000000000E+00 0. -1.
</event>
<event>
 7    1  0.5019004E-011  0.5052886E+02  0.7816164E-02  0.1300439E+00
        -11   -1    0    0    0    0  0.00000000000E+00  0.00000000000E+00  0.45593999997E+02  0.45594000000E+02  0.51100000000E-03 0.  1.
         11   -1    0    0    0    0 -0.00000000000E+00 -0.00000000000E+00 -0.45593999997E+02  0.45594000000E+02  0.51100000000E-03 0. -1.
    9900012    2    1    2    0    0  0.26840495318E+02  0.21852271050E+02 -0.21336152690E+02  0.50528863873E+02  0.30000012228E+02 0.  0.
        -12    1    1    2    0    0 -0.26840495318E+02 -0.21852271050E+02  0.21336152690E+02  0.40659136127E+02  0.00000000000E+00 0.  1.
         11    1    3    3    0    0  0.88404405688E+01  0.21476031469E+02 -0.11043521630E+02  0.25716389470E+02  0.51100000000E-03 0. -1.
        -11    1    3    3    0    0  0.10764113275E+02  0.37831205054E+00  0.16025455130E+01  0.10889325369E+02  0.51100000000E-03 0.  1.
         12    1    3    3    0    0  0.72359414745E+01 -0.20724699153E-02 -0.11895176573E+02  0.13923149034E+02  0.00000000000E+00 0. -1.
</event>
<event>
 7    1  0.5019004E-011  0.5052886E+02  0.7816164E-02  0.1300439E+00
        -11   -1    0    0    0    0  0.00000000000E+00  0.00000000000E+00  0.45593999997E+02  0.45594000000E+02  0.51100000000E-03 0.  1.
         11   -1    0    0    0    0 -0.00000000000E+00 -0.00000000000E+00 -0.45593999997E+02  0.45594000000E+02  0.51100000000E-03 0. -1.
    9900012    2    1    2    0    0  0.17678066637E+02 -0.22560332202E+02 -0.28838909354E+02  0.50528864227E+02  0.30000013304E+02 0.  0.
        -12    1    1    2    0    0 -0.17678066637E+02  0.22560332202E+02  0.28838909354E+02  0.40659135773E+02  0.00000000000E+00 0.  1.
         11    1    3    3    0    0 -0.12926966979E+01 -0.11154390003E+02 -0.98772565556E+01  0.14954988413E+02  0.51100000000E-03 0. -1.
        -11    1    3    3    0    0  0.12081344035E+02  0.39610839459E+01 -0.48690693635E+01  0.13614583961E+02  0.51100000000E-03 0.  1.
        -12    1    3    3    0    0  0.68894193007E+01 -0.15367026145E+02 -0.14092583435E+02  0.21959291853E+02  0.00000000000E+00 0.  1.
</event>
<event>
 7    1  0.5019004E-011  0.5052885E+02  0.7816164E-02  0.1300439E+00
        -11   -1    0    0    0    0  0.00000000000E+00  0.00000000000E+00  0.45593999997E+02  0.45594000000E+02  0.51100000000E-03 0.  1.
         11   -1    0    0    0    0 -0.00000000000E+00 -0.00000000000E+00 -0.45593999997E+02  0.45594000000E+02  0.51100000000E-03 0. -1.
    9900012    2    1    2    0    0  0.49241210229E+01 -0.18725917952E+02 -0.35752751663E+02  0.50528853151E+02  0.29999979638E+02 0.  0.
        -12    1    1    2    0    0 -0.49241210229E+01  0.18725917952E+02  0.35752751663E+02  0.40659146849E+02  0.00000000000E+00 0.  1.
         11    1    3    3    0    0  0.49877090918E+01 -0.59045049352E+01 -0.23535601857E+02  0.24772262221E+02  0.51100000000E-03 0. -1.
        -11    1    3    3    0    0 -0.70581044811E+01 -0.62853362899E+01  0.92637420555E+00  0.94963393249E+01  0.51100000000E-03 0.  1.
        -12    1    3    3    0    0  0.69945164122E+01 -0.65360767272E+01 -0.13143524011E+02  0.16260251605E+02  0.00000000000E+00 0.  1.
</event>
<event>
 7    1  0.5019004E-011  0.5052885E+02  0.7816164E-02  0.1300439E+00
        -11   -1    0    0    0    0  0.00000000000E+00  0.00000000000E+00  0.45593999997E+02  0.45594000000E+02  0.51100000000E-03 0.  1.
         11   -1    0    0    0    0 -0.00000000000E+00 -0.00000000000E+00 -0.45593999997E+02  0.45594000000E+02  0.51100000000E-03 0. -1.
    9900012    2    1    2    0    0  0.11761816640E+02 -0.23571181457E+02 -0.30971360769E+02  0.50528854487E+02  0.29999983699E+02 0.  0.
        -12    1    1    2    0    0 -0.11761816640E+02  0.23571181457E+02  0.30971360769E+02  0.40659145513E+02  0.00000000000E+00 0.  1.
         11    1    3    3    0    0  0.80459152015E+01 -0.70346005833E+01 -0.29580739980E+02  0.31452226230E+02  0.51100000000E-03 0. -1.
        -11    1    3    3    0    0  0.10236866478E+00 -0.12428746462E+02  0.20737779368E+01  0.12600983023E+02  0.51100000000E-03 0.  1.
        -12    1    3    3    0    0  0.36135327740E+01 -0.41078344117E+01 -0.34643987258E+01  0.64756452338E+01  0.00000000000E+00 0.  1.
</event>
<event>
 7    1  0.5019004E-011  0.5052886E+02  0.7816164E-02  0.1300439E+00
        -11   -1    0    0    0    0  0.00000000000E+00  0.00000000000E+00  0.45593999997E+02  0.45594000000E+02  0.51100000000E-03 0. -1.
         11   -1    0    0    0    0 -0.00000000000E+00 -0.00000000000E+00 -0.45593999997E+02  0.45594000000E+02  0.51100000000E-03 0.  1.
    9900012    2    1    2    0    0  0.98625015051E+01 -0.10274724101E+02  0.38083161335E+02  0.50528855044E+02  0.29999985392E+02 0.  0.
        -12    1    1    2    0    0 -0.98625015051E+01  0.10274724101E+02 -0.38083161335E+02  0.40659144956E+02  0.00000000000E+00 0.  1.
         11    1    3    3    0    0  0.67826677622E+01 -0.14646589302E+02  0.34411530586E+02  0.38008954178E+02  0.51100000000E-03 0. -1.
        -11    1    3    3    0    0  0.69400388731E+00  0.74856352556E+01  0.41182510965E+01  0.85718357970E+01  0.51100000000E-03 0.  1.
        -12    1    3    3    0    0  0.23858298557E+01 -0.31137700549E+01 -0.44662034786E+00  0.39480650692E+01  0.00000000000E+00 0.  1.
</event>
<event>
 7    1  0.5019004E-011  0.5052886E+02  0.7816164E-02  0.1300439E+00
        -11   -1    0    0    0    0  0.00000000000E+00  0.00000000000E+00  0.45593999997E+02  0.45594000000E+02  0.51100000000E-03 0.  1.
         11   -1    0    0    0    0 -0.00000000000E+00 -0.00000000000E+00 -0.45593999997E+02  0.45594000000E+02  0.51100000000E-03 0. -1.
    9900012    2    1    2    0    0  0.27644211859E+02 -0.12872309905E+02 -0.26893620263E+02  0.50528860530E+02  0.30000002067E+02 0.  0.
        -12    1    1    2    0    0 -0.27644211859E+02  0.12872309905E+02  0.26893620263E+02  0.40659139470E+02  0.00000000000E+00 0.  1.
         11    1    3    3    0    0  0.18738656242E+02 -0.20823974122E+02 -0.17739821610E+02  0.33158353503E+02  0.51100000000E-03 0.  1.
        -11    1    3    3    0    0  0.15220143845E+01  0.69487722016E+01 -0.58909958602E+01  0.92361136514E+01  0.51100000000E-03 0. -1.
         12    1    3    3    0    0  0.73835412327E+01  0.10028920160E+01 -0.32628027929E+01  0.81343933760E+01  0.00000000000E+00 0. -1.
</event>
<event>
 7    1  0.5019004E-011  0.5052886E+02  0.7816164E-02  0.1300439E+00
        -11   -1    0    0    0    0  0.00000000000E+00  0.00000000000E+00  0.45593999997E+02  0.45594000000E+02  0.51100000000E-03 0.  1.
         11   -1    0    0    0    0 -0.00000000000E+00 -0.00000000000E+00 -0.45593999997E+02  0.45594000000E+02  0.51100000000E-03 0. -1.
    9900012    2    1    2    0    0  0.11127574915E+02  0.37839263351E+02 -0.98758595000E+01  0.50528863570E+02  0.30000011306E+02 0.  0.
        -12    1    1    2    0    0 -0.11127574915E+02 -0.37839263351E+02  0.98758595000E+01  0.40659136430E+02  0.00000000000E+00 0.  1.
         11    1    3    3    0    0  0.10307087264E+02  0.31215797667E+01  0.19902663760E+00  0.10771254336E+02  0.51100000000E-03 0. -1.
        -11    1    3    3    0    0 -0.11165296276E+01  0.24159251443E+02  0.11677018656E+01  0.24213211200E+02  0.51100000000E-03 0.  1.
         12    1    3    3    0    0  0.19370172782E+01  0.10558432141E+02 -0.11242588003E+02  0.15544398034E+02  0.00000000000E+00 0. -1.
</event>
<event>
 7    1  0.5019004E-011  0.5052886E+02  0.7816164E-02  0.1300439E+00
        -11   -1    0    0    0    0  0.00000000000E+00  0.00000000000E+00  0.45593999997E+02  0.45594000000E+02  0.51100000000E-03 0.  1.
         11   -1    0    0    0    0 -0.00000000000E+00 -0.00000000000E+00 -0.45593999997E+02  0.45594000000E+02  0.51100000000E-03 0. -1.
    9900012    2    1    2    0    0  0.62817938456E+01  0.88360623855E+01 -0.39187098784E+02  0.50528860271E+02  0.30000001279E+02 0.  0.
        -12    1    1    2    0    0 -0.62817938456E+01 -0.88360623855E+01  0.39187098784E+02  0.40659139729E+02  0.00000000000E+00 0.  1.
         11    1    3    3    0    0 -0.43557054100E+00 -0.72014464502E+00 -0.26629133049E+02  0.26642429641E+02  0.51100000000E-03 0. -1.
        -11    1    3    3    0    0  0.10554119450E+02  0.23582601445E+01 -0.11286530715E+02  0.15631270074E+02  0.51100000000E-03 0.  1.
        -12    1    3    3    0    0 -0.38367550632E+01  0.71979468860E+01 -0.12714350200E+01  0.82551605556E+01  0.00000000000E+00 0.  1.
</event>
<event>
 7    1  0.5019004E-011  0.5052882E+02  0.7816164E-02  0.1300439E+00
        -11   -1    0    0    0    0  0.00000000000E+00  0.00000000000E+00  0.45593999997E+02  0.45594000000E+02  0.51100000000E-03 0.  1.
         11   -1    0    0    0    0 -0.00000000000E+00 -0.00000000000E+00 -0.45593999997E+02  0.45594000000E+02  0.51100000000E-03 0. -1.
    9900012    2    1    2    0    0  0.33976722244E+02  0.12053141068E+02 -0.18800889600E+02  0.50528815136E+02  0.29999864087E+02 0.  0.
        -12    1    1    2    0    0 -0.33976722244E+02 -0.12053141068E+02  0.18800889600E+02  0.40659184864E+02  0.00000000000E+00 0.  1.
         11    1    3    3    0    0  0.35509421323E+02  0.71452434994E+01 -0.95676421783E+01  0.37463492689E+02  0.51100000000E-03 0. -1.
        -11    1    3    3    0    0 -0.10193798575E+01 -0.15160105063E+01 -0.26257199648E-01  0.18270503142E+01  0.51100000000E-03 0.  1.
         12    1    3    3    0    0 -0.51331922140E+00  0.64239080751E+01 -0.92069902223E+01  0.11238272133E+02  0.00000000000E+00 0. -1.
</event>
<event>
 7    1  0.5019004E-011  0.5052884E+02  0.7816164E-02  0.1300439E+00
        -11   -1    0    0    0    0  0.00000000000E+00  0.00000000000E+00  0.45593999997E+02  0.45594000000E+02  0.51100000000E-03 0.  1.
         11   -1    0    0    0    0 -0.00000000000E+00 -0.00000000000E+00 -0.45593999997E+02  0.45594000000E+02  0.51100000000E-03 0. -1.
    9900012    2    1    2    0    0 -0.14736676227E+02 -0.28759878672E+01 -0.37785263571E+02  0.50528842661E+02  0.29999947752E+02 0.  0.
        -12    1    1    2    0    0  0.14736676227E+02  0.28759878672E+01  0.37785263571E+02  0.40659157339E+02  0.00000000000E+00 0.  1.
         11    1    3    3    0    0 -0.17008531858E+01  0.65447924582E+01 -0.10499865210E+02  0.12488970316E+02  0.51100000000E-03 0. -1.
        -11    1    3    3    0    0 -0.11917748720E+02 -0.11388600670E+02 -0.74738866405E+01  0.18099501141E+02  0.51100000000E-03 0.  1.
         12    1    3    3    0    0 -0.11180743212E+01  0.19678203446E+01 -0.19811511720E+02  0.19940371204E+02  0.00000000000E+00 0. -1.
</event>
<event>
 7    1  0.5019004E-011  0.5052885E+02  0.7816164E-02  0.1300439E+00
        -11   -1    0    0    0    0  0.00000000000E+00  0.00000000000E+00  0.45593999997E+02  0.45594000000E+02  0.51100000000E-03 0.  1.
         11   -1    0    0    0    0 -0.00000000000E+00 -0.00000000000E+00 -0.45593999997E+02  0.45594000000E+02  0.51100000000E-03 0. -1.
    9900012    2    1    2    0    0 -0.11075912006E+02  0.37099731276E+01 -0.38945180517E+02  0.50528845891E+02  0.29999957571E+02 0.  0.
        -12    1    1    2    0    0  0.11075912006E+02 -0.37099731276E+01  0.38945180517E+02  0.40659154109E+02  0.00000000000E+00 0.  1.
         11    1    3    3    0    0 -0.72093330653E+01  0.13189553003E+02 -0.21712357452E+02  0.26407674227E+02  0.51100000000E-03 0. -1.
        -11    1    3    3    0    0  0.17914099663E+01 -0.63963243691E+01 -0.10788331643E+01  0.67294870799E+01  0.51100000000E-03 0.  1.
         12    1    3    3    0    0 -0.56579889069E+01 -0.30832555068E+01 -0.16153989900E+02  0.17391684585E+02  0.00000000000E+00 0. -1.
</event>
<event>
 7    1  0.5019004E-011  0.5052878E+02  0.7816164E-02  0.1300439E+00
        -11   -1    0    0    0    0  0.00000000000E+00  0.00000000000E+00  0.45593999997E+02  0.45594000000E+02  0.51100000000E-03 0.  1.
         11   -1    0    0    0    0 -0.00000000000E+00 -0.00000000000E+00 -0.45593999997E+02  0.45594000000E+02  0.51100000000E-03 0. -1.
    9900012    2    1    2    0    0  0.25433419319E+02 -0.30007941279E+02 -0.10287688213E+02  0.50528783494E+02  0.29999767909E+02 0.  0.
        -12    1    1    2    0    0 -0.25433419319E+02  0.30007941279E+02  0.10287688213E+02  0.40659216506E+02  0.00000000000E+00 0.  1.
         11    1    3    3    0    0  0.80355243974E+01  0.82046820101E+00  0.64017172366E+01  0.10306541818E+02  0.51100000000E-03 0. -1.
        -11    1    3    3    0    0  0.11044961438E+02 -0.15175704429E+02 -0.42529114402E+01  0.19245270433E+02  0.51100000000E-03 0.  1.
         12    1    3    3    0    0  0.63529334842E+01 -0.15652705051E+02 -0.12436494010E+02  0.20976971243E+02  0.00000000000E+00 0. -1.
</event>
<event>
 7    1  0.5019004E-011  0.5052886E+02  0.7816164E-02  0.1300439E+00
        -11   -1    0    0    0    0  0.00000000000E+00  0.00000000000E+00  0.45593999997E+02  0.45594000000E+02  0.51100000000E-03 0.  1.
         11   -1    0    0    0    0 -0.00000000000E+00 -0.00000000000E+00 -0.45593999997E+02  0.45594000000E+02  0.51100000000E-03 0. -1.
    9900012    2    1    2    0    0 -0.17143082085E+01 -0.33554295928E+02 -0.22898388456E+02  0.50528858079E+02  0.29999994617E+02 0.  0.
        -12    1    1    2    0    0  0.17143082085E+01  0.33554295928E+02  0.22898388456E+02  0.40659141921E+02  0.00000000000E+00 0.  1.
         11    1    3    3    0    0 -0.10720377884E+02 -0.27890582015E+02 -0.14225591710E+02  0.33093481637E+02  0.51100000000E-03 0. -1.
        -11    1    3    3    0    0  0.71018641313E+01  0.18373245070E+01 -0.49338261211E+01  0.88405246415E+01  0.51100000000E-03 0.  1.
         12    1    3    3    0    0  0.19042055440E+01 -0.75010384203E+01 -0.37389706252E+01  0.85948518005E+01  0.00000000000E+00 0. -1.
</event>
<event>
 7    1  0.5019004E-011  0.5052886E+02  0.7816164E-02  0.1300439E+00
        -11   -1    0    0    0    0  0.00000000000E+00  0.00000000000E+00  0.45593999997E+02  0.45594000000E+02  0.51100000000E-03 0.  1.
         11   -1    0    0    0    0 -0.00000000000E+00 -0.00000000000E+00 -0.45593999997E+02  0.45594000000E+02  0.51100000000E-03 0. -1.
    9900012    2    1    2    0    0  0.31737083652E+02 -0.25409999862E+02  0.50523621584E+00  0.50528857911E+02  0.29999994107E+02 0.  0.
        -12    1    1    2    0    0 -0.31737083652E+02  0.25409999862E+02 -0.50523621584E+00  0.40659142089E+02  0.00000000000E+00 0.  1.
         11    1    3    3    0    0  0.18651451111E+02 -0.19423953433E+02 -0.12727020864E+02  0.29784956871E+02  0.51100000000E-03 0. -1.
        -11    1    3    3    0    0  0.29145120992E+01  0.15637587323E+01  0.26440729352E+01  0.42344827425E+01  0.51100000000E-03 0.  1.
        -12    1    3    3    0    0  0.10171120443E+02 -0.75498051617E+01  0.10588184145E+02  0.16509418297E+02  0.00000000000E+00 0.  1.
</event>
<event>
 7    1  0.5019004E-011  0.5052887E+02  0.7816164E-02  0.1300439E+00
        -11   -1    0    0    0    0  0.00000000000E+00  0.00000000000E+00  0.45593999997E+02  0.45594000000E+02  0.51100000000E-03 0.  1.
         11   -1    0    0    0    0 -0.00000000000E+00 -0.00000000000E+00 -0.45593999997E+02  0.45594000000E+02  0.51100000000E-03 0. -1.
    9900012    2    1    2    0    0  0.25349142905E+02  0.19261028976E+01 -0.31731304776E+02  0.50528872843E+02  0.30000039495E+02 0.  0.
        -12    1    1    2    0    0 -0.25349142905E+02 -0.19261028976E+01  0.31731304776E+02  0.40659127157E+02  0.00000000000E+00 0.  1.
         11    1    3    3    0    0  0.10708481519E+02 -0.48502116630E+01 -0.13699869459E+02  0.18052217400E+02  0.51100000000E-03 0. -1.
        -11    1    3    3    0    0  0.69397941163E+01  0.11527005474E+02 -0.13797761428E+01  0.13525397593E+02  0.51100000000E-03 0.  1.
        -12    1    3    3    0    0  0.77008672697E+01 -0.47506909137E+01 -0.16651659174E+02  0.18951257850E+02  0.00000000000E+00 0.  1.
</event>
<event>
 7    1  0.5019004E-011  0.5052886E+02  0.7816164E-02  0.1300439E+00
        -11   -1    0    0    0    0  0.00000000000E+00  0.00000000000E+00  0.45593999997E+02  0.45594000000E+02  0.51100000000E-03 0.  1.
         11   -1    0    0    0    0 -0.00000000000E+00 -0.00000000000E+00 -0.45593999997E+02  0.45594000000E+02  0.51100000000E-03 0. -1.
    9900012    2    1    2    0    0  0.34519705799E+02  0.54770739671E+01 -0.20773958129E+02  0.50528858789E+02  0.29999996776E+02 0.  0.
        -12    1    1    2    0    0 -0.34519705799E+02 -0.54770739671E+01  0.20773958129E+02  0.40659141211E+02  0.00000000000E+00 0.  1.
         11    1    3    3    0    0  0.45231141750E+01 -0.65283123177E+01 -0.74307232247E+01  0.10876261833E+02  0.51100000000E-03 0. -1.
        -11    1    3    3    0    0  0.12609299331E+02  0.13885937403E+02 -0.21286485215E+01  0.18877098081E+02  0.51100000000E-03 0.  1.
        -12    1    3    3    0    0  0.17387292293E+02 -0.18805511181E+01 -0.11214586383E+02  0.20775498875E+02  0.00000000000E+00 0.  1.
</event>
<event>
 7    1  0.5019004E-011  0.5052887E+02  0.7816164E-02  0.1300439E+00
        -11   -1    0    0    0    0  0.00000000000E+00  0.00000000000E+00  0.45593999997E+02  0.45594000000E+02  0.51100000000E-03 0.  1.
         11   -1    0    0    0    0 -0.00000000000E+00 -0.00000000000E+00 -0.45593999997E+02  0.45594000000E+02  0.51100000000E-03 0. -1.
    9900012    2    1    2    0    0 -0.23953826561E+02  0.23188677178E+02 -0.23273684550E+02  0.50528868814E+02  0.30000027248E+02 0.  0.
        -12    1    1    2    0    0  0.23953826561E+02 -0.23188677178E+02  0.23273684550E+02  0.40659131186E+02  0.00000000000E+00 0.  1.
         11    1    3    3    0    0 -0.10546070494E+02  0.84466518388E+01  0.30330202262E+01  0.13847914720E+02  0.51100000000E-03 0. -1.
        -11    1    3    3    0    0  0.22145317281E+01  0.61996925365E+01 -0.27075882894E+01  0.71183827466E+01  0.51100000000E-03 0.  1.
         12    1    3    3    0    0 -0.15622287796E+02  0.85423328032E+01 -0.23599116487E+02  0.29562571347E+02  0.00000000000E+00 0. -1.
</event>
<event>
 7    1  0.5019004E-011  0.5052886E+02  0.7816164E-02  0.1300439E+00
        -11   -1    0    0    0    0  0.00000000000E+00  0.00000000000E+00  0.45593999997E+02  0.45594000000E+02  0.51100000000E-03 0.  1.
         11   -1    0    0    0    0 -0.00000000000E+00 -0.00000000000E+00 -0.45593999997E+02  0.45594000000E+02  0.51100000000E-03 0. -1.
    9900012    2    1    2    0    0  0.15983944198E+01 -0.37236858264E+02 -0.16248920952E+02  0.50528856992E+02  0.29999991311E+02 0.  0.
        -12    1    1    2    0    0 -0.15983944198E+01  0.37236858264E+02  0.16248920952E+02  0.40659143008E+02  0.00000000000E+00 0.  1.
         11    1    3    3    0    0 -0.20695490390E+01 -0.16264162660E+02 -0.12848162306E+02  0.20829817454E+02  0.51100000000E-03 0. -1.
        -11    1    3    3    0    0 -0.49872345670E+01 -0.11432164071E+02  0.59128548989E+01  0.13803214745E+02  0.51100000000E-03 0.  1.
        -12    1    3    3    0    0  0.86551780257E+01 -0.95405315331E+01 -0.93136135448E+01  0.15895824793E+02  0.00000000000E+00 0.  1.
</event>
<event>
 7    1  0.5019004E-011  0.5052885E+02  0.7816164E-02  0.1300439E+00
        -11   -1    0    0    0    0  0.00000000000E+00  0.00000000000E+00  0.45593999997E+02  0.45594000000E+02  0.51100000000E-03 0.  1.
         11   -1    0    0    0    0 -0.00000000000E+00 -0.00000000000E+00 -0.45593999997E+02  0.45594000000E+02  0.51100000000E-03 0. -1.
    9900012    2    1    2    0    0  0.37915415150E+01 -0.34395572326E+01 -0.40335589160E+02  0.50528854733E+02  0.29999984445E+02 0.  0.
        -12    1    1    2    0    0 -0.37915415150E+01  0.34395572326E+01  0.40335589160E+02  0.40659145267E+02  0.00000000000E+00 0.  1.
         11    1    3    3    0    0  0.26061427385E+00 -0.12853577739E+01 -0.41720971308E+01  0.43733807445E+01  0.51100000000E-03 0. -1.
        -11    1    3    3    0    0  0.13265283188E+02  0.68708845126E+00 -0.32936070307E+02  0.35513723490E+02  0.51100000000E-03 0.  1.
        -12    1    3    3    0    0 -0.97343559467E+01 -0.28412879100E+01 -0.32274217215E+01  0.10641750498E+02  0.00000000000E+00 0.  1.
</event>
<event>
 7    1  0.5019004E-011  0.5052887E+02  0.7816164E-02  0.1300439E+00
        -11   -1    0    0    0    0  0.00000000000E+00  0.00000000000E+00  0.45593999997E+02  0.45594000000E+02  0.51100000000E-03 0. -1.
         11   -1    0    0    0    0 -0.00000000000E+00 -0.00000000000E+00 -0.45593999997E+02  0.45594000000E+02  0.51100000000E-03 0.  1.
    9900012    2    1    2    0    0 -0.46912528904E+01 -0.24765819275E+02  0.31903150413E+02  0.50528872312E+02  0.30000037880E+02 0.  0.
        -12    1    1    2    0    0  0.46912528904E+01  0.24765819275E+02 -0.31903150413E+02  0.40659127688E+02  0.00000000000E+00 0.  1.
         11    1    3    3    0    0 -0.10838588583E+02 -0.73687970791E+01  0.96289916265E+01  0.16263199343E+02  0.51100000000E-03 0. -1.
        -11    1    3    3    0    0  0.58112357550E+01 -0.11927638340E+02  0.24880942298E+02  0.28197523070E+02  0.51100000000E-03 0.  1.
         12    1    3    3    0    0  0.33609993736E+00 -0.54693838560E+01 -0.26067835110E+01  0.60681498998E+01  0.00000000000E+00 0. -1.
</event>
<event>
 7    1  0.5019004E-011  0.5052885E+02  0.7816164E-02  0.1300439E+00
        -11   -1    0    0    0    0  0.00000000000E+00  0.00000000000E+00  0.45593999997E+02  0.45594000000E+02  0.51100000000E-03 0.  1.
         11   -1    0    0    0    0 -0.00000000000E+00 -0.00000000000E+00 -0.45593999997E+02  0.45594000000E+02  0.51100000000E-03 0. -1.
    9900012    2    1    2    0    0 -0.10198854888E+02  0.13610059074E+02 -0.36931234325E+02  0.50528850750E+02  0.29999972339E+02 0.  0.
        -12    1    1    2    0    0  0.10198854888E+02 -0.13610059074E+02  0.36931234325E+02  0.40659149250E+02  0.00000000000E+00 0.  1.
         11    1    3    3    0    0 -0.11566752889E+02  0.17360906682E+02 -0.25672049466E+02  0.33079373894E+02  0.51100000000E-03 0. -1.
        -11    1    3    3    0    0 -0.37557570534E+01 -0.41144424782E+00  0.85973311259E+00  0.38748082145E+01  0.51100000000E-03 0.  1.
         12    1    3    3    0    0  0.51236550546E+01 -0.33394033602E+01 -0.12118917972E+02  0.13574668641E+02  0.00000000000E+00 0. -1.
</event>
<event>
 7    1  0.5019004E-011  0.5052886E+02  0.7816164E-02  0.1300439E+00
        -11   -1    0    0    0    0  0.00000000000E+00  0.00000000000E+00  0.45593999997E+02  0.45594000000E+02  0.51100000000E-03 0. -1.
         11   -1    0    0    0    0 -0.00000000000E+00 -0.00000000000E+00 -0.45593999997E+02  0.45594000000E+02  0.51100000000E-03 0.  1.
    9900012    2    1    2    0    0  0.39526640046E+02  0.84249283244E+01 -0.44532211084E+01  0.50528857500E+02  0.29999992857E+02 0.  0.
        -12    1    1    2    0    0 -0.39526640046E+02 -0.84249283244E+01  0.44532211084E+01  0.40659142500E+02  0.00000000000E+00 0.  1.
         11    1    3    3    0    0  0.14332893419E+02  0.43367530381E+01  0.91403267014E+01  0.17543797569E+02  0.51100000000E-03 0. -1.
        -11    1    3    3    0    0  0.26613965527E+02  0.97588205645E+00 -0.11964490293E+02  0.29195967788E+02  0.51100000000E-03 0.  1.
        -12    1    3    3    0    0 -0.14202188999E+01  0.31122932299E+01 -0.16290575163E+01  0.37890921424E+01  0.00000000000E+00 0.  1.
</event>
<event>
 7    1  0.5019004E-011  0.5052883E+02  0.7816164E-02  0.1300439E+00
        -11   -1    0    0    0    0  0.00000000000E+00  0.00000000000E+00  0.45593999997E+02  0.45594000000E+02  0.51100000000E-03 0. -1.
         11   -1    0    0    0    0 -0.00000000000E+00 -0.00000000000E+00 -0.45593999997E+02  0.45594000000E+02  0.51100000000E-03 0.  1.
    9900012    2    1    2    0    0 -0.20143582850E+01  0.36856432847E+01  0.40441641731E+02  0.50528831396E+02  0.29999913510E+02 0.  0.
        -12    1    1    2    0    0  0.20143582850E+01 -0.36856432847E+01 -0.40441641731E+02  0.40659168604E+02  0.00000000000E+00 0.  1.
         11    1    3    3    0    0 -0.56265761651E+01 -0.79695607820E+01  0.35036065084E+02  0.36368916883E+02  0.51100000000E-03 0. -1.
        -11    1    3    3    0    0  0.37912701797E+01  0.66564930546E+01  0.49865506884E+01  0.91404768688E+01  0.51100000000E-03 0.  1.
         12    1    3    3    0    0 -0.17905229948E+00  0.49987110121E+01  0.41902595823E+00  0.50194376440E+01  0.00000000000E+00 0. -1.
</event>
<event>
 7    1  0.5019004E-011  0.5052886E+02  0.7816164E-02  0.1300439E+00
        -11   -1    0    0    0    0  0.00000000000E+00  0.00000000000E+00  0.45593999997E+02  0.45594000000E+02  0.51100000000E-03 0.  1.
         11   -1    0    0    0    0 -0.00000000000E+00 -0.00000000000E+00 -0.45593999997E+02  0.45594000000E+02  0.51100000000E-03 0. -1.
    9900012    2    1    2    0    0 -0.20526858735E+01  0.38627944348E+02 -0.12523336390E+02  0.50528861320E+02  0.30000004468E+02 0.  0.
        -12    1    1    2    0    0  0.20526858735E+01 -0.38627944348E+02  0.12523336390E+02  0.40659138680E+02  0.00000000000E+00 0.  1.
         11    1    3    3    0    0 -0.13370335087E+02  0.83092349785E+01 -0.68667175061E+01  0.17174430291E+02  0.51100000000E-03 0. -1.
        -11    1    3    3    0    0  0.93006033287E+01  0.20315331639E+02 -0.60313665652E+01  0.23142845650E+02  0.51100000000E-03 0.  1.
         12    1    3    3    0    0  0.20170458845E+01  0.10003377731E+02  0.37474768086E+00  0.10211585379E+02  0.00000000000E+00 0. -1.
</event>
<event>
 7    1  0.5019004E-011  0.5052886E+02  0.7816164E-02  0.1300439E+00
        -11   -1    0    0    0    0  0.00000000000E+00  0.00000000000E+00  0.45593999997E+02  0.45594000000E+02  0.51100000000E-03 0.  1.
         11   -1    0    0    0    0 -0.00000000000E+00 -0.00000000000E+00 -0.45593999997E+02  0.45594000000E+02  0.51100000000E-03 0. -1.
    9900012    2    1    2    0    0  0.34540419636E+02 -0.19090978009E+02 -0.97805765073E+01  0.50528859493E+02  0.29999998916E+02 0.  0.
        -12    1    1    2    0    0 -0.34540419636E+02  0.19090978009E+02  0.97805765073E+01  0.40659140507E+02  0.00000000000E+00 0.  1.
         11    1    3    3    0    0  0.34142961668E+02 -0.14906982379E+02 -0.15239153731E+02  0.40251605705E+02  0.51100000000E-03 0. -1.
        -11    1    3    3    0    0  0.48293127025E-01 -0.48283277167E+01  0.70385508084E+01  0.85355889375E+01  0.51100000000E-03 0.  1.
        -12    1    3    3    0    0  0.34916484025E+00  0.64433208698E+00 -0.15799735849E+01  0.17416648509E+01  0.00000000000E+00 0.  1.
</event>
<event>
 7    1  0.5019004E-011  0.5052887E+02  0.7816164E-02  0.1300439E+00
        -11   -1    0    0    0    0  0.00000000000E+00  0.00000000000E+00  0.45593999997E+02  0.45594000000E+02  0.51100000000E-03 0.  1.
         11   -1    0    0    0    0 -0.00000000000E+00 -0.00000000000E+00 -0.45593999997E+02  0.45594000000E+02  0.51100000000E-03 0. -1.
    9900012    2    1    2    0    0  0.26068411763E+02 -0.31256385580E+01 -0.31045663037E+02  0.50528869394E+02  0.30000029009E+02 0.  0.
        -12    1    1    2    0    0 -0.26068411763E+02  0.31256385580E+01  0.31045663037E+02  0.40659130606E+02  0.00000000000E+00 0.  1.
         11    1    3    3    0    0  0.30930957945E+01  0.26839231588E+01 -0.22723693987E+02  0.23089758634E+02  0.51100000000E-03 0. -1.
        -11    1    3    3    0    0  0.12494432533E+02 -0.80089656509E+01 -0.76808462436E+01  0.16710768217E+02  0.51100000000E-03 0.  1.
         12    1    3    3    0    0  0.10480883436E+02  0.21994039340E+01 -0.64112280682E+00  0.10728342543E+02  0.00000000000E+00 0. -1.
</event>
<event>
 7    1  0.5019004E-011  0.5052892E+02  0.7816164E-02  0.1300439E+00
        -11   -1    0    0    0    0  0.00000000000E+00  0.00000000000E+00  0.45593999997E+02  0.45594000000E+02  0.51100000000E-03 0.  1.
         11   -1    0    0    0    0 -0.00000000000E+00 -0.00000000000E+00 -0.45593999997E+02  0.45594000000E+02  0.51100000000E-03 0. -1.
    9900012    2    1    2    0    0 -0.35291632892E+02 -0.13698580010E+02 -0.14832748411E+02  0.50528918949E+02  0.30000179637E+02 0.  0.
        -12    1    1    2    0    0  0.35291632892E+02  0.13698580010E+02  0.14832748411E+02  0.40659081051E+02  0.00000000000E+00 0.  1.
         11    1    3    3    0    0 -0.18534014426E+02 -0.97493359062E+01 -0.59605485619E+01  0.21773547730E+02  0.51100000000E-03 0. -1.
        -11    1    3    3    0    0 -0.42994703362E+01  0.82533213258E+01 -0.60239428719E+01  0.11085605354E+02  0.51100000000E-03 0.  1.
        -12    1    3    3    0    0 -0.12458148130E+02 -0.12202565430E+02 -0.28482569773E+01  0.17669765865E+02  0.00000000000E+00 0.  1.
</event>
<event>
 7    1  0.5019004E-011  0.5052886E+02  0.7816164E-02  0.1300439E+00
        -11   -1    0    0    0    0  0.00000000000E+00  0.00000000000E+00  0.45593999997E+02  0.45594000000E+02  0.51100000000E-03 0.  1.
         11   -1    0    0    0    0 -0.00000000000E+00 -0.00000000000E+00 -0.45593999997E+02  0.45594000000E+02  0.51100000000E-03 0. -1.
    9900012    2    1    2    0    0 -0.17055034004E+02 -0.34734621896E+02 -0.12481884470E+02  0.50528861015E+02  0.30000003540E+02 0.  0.
        -12    1    1    2    0    0  0.17055034004E+02  0.34734621896E+02  0.12481884470E+02  0.40659138985E+02  0.00000000000E+00 0.  1.
         11    1    3    3    0    0 -0.10081568830E+02 -0.26358513905E+02 -0.13896800544E+02  0.31456801347E+02  0.51100000000E-03 0. -1.
        -11    1    3    3    0    0 -0.11852450312E+02 -0.55966255251E+01  0.25246713379E+01  0.13348286830E+02  0.51100000000E-03 0.  1.
        -12    1    3    3    0    0  0.48789851381E+01 -0.27794824657E+01 -0.11097552633E+01  0.57237728379E+01  0.00000000000E+00 0.  1.
</event>
<event>
 7    1  0.5019004E-011  0.5052881E+02  0.7816164E-02  0.1300439E+00
        -11   -1    0    0    0    0  0.00000000000E+00  0.00000000000E+00  0.45593999997E+02  0.45594000000E+02  0.51100000000E-03 0.  1.
         11   -1    0    0    0    0 -0.00000000000E+00 -0.00000000000E+00 -0.45593999997E+02  0.45594000000E+02  0.51100000000E-03 0. -1.
    9900012    2    1    2    0    0 -0.37790070196E+02  0.56355691734E+01 -0.13903967847E+02  0.50528814479E+02  0.29999862089E+02 0.  0.
        -12    1    1    2    0    0  0.37790070196E+02 -0.56355691734E+01  0.13903967847E+02  0.40659185521E+02  0.00000000000E+00 0.  1.
         11    1    3    3    0    0 -0.92006843047E+01  0.77224126736E-01  0.10748991356E+01  0.92635826576E+01  0.51100000000E-03 0. -1.
        -11    1    3    3    0    0 -0.24723161878E+02 -0.29840925873E+01 -0.18736184659E+02  0.31163827712E+02  0.51100000000E-03 0.  1.
        -12    1    3    3    0    0 -0.38662240133E+01  0.85424376340E+01  0.37573176764E+01  0.10101404109E+02  0.00000000000E+00 0.  1.
</event>
<event>
 7    1  0.5019004E-011  0.5052886E+02  0.7816164E-02  0.1300439E+00
        -11   -1    0    0    0    0  0.00000000000E+00  0.00000000000E+00  0.45593999997E+02  0.45594000000E+02  0.51100000000E-03 0.  1.
         11   -1    0    0    0    0 -0.00000000000E+00 -0.00000000000E+00 -0.45593999997E+02  0.45594000000E+02  0.51100000000E-03 0. -1.
    9900012    2    1    2    0    0 -0.77973338427E+01  0.26401001091E+02 -0.29922477245E+02  0.50528856893E+02  0.29999991013E+02 0.  0.
        -12    1    1    2    0    0  0.77973338427E+01 -0.26401001091E+02  0.29922477245E+02  0.40659143107E+02  0.00000000000E+00 0.  1.
         11    1    3    3    0    0  0.58403597283E+01  0.16642585897E+02 -0.15254036465E+02  0.23318899970E+02  0.51100000000E-03 0. -1.
        -11    1    3    3    0    0 -0.98365494760E+01  0.10235980347E+02 -0.17435609807E+02  0.22484071892E+02  0.51100000000E-03 0.  1.
         12    1    3    3    0    0 -0.38011440949E+01 -0.47756515283E+00  0.27671690263E+01  0.47258850309E+01  0.00000000000E+00 0. -1.
</event>
<event>
 7    1  0.5019004E-011  0.5052887E+02  0.7816164E-02  0.1300439E+00
        -11   -1    0    0    0    0  0.00000000000E+00  0.00000000000E+00  0.45593999997E+02  0.45594000000E+02  0.51100000000E-03 0.  1.
         11   -1    0    0    0    0 -0.00000000000E+00 -0.00000000000E+00 -0.45593999997E+02  0.45594000000E+02  0.51100000000E-03 0. -1.
    9900012    2    1    2    0    0  0.44859439485E+01 -0.32898471163E+02 -0.23467668541E+02  0.50528873537E+02  0.30000041604E+02 0.  0.
        -12    1    1    2    0    0 -0.44859439485E+01  0.32898471163E+02  0.23467668541E+02  0.40659126463E+02  0.00000000000E+00 0.  1.
         11    1    3    3    0    0  0.91206670817E+01 -0.41286262273E+01 -0.11486813836E+02  0.15237421531E+02  0.51100000000E-03 0.  1.
        -11    1    3    3    0    0 -0.10617444734E+01 -0.22786266707E+02 -0.17041914084E+01  0.22874560551E+02  0.51100000000E-03 0. -1.
         12    1    3    3    0    0 -0.35729786598E+01 -0.59835782284E+01 -0.10276663296E+02  0.12416891455E+02  0.00000000000E+00 0. -1.
</event>
<event>
 7    1  0.5019004E-011  0.5052888E+02  0.7816164E-02  0.1300439E+00
        -11   -1    0    0    0    0  0.00000000000E+00  0.00000000000E+00  0.45593999997E+02  0.45594000000E+02  0.51100000000E-03 0.  1.
         11   -1    0    0    0    0 -0.00000000000E+00 -0.00000000000E+00 -0.45593999997E+02  0.45594000000E+02  0.51100000000E-03 0. -1.
    9900012    2    1    2    0    0 -0.37834386817E+02  0.14884669486E+02 -0.41186453225E+00  0.50528882402E+02  0.30000068548E+02 0.  0.
        -12    1    1    2    0    0  0.37834386817E+02 -0.14884669486E+02  0.41186453225E+00  0.40659117598E+02  0.00000000000E+00 0.  1.
         11    1    3    3    0    0  0.10709642748E+01  0.35621398572E+01  0.45417349209E+01  0.58705332972E+01  0.51100000000E-03 0.  1.
        -11    1    3    3    0    0 -0.34749056092E+02  0.13828378090E+02  0.44079068150E+00  0.37402075298E+02  0.51100000000E-03 0. -1.
        -12    1    3    3    0    0 -0.41562949995E+01 -0.25058484615E+01 -0.53943901347E+01  0.72562738069E+01  0.00000000000E+00 0.  1.
</event>
<event>
 7    1  0.5019004E-011  0.5052883E+02  0.7816164E-02  0.1300439E+00
        -11   -1    0    0    0    0  0.00000000000E+00  0.00000000000E+00  0.45593999997E+02  0.45594000000E+02  0.51100000000E-03 0.  1.
         11   -1    0    0    0    0 -0.00000000000E+00 -0.00000000000E+00 -0.45593999997E+02  0.45594000000E+02  0.51100000000E-03 0. -1.
    9900012    2    1    2    0    0  0.40598563392E+02 -0.18312577418E+01 -0.12535116095E+01  0.50528829499E+02  0.29999907746E+02 0.  0.
        -12    1    1    2    0    0 -0.40598563392E+02  0.18312577418E+01  0.12535116095E+01  0.40659170501E+02  0.00000000000E+00 0.  1.
         11    1    3    3    0    0  0.31999708724E+02 -0.75476800580E+01  0.23380211744E+01  0.32960812732E+02  0.51100000000E-03 0. -1.
        -11    1    3    3    0    0  0.37375260972E+01  0.45956828586E+01  0.49211998395E+01  0.77011434466E+01  0.51100000000E-03 0.  1.
         12    1    3    3    0    0  0.48613285707E+01  0.11207394577E+01 -0.85127326234E+01  0.98668733205E+01  0.00000000000E+00 0. -1.
</event>
<event>
 7    1  0.5019004E-011  0.5052885E+02  0.7816164E-02  0.1300439E+00
        -11   -1    0    0    0    0  0.00000000000E+00  0.00000000000E+00  0.45593999997E+02  0.45594000000E+02  0.51100000000E-03 0. -1.
         11   -1    0    0    0    0 -0.00000000000E+00 -0.00000000000E+00 -0.45593999997E+02  0.45594000000E+02  0.51100000000E-03 0.  1.
    9900012    2    1    2    0    0  0.39617060986E+02  0.43081960593E+01  0.80681268784E+01  0.50528846715E+02  0.29999960076E+02 0.  0.
        -12    1    1    2    0    0 -0.39617060986E+02 -0.43081960593E+01 -0.80681268784E+01  0.40659153285E+02  0.00000000000E+00 0.  1.
         11    1    3    3    0    0  0.23512689503E+02  0.12799862523E+02  0.37924215265E+01  0.27038223122E+02  0.51100000000E-03 0. -1.
        -11    1    3    3    0    0  0.12324004436E+02 -0.10119552715E+02 -0.19103514649E+01  0.16060382171E+02  0.51100000000E-03 0.  1.
         12    1    3    3    0    0  0.37803670470E+01  0.16278862515E+01  0.61860568168E+01  0.74302414227E+01  0.00000000000E+00 0. -1.
</event>
<event>
 7    1  0.5019004E-011  0.5052886E+02  0.7816164E-02  0.1300439E+00
        -11   -1    0    0    0    0  0.00000000000E+00  0.00000000000E+00  0.45593999997E+02  0.45594000000E+02  0.51100000000E-03 0. -1.
         11   -1    0    0    0    0 -0.00000000000E+00 -0.00000000000E+00 -0.45593999997E+02  0.45594000000E+02  0.51100000000E-03 0.  1.
    9900012    2    1    2    0    0  0.38172563859E+02  0.20071659113E+01  0.13856133819E+02  0.50528858458E+02  0.29999995768E+02 0.  0.
        -12    1    1    2    0    0 -0.38172563859E+02 -0.20071659113E+01 -0.13856133819E+02  0.40659141542E+02  0.00000000000E+00 0.  1.
         11    1    3    3    0    0 -0.31093745574E+01  0.42243558089E+01  0.24580335947E+01  0.57926955342E+01  0.51100000000E-03 0. -1.
        -11    1    3    3    0    0  0.23366414160E+00 -0.21433144820E+01  0.10775074309E+01  0.24102735165E+01  0.51100000000E-03 0.  1.
         12    1    3    3    0    0  0.41048274274E+02 -0.73875415633E-01  0.10320592794E+02  0.42325889407E+02  0.00000000000E+00 0. -1.
</event>
<event>
 7    1  0.5019004E-011  0.5052887E+02  0.7816164E-02  0.1300439E+00
        -11   -1    0    0    0    0  0.00000000000E+00  0.00000000000E+00  0.45593999997E+02  0.45594000000E+02  0.51100000000E-03 0. -1.
         11   -1    0    0    0    0 -0.00000000000E+00 -0.00000000000E+00 -0.45593999997E+02  0.45594000000E+02  0.51100000000E-03 0.  1.
    9900012    2    1    2    0    0  0.20203840415E+02  0.33189539515E+02  0.11975976048E+02  0.50528871836E+02  0.30000036433E+02 0.  0.
        -12    1    1    2    0    0 -0.20203840415E+02 -0.33189539515E+02 -0.11975976048E+02  0.40659128164E+02  0.00000000000E+00 0.  1.
         11    1    3    3    0    0  0.14069069131E+02  0.26637072107E+02 -0.41915767229E+01  0.30414497076E+02  0.51100000000E-03 0. -1.
        -11    1    3    3    0    0 -0.10451358707E+01 -0.69664720596E+00  0.37173334845E+00  0.13098901715E+01  0.51100000000E-03 0.  1.
         12    1    3    3    0    0  0.71799071539E+01  0.72491146138E+01  0.15795819423E+02  0.18804484589E+02  0.00000000000E+00 0. -1.
</event>
<event>
 7    1  0.5019004E-011  0.5052883E+02  0.7816164E-02  0.1300439E+00
        -11   -1    0    0    0    0  0.00000000000E+00  0.00000000000E+00  0.45593999997E+02  0.45594000000E+02  0.51100000000E-03 0. -1.
         11   -1    0    0    0    0 -0.00000000000E+00 -0.00000000000E+00 -0.45593999997E+02  0.45594000000E+02  0.51100000000E-03 0.  1.
    9900012    2    1    2    0    0 -0.10004148536E+01  0.40553284894E+02  0.27564554327E+01  0.50528833849E+02  0.29999920967E+02 0.  0.
        -12    1    1    2    0    0  0.10004148536E+01 -0.40553284894E+02 -0.27564554327E+01  0.40659166151E+02  0.00000000000E+00 0.  1.
         11    1    3    3    0    0 -0.60479050796E+01  0.60720485533E+01  0.29567287705E+01  0.90658245499E+01  0.51100000000E-03 0. -1.
        -11    1    3    3    0    0  0.67337030776E+01  0.16519721481E+00 -0.20931548217E+01  0.70534633072E+01  0.51100000000E-03 0.  1.
        -12    1    3    3    0    0 -0.16862128516E+01  0.34316039126E+02  0.18928814839E+01  0.34409545992E+02  0.00000000000E+00 0.  1.
</event>
<event>
 7    1  0.5019004E-011  0.5052886E+02  0.7816164E-02  0.1300439E+00
        -11   -1    0    0    0    0  0.00000000000E+00  0.00000000000E+00  0.45593999997E+02  0.45594000000E+02  0.51100000000E-03 0.  1.
         11   -1    0    0    0    0 -0.00000000000E+00 -0.00000000000E+00 -0.45593999997E+02  0.45594000000E+02  0.51100000000E-03 0. -1.
    9900012    2    1    2    0    0  0.28331132238E+01  0.24972968081E+02 -0.31960757068E+02  0.50528860096E+02  0.30000000749E+02 0.  0.
        -12    1    1    2    0    0 -0.28331132238E+01 -0.24972968081E+02  0.31960757068E+02  0.40659139904E+02  0.00000000000E+00 0.  1.
         11    1    3    3    0    0  0.38700613464E+01  0.92541651850E+01 -0.56529917641E+01  0.11514046389E+02  0.51100000000E-03 0. -1.
        -11    1    3    3    0    0 -0.67566941475E+01 -0.29959966898E+01 -0.14184197228E+02  0.15994385366E+02  0.51100000000E-03 0.  1.
        -12    1    3    3    0    0  0.57197460250E+01  0.18714799586E+02 -0.12123568076E+02  0.23020428341E+02  0.00000000000E+00 0.  1.
</event>
<event>
 7    1  0.5019004E-011  0.5052883E+02  0.7816164E-02  0.1300439E+00
        -11   -1    0    0    0    0  0.00000000000E+00  0.00000000000E+00  0.45593999997E+02  0.45594000000E+02  0.51100000000E-03 0.  1.
         11   -1    0    0    0    0 -0.00000000000E+00 -0.00000000000E+00 -0.45593999997E+02  0.45594000000E+02  0.51100000000E-03 0. -1.
    9900012    2    1    2    0    0 -0.36861002459E+02 -0.11734362595E+02 -0.12519562326E+02  0.50528828727E+02  0.29999905398E+02 0.  0.
        -12    1    1    2    0    0  0.36861002459E+02  0.11734362595E+02  0.12519562326E+02  0.40659171273E+02  0.00000000000E+00 0.  1.
         11    1    3    3    0    0 -0.37648296300E+02 -0.17977732264E+02 -0.13466818318E+02  0.43840030423E+02  0.51100000000E-03 0. -1.
        -11    1    3    3    0    0  0.12279855145E+01  0.30652114022E+01 -0.12893757138E+00  0.33045566302E+01  0.51100000000E-03 0.  1.
         12    1    3    3    0    0 -0.44069167341E+00  0.31781582667E+01  0.10761935629E+01  0.33842416734E+01  0.00000000000E+00 0. -1.
</event>
<event>
 7    1  0.5019004E-011  0.5052889E+02  0.7816164E-02  0.1300439E+00
        -11   -1    0    0    0    0  0.00000000000E+00  0.00000000000E+00  0.45593999997E+02  0.45594000000E+02  0.51100000000E-03 0.  1.
         11   -1    0    0    0    0 -0.00000000000E+00 -0.00000000000E+00 -0.45593999997E+02  0.45594000000E+02  0.51100000000E-03 0. -1.
    9900012    2    1    2    0    0 -0.96500843121E+01 -0.82817486351E+01 -0.38619322725E+02  0.50528885703E+02  0.30000078582E+02 0.  0.
        -12    1    1    2    0    0  0.96500843121E+01  0.82817486351E+01  0.38619322725E+02  0.40659114297E+02  0.00000000000E+00 0.  1.
         11    1    3    3    0    0 -0.10588069993E+02 -0.91420396715E+01 -0.17564568143E+02  0.22454357480E+02  0.51100000000E-03 0. -1.
        -11    1    3    3    0    0  0.19861656048E+01  0.95304383591E+01 -0.12561952452E+02  0.15892663678E+02  0.51100000000E-03 0.  1.
        -12    1    3    3    0    0 -0.10481799235E+01 -0.86701473227E+01 -0.84928021305E+01  0.12181864544E+02  0.00000000000E+00 0.  1.
</event>
<event>
 7    1  0.5019004E-011  0.5052886E+02  0.7816164E-02  0.1300439E+00
        -11   -1    0    0    0    0  0.00000000000E+00  0.00000000000E+00  0.45593999997E+02  0.45594000000E+02  0.51100000000E-03 0.  1.
         11   -1    0    0    0    0 -0.00000000000E+00 -0.00000000000E+00 -0.45593999997E+02  0.45594000000E+02  0.51100000000E-03 0. -1.
    9900012    2    1    2    0    0  0.41217221159E+01 -0.39005921698E+02 -0.10710515781E+02  0.50528859957E+02  0.30000000325E+02 0.  0.
        -12    1    1    2    0    0 -0.41217221159E+01  0.39005921698E+02  0.10710515781E+02  0.40659140043E+02  0.00000000000E+00 0.  1.
         11    1    3    3    0    0  0.21596707475E+00 -0.12638203486E+01 -0.69434085802E+00  0.14580785778E+01  0.51100000000E-03 0. -1.
        -11    1    3    3    0    0 -0.68250433208E+01  0.17183514149E+01 -0.26428402589E+01  0.75178822026E+01  0.51100000000E-03 0.  1.
        -12    1    3    3    0    0  0.10730798362E+02 -0.39460452765E+02 -0.73733346645E+01  0.41552899176E+02  0.00000000000E+00 0.  1.
</event>
<event>
 7    1  0.5019004E-011  0.5052888E+02  0.7816164E-02  0.1300439E+00
        -11   -1    0    0    0    0  0.00000000000E+00  0.00000000000E+00  0.45593999997E+02  0.45594000000E+02  0.51100000000E-03 0.  1.
         11   -1    0    0    0    0 -0.00000000000E+00 -0.00000000000E+00 -0.45593999997E+02  0.45594000000E+02  0.51100000000E-03 0. -1.
    9900012    2    1    2    0    0  0.29448656169E+02 -0.27447942446E+02 -0.57053433704E+01  0.50528882478E+02  0.30000068781E+02 0.  0.
        -12    1    1    2    0    0 -0.29448656169E+02  0.27447942446E+02  0.57053433704E+01  0.40659117522E+02  0.00000000000E+00 0.  1.
         11    1    3    3    0    0  0.20776716951E+02 -0.13100687933E+02 -0.14939612445E+02  0.28748774093E+02  0.51100000000E-03 0. -1.
        -11    1    3    3    0    0  0.77383426878E+01 -0.72806188266E+01  0.10025590578E+02  0.14608279322E+02  0.51100000000E-03 0.  1.
        -12    1    3    3    0    0  0.93359653031E+00 -0.70666356859E+01 -0.79132150286E+00  0.71718290637E+01  0.00000000000E+00 0.  1.
</event>
<event>
 7    1  0.5019004E-011  0.5052888E+02  0.7816164E-02  0.1300439E+00
        -11   -1    0    0    0    0  0.00000000000E+00  0.00000000000E+00  0.45593999997E+02  0.45594000000E+02  0.51100000000E-03 0.  1.
         11   -1    0    0    0    0 -0.00000000000E+00 -0.00000000000E+00 -0.45593999997E+02  0.45594000000E+02  0.51100000000E-03 0. -1.
    9900012    2    1    2    0    0 -0.27679244831E+02 -0.29527474784E+02 -0.38925537141E+01  0.50528876351E+02  0.30000050156E+02 0.  0.
        -12    1    1    2    0    0  0.27679244831E+02  0.29527474784E+02  0.38925537141E+01  0.40659123649E+02  0.00000000000E+00 0.  1.
         11    1    3    3    0    0 -0.30669943433E+00 -0.16034980257E+02  0.18667466525E+01  0.16146188396E+02  0.51100000000E-03 0. -1.
        -11    1    3    3    0    0 -0.27659962451E+02 -0.15592055424E+02 -0.57208523923E+01  0.32263196796E+02  0.51100000000E-03 0.  1.
        -12    1    3    3    0    0  0.28741705489E+00  0.20995608974E+01 -0.38447974223E-01  0.21194911588E+01  0.00000000000E+00 0.  1.
</event>
<event>
 7    1  0.5019004E-011  0.5052886E+02  0.7816164E-02  0.1300439E+00
        -11   -1    0    0    0    0  0.00000000000E+00  0.00000000000E+00  0.45593999997E+02  0.45594000000E+02  0.51100000000E-03 0.  1.
         11   -1    0    0    0    0 -0.00000000000E+00 -0.00000000000E+00 -0.45593999997E+02  0.45594000000E+02  0.51100000000E-03 0. -1.
    9900012    2    1    2    0    0  0.35241348557E+02 -0.20118517402E+02  0.25412800644E+01  0.50528862098E+02  0.30000006832E+02 0.  0.
        -12    1    1    2    0    0 -0.35241348557E+02  0.20118517402E+02 -0.25412800644E+01  0.40659137902E+02  0.00000000000E+00 0.  1.
         11    1    3    3    0    0 -0.16864811382E+01  0.34551359691E+01 -0.65104885284E+00  0.38994933087E+01  0.51100000000E-03 0. -1.
        -11    1    3    3    0    0  0.15764598567E+02 -0.10881500800E+02 -0.63363904435E+01  0.20176210540E+02  0.51100000000E-03 0.  1.
         12    1    3    3    0    0  0.21163231128E+02 -0.12692152572E+02  0.95287193607E+01  0.26453158249E+02  0.00000000000E+00 0. -1.
</event>
<event>
 7    1  0.5019004E-011  0.5052886E+02  0.7816164E-02  0.1300439E+00
        -11   -1    0    0    0    0  0.00000000000E+00  0.00000000000E+00  0.45593999997E+02  0.45594000000E+02  0.51100000000E-03 0.  1.
         11   -1    0    0    0    0 -0.00000000000E+00 -0.00000000000E+00 -0.45593999997E+02  0.45594000000E+02  0.51100000000E-03 0. -1.
    9900012    2    1    2    0    0  0.38408635304E+02  0.43816634091E+01  0.12599336973E+02  0.50528861639E+02  0.30000005437E+02 0.  0.
        -12    1    1    2    0    0 -0.38408635304E+02 -0.43816634091E+01 -0.12599336973E+02  0.40659138361E+02  0.00000000000E+00 0.  1.
         11    1    3    3    0    0  0.30082314446E+02 -0.38396252535E+01  0.14384535102E+02  0.33564910470E+02  0.51100000000E-03 0. -1.
        -11    1    3    3    0    0  0.42045434540E+00  0.60739338181E+00 -0.53674918930E+01  0.54180880447E+01  0.51100000000E-03 0.  1.
        -12    1    3    3    0    0  0.79058665128E+01  0.76138952808E+01  0.35822937639E+01  0.11545863124E+02  0.00000000000E+00 0.  1.
</event>
<event>
 7    1  0.5019004E-011  0.5052887E+02  0.7816164E-02  0.1300439E+00
        -11   -1    0    0    0    0  0.00000000000E+00  0.00000000000E+00  0.45593999997E+02  0.45594000000E+02  0.51100000000E-03 0. -1.
         11   -1    0    0    0    0 -0.00000000000E+00 -0.00000000000E+00 -0.45593999997E+02  0.45594000000E+02  0.51100000000E-03 0.  1.
    9900012    2    1    2    0    0 -0.61741622687E+01 -0.46738460810E+01  0.39914909440E+02  0.50528866801E+02  0.30000021128E+02 0.  0.
        -12    1    1    2    0    0  0.61741622687E+01  0.46738460810E+01 -0.39914909440E+02  0.40659133199E+02  0.00000000000E+00 0.  1.
         11    1    3    3    0    0 -0.12893886991E+02 -0.12642100099E+02  0.33214116958E+02  0.37805457043E+02  0.51100000000E-03 0. -1.
        -11    1    3    3    0    0  0.25576779419E+01  0.37647170648E+01  0.45320480531E+01  0.64229487659E+01  0.51100000000E-03 0.  1.
         12    1    3    3    0    0  0.41620467803E+01  0.42035369528E+01  0.21687444286E+01  0.63004609920E+01  0.00000000000E+00 0. -1.
</event>
<event>
 7    1  0.5019004E-011  0.5052873E+02  0.7816164E-02  0.1300439E+00
        -11   -1    0    0    0    0  0.00000000000E+00  0.00000000000E+00  0.45593999997E+02  0.45594000000E+02  0.51100000000E-03 0.  1.
         11   -1    0    0    0    0 -0.00000000000E+00 -0.00000000000E+00 -0.45593999997E+02  0.45594000000E+02  0.51100000000E-03 0. -1.
    9900012    2    1    2    0    0  0.25602696297E+02 -0.31353909844E+02 -0.38224119689E+01  0.50528726107E+02  0.29999593473E+02 0.  0.
        -12    1    1    2    0    0 -0.25602696297E+02  0.31353909844E+02  0.38224119689E+01  0.40659273893E+02  0.00000000000E+00 0.  1.
         11    1    3    3    0    0  0.17874846090E+02 -0.19052653978E+02 -0.14993859453E+02  0.30121911757E+02  0.51100000000E-03 0. -1.
        -11    1    3    3    0    0  0.18453841373E+01  0.23450225307E+00  0.48312666308E+01  0.51770234150E+01  0.51100000000E-03 0.  1.
        -12    1    3    3    0    0  0.58824660701E+01 -0.12535758119E+02  0.63401808531E+01  0.15229790935E+02  0.00000000000E+00 0.  1.
</event>
<event>
 7    1  0.5019004E-011  0.5052886E+02  0.7816164E-02  0.1300439E+00
        -11   -1    0    0    0    0  0.00000000000E+00  0.00000000000E+00  0.45593999997E+02  0.45594000000E+02  0.51100000000E-03 0.  1.
         11   -1    0    0    0    0 -0.00000000000E+00 -0.00000000000E+00 -0.45593999997E+02  0.45594000000E+02  0.51100000000E-03 0. -1.
    9900012    2    1    2    0    0  0.10460416856E+02  0.36663670834E+02 -0.14125186484E+02  0.50528856219E+02  0.29999988962E+02 0.  0.
        -12    1    1    2    0    0 -0.10460416856E+02 -0.36663670834E+02  0.14125186484E+02  0.40659143781E+02  0.00000000000E+00 0.  1.
         11    1    3    3    0    0  0.13824786530E+02  0.27452369416E+02 -0.21587697216E+02  0.37560431048E+02  0.51100000000E-03 0. -1.
        -11    1    3    3    0    0 -0.22798649891E+00  0.57795586488E+01  0.52839170243E+01  0.78342233437E+01  0.51100000000E-03 0.  1.
         12    1    3    3    0    0 -0.31363831750E+01  0.34317427694E+01  0.21785937080E+01  0.51342018270E+01  0.00000000000E+00 0. -1.
</event>
<event>
 7    1  0.5019004E-011  0.5052886E+02  0.7816164E-02  0.1300439E+00
        -11   -1    0    0    0    0  0.00000000000E+00  0.00000000000E+00  0.45593999997E+02  0.45594000000E+02  0.51100000000E-03 0.  1.
         11   -1    0    0    0    0 -0.00000000000E+00 -0.00000000000E+00 -0.45593999997E+02  0.45594000000E+02  0.51100000000E-03 0. -1.
    9900012    2    1    2    0    0 -0.47744022962E+01  0.16689029805E+02 -0.36767472616E+02  0.50528859875E+02  0.30000000076E+02 0.  0.
        -12    1    1    2    0    0  0.47744022962E+01 -0.16689029805E+02  0.36767472616E+02  0.40659140125E+02  0.00000000000E+00 0.  1.
         11    1    3    3    0    0  0.89509206319E+01  0.79955768835E+01 -0.15920700328E+02  0.19937826588E+02  0.51100000000E-03 0. -1.
        -11    1    3    3    0    0 -0.96603767726E+00 -0.24694198418E+01  0.10899092178E+01  0.28669087033E+01  0.51100000000E-03 0.  1.
         12    1    3    3    0    0 -0.12759285251E+02  0.11162872763E+02 -0.21936681506E+02  0.27724124584E+02  0.00000000000E+00 0. -1.
</event>
<event>
 7    1  0.5019004E-011  0.5052886E+02  0.7816164E-02  0.1300439E+00
        -11   -1    0    0    0    0  0.00000000000E+00  0.00000000000E+00  0.45593999997E+02  0.45594000000E+02  0.51100000000E-03 0.  1.
         11   -1    0    0    0    0 -0.00000000000E+00 -0.00000000000E+00 -0.45593999997E+02  0.45594000000E+02  0.51100000000E-03 0. -1.
    9900012    2    1    2    0    0 -0.29578181846E+02  0.25785578086E+02 -0.10648996032E+02  0.50528855948E+02  0.29999988139E+02 0.  0.
        -12    1    1    2    0    0  0.29578181846E+02 -0.25785578086E+02  0.10648996032E+02  0.40659144052E+02  0.00000000000E+00 0.  1.
         11    1    3    3    0    0  0.25429338836E+01  0.96176778847E+01 -0.34729827904E+01  0.10536975389E+02  0.51100000000E-03 0. -1.
        -11    1    3    3    0    0 -0.23832053646E+02  0.15197239389E+02 -0.11591939651E+02  0.30549892490E+02  0.51100000000E-03 0.  1.
        -12    1    3    3    0    0 -0.82890620837E+01  0.97066081261E+00  0.44159264089E+01  0.94419880687E+01  0.00000000000E+00 0.  1.
</event>
<event>
 7    1  0.5019004E-011  0.5052887E+02  0.7816164E-02  0.1300439E+00
        -11   -1    0    0    0    0  0.00000000000E+00  0.00000000000E+00  0.45593999997E+02  0.45594000000E+02  0.51100000000E-03 0.  1.
         11   -1    0    0    0    0 -0.00000000000E+00 -0.00000000000E+00 -0.45593999997E+02  0.45594000000E+02  0.51100000000E-03 0. -1.
    9900012    2    1    2    0    0 -0.10216487460E+02 -0.21067973361E+02 -0.33240473072E+02  0.50528866123E+02  0.30000019069E+02 0.  0.
        -12    1    1    2    0    0  0.10216487460E+02  0.21067973361E+02  0.33240473072E+02  0.40659133877E+02  0.00000000000E+00 0.  1.
         11    1    3    3    0    0 -0.33984683439E+01 -0.15665428704E+02 -0.25267333111E+02  0.29923124275E+02  0.51100000000E-03 0. -1.
        -11    1    3    3    0    0 -0.46852764107E+01 -0.81911424855E+01  0.23308915799E+01  0.97200661562E+01  0.51100000000E-03 0.  1.
        -12    1    3    3    0    0 -0.21327427054E+01  0.27885978280E+01 -0.10304031541E+02  0.10885675693E+02  0.00000000000E+00 0.  1.
</event>
<event>
 7    1  0.5019004E-011  0.5052886E+02  0.7816164E-02  0.1300439E+00
        -11   -1    0    0    0    0  0.00000000000E+00  0.00000000000E+00  0.45593999997E+02  0.45594000000E+02  0.51100000000E-03 0.  1.
         11   -1    0    0    0    0 -0.00000000000E+00 -0.00000000000E+00 -0.45593999997E+02  0.45594000000E+02  0.51100000000E-03 0. -1.
    9900012    2    1    2    0    0 -0.22152586113E+02 -0.33926704245E+02 -0.33774647643E+01  0.50528860798E+02  0.30000002882E+02 0.  0.
        -12    1    1    2    0    0  0.22152586113E+02  0.33926704245E+02  0.33774647643E+01  0.40659139202E+02  0.00000000000E+00 0.  1.
         11    1    3    3    0    0 -0.16314718892E+02 -0.11088546176E+02  0.22754348620E+01  0.19857077149E+02  0.51100000000E-03 0. -1.
        -11    1    3    3    0    0  0.55413834312E+01 -0.15851461715E+02 -0.30086945727E+01  0.17059543139E+02  0.51100000000E-03 0.  1.
        -12    1    3    3    0    0 -0.11379250651E+02 -0.69866963544E+01 -0.26442050536E+01  0.13612240510E+02  0.00000000000E+00 0.  1.
</event>
<event>
 7    1  0.5019004E-011  0.5052886E+02  0.7816164E-02  0.1300439E+00
        -11   -1    0    0    0    0  0.00000000000E+00  0.00000000000E+00  0.45593999997E+02  0.45594000000E+02  0.51100000000E-03 0. -1.
         11   -1    0    0    0    0 -0.00000000000E+00 -0.00000000000E+00 -0.45593999997E+02  0.45594000000E+02  0.51100000000E-03 0.  1.
    9900012    2    1    2    0    0 -0.82227054349E+01 -0.38266653787E+01  0.39634703069E+02  0.50528856626E+02  0.29999990199E+02 0.  0.
        -12    1    1    2    0    0  0.82227054349E+01  0.38266653787E+01 -0.39634703069E+02  0.40659143374E+02  0.00000000000E+00 0.  1.
         11    1    3    3    0    0 -0.27949039880E+01 -0.10804272658E+02  0.57391492345E+01  0.12549168505E+02  0.51100000000E-03 0. -1.
        -11    1    3    3    0    0 -0.95356244289E+01  0.43659719066E+01  0.13972321586E+02  0.17470421137E+02  0.51100000000E-03 0.  1.
         12    1    3    3    0    0  0.41078229820E+01  0.26116353731E+01  0.19923232248E+02  0.20509266984E+02  0.00000000000E+00 0. -1.
</event>
<event>
 7    1  0.5019004E-011  0.5052886E+02  0.7816164E-02  0.1300439E+00
        -11   -1    0    0    0    0  0.00000000000E+00  0.00000000000E+00  0.45593999997E+02  0.45594000000E+02  0.51100000000E-03 0.  1.
         11   -1    0    0    0    0 -0.00000000000E+00 -0.00000000000E+00 -0.45593999997E+02  0.45594000000E+02  0.51100000000E-03 0. -1.
    9900012    2    1    2    0    0 -0.34109674654E+02 -0.98383310643E+00 -0.22107190994E+02  0.50528859254E+02  0.29999998188E+02 0.  0.
        -12    1    1    2    0    0  0.34109674654E+02  0.98383310643E+00  0.22107190994E+02  0.40659140746E+02  0.00000000000E+00 0.  1.
         11    1    3    3    0    0 -0.32170228420E+02  0.62472539874E+01 -0.19621970753E+02  0.38196511823E+02  0.51100000000E-03 0. -1.
        -11    1    3    3    0    0  0.97118053958E+00  0.20763100985E+01 -0.84761784404E+00  0.24439131605E+01  0.51100000000E-03 0.  1.
         12    1    3    3    0    0 -0.29106267735E+01 -0.93073971924E+01 -0.16376023975E+01  0.98884342706E+01  0.00000000000E+00 0. -1.
</event>
<event>
 7    1  0.5019004E-011  0.5052886E+02  0.7816164E-02  0.1300439E+00
        -11   -1    0    0    0    0  0.00000000000E+00  0.00000000000E+00  0.45593999997E+02  0.45594000000E+02  0.51100000000E-03 0. -1.
         11   -1    0    0    0    0 -0.00000000000E+00 -0.00000000000E+00 -0.45593999997E+02  0.45594000000E+02  0.51100000000E-03 0.  1.
    9900012    2    1    2    0    0  0.16029019782E+02  0.37304617372E+02  0.21452398611E+01  0.50528855807E+02  0.29999987710E+02 0.  0.
        -12    1    1    2    0    0 -0.16029019782E+02 -0.37304617372E+02 -0.21452398611E+01  0.40659144193E+02  0.00000000000E+00 0.  1.
         11    1    3    3    0    0  0.63798080180E+01  0.22278375702E+02  0.91070227699E+01  0.24899113202E+02  0.51100000000E-03 0. -1.
        -11    1    3    3    0    0  0.70895889712E+01  0.56182657970E+01 -0.11700276731E+02  0.14789308915E+02  0.51100000000E-03 0.  1.
        -12    1    3    3    0    0  0.25596227928E+01  0.94079758735E+01  0.47384938221E+01  0.10840433690E+02  0.00000000000E+00 0.  1.
</event>
<event>
 7    1  0.5019004E-011  0.5052886E+02  0.7816164E-02  0.1300439E+00
        -11   -1    0    0    0    0  0.00000000000E+00  0.00000000000E+00  0.45593999997E+02  0.45594000000E+02  0.51100000000E-03 0. -1.
         11   -1    0    0    0    0 -0.00000000000E+00 -0.00000000000E+00 -0.45593999997E+02  0.45594000000E+02  0.51100000000E-03 0.  1.
    9900012    2    1    2    0    0 -0.15002163050E+02 -0.44287761640E+01  0.37529811250E+02  0.50528859737E+02  0.29999999656E+02 0.  0.
        -12    1    1    2    0    0  0.15002163050E+02  0.44287761640E+01 -0.37529811250E+02  0.40659140263E+02  0.00000000000E+00 0.  1.
         11    1    3    3    0    0 -0.57970996859E+01  0.11970763387E+01  0.18403413611E+01  0.61988880547E+01  0.51100000000E-03 0. -1.
        -11    1    3    3    0    0 -0.50214516421E+00 -0.11825507133E+02  0.29942893669E+02  0.32197385768E+02  0.51100000000E-03 0.  1.
        -12    1    3    3    0    0 -0.87029182003E+01  0.61996546300E+01  0.57465762190E+01  0.12132585915E+02  0.00000000000E+00 0.  1.
</event>
<event>
 7    1  0.5019004E-011  0.5052886E+02  0.7816164E-02  0.1300439E+00
        -11   -1    0    0    0    0  0.00000000000E+00  0.00000000000E+00  0.45593999997E+02  0.45594000000E+02  0.51100000000E-03 0.  1.
         11   -1    0    0    0    0 -0.00000000000E+00 -0.00000000000E+00 -0.45593999997E+02  0.45594000000E+02  0.51100000000E-03 0. -1.
    9900012    2    1    2    0    0 -0.32397776896E+02 -0.22033164691E+02 -0.10866903862E+02  0.50528857195E+02  0.29999991930E+02 0.  0.
        -12    1    1    2    0    0  0.32397776896E+02  0.22033164691E+02  0.10866903862E+02  0.40659142805E+02  0.00000000000E+00 0.  1.
         11    1    3    3    0    0 -0.31545695081E+01  0.32386184706E+00 -0.53195349397E+01  0.61930321744E+01  0.51100000000E-03 0. -1.
        -11    1    3    3    0    0 -0.16374489784E+02 -0.20676520926E+02  0.59042421100E+01  0.27027809909E+02  0.51100000000E-03 0.  1.
        -12    1    3    3    0    0 -0.12868717604E+02 -0.16805056113E+01 -0.11451611033E+02  0.17308015112E+02  0.00000000000E+00 0.  1.
</event>
<event>
 7    1  0.5019004E-011  0.5052885E+02  0.7816164E-02  0.1300439E+00
        -11   -1    0    0    0    0  0.00000000000E+00  0.00000000000E+00  0.45593999997E+02  0.45594000000E+02  0.51100000000E-03 0.  1.
         11   -1    0    0    0    0 -0.00000000000E+00 -0.00000000000E+00 -0.45593999997E+02  0.45594000000E+02  0.51100000000E-03 0. -1.
    9900012    2    1    2    0    0  0.37313820390E+01  0.25466265242E+02 -0.31475582616E+02  0.50528853694E+02  0.29999981288E+02 0.  0.
        -12    1    1    2    0    0 -0.37313820390E+01 -0.25466265242E+02  0.31475582616E+02  0.40659146306E+02  0.00000000000E+00 0.  1.
         11    1    3    3    0    0  0.14967896690E+02  0.16706757200E+02 -0.21839646784E+02  0.31306929574E+02  0.51100000000E-03 0. -1.
        -11    1    3    3    0    0 -0.61498157195E+01  0.29168743102E+01  0.65820473973E-01  0.68068143593E+01  0.51100000000E-03 0.  1.
         12    1    3    3    0    0 -0.50866989313E+01  0.58426337317E+01 -0.97017563064E+01  0.12415109761E+02  0.00000000000E+00 0. -1.
</event>
<event>
 7    1  0.5019004E-011  0.5052885E+02  0.7816164E-02  0.1300439E+00
        -11   -1    0    0    0    0  0.00000000000E+00  0.00000000000E+00  0.45593999997E+02  0.45594000000E+02  0.51100000000E-03 0. -1.
         11   -1    0    0    0    0 -0.00000000000E+00 -0.00000000000E+00 -0.45593999997E+02  0.45594000000E+02  0.51100000000E-03 0.  1.
    9900012    2    1    2    0    0 -0.36109830312E+02 -0.82338301507E+01  0.16776493528E+02  0.50528849256E+02  0.29999967799E+02 0.  0.
        -12    1    1    2    0    0  0.36109830312E+02  0.82338301507E+01 -0.16776493528E+02  0.40659150744E+02  0.00000000000E+00 0.  1.
         11    1    3    3    0    0 -0.97720121222E+01 -0.14004203275E+01  0.18470191554E+01  0.10043150802E+02  0.51100000000E-03 0. -1.
        -11    1    3    3    0    0  0.24437421207E+01  0.51917443522E+01 -0.35596982714E+00  0.57491564381E+01  0.51100000000E-03 0.  1.
        -12    1    3    3    0    0 -0.28781560310E+02 -0.12025154175E+02  0.15285444200E+02  0.34736542016E+02  0.00000000000E+00 0.  1.
</event>
<event>
 7    1  0.5019004E-011  0.5052886E+02  0.7816164E-02  0.1300439E+00
        -11   -1    0    0    0    0  0.00000000000E+00  0.00000000000E+00  0.45593999997E+02  0.45594000000E+02  0.51100000000E-03 0. -1.
         11   -1    0    0    0    0 -0.00000000000E+00 -0.00000000000E+00 -0.45593999997E+02  0.45594000000E+02  0.51100000000E-03 0.  1.
    9900012    2    1    2    0    0 -0.13139067189E+02  0.68034578377E+01  0.37871407426E+02  0.50528860492E+02  0.30000001951E+02 0.  0.
        -12    1    1    2    0    0  0.13139067189E+02 -0.68034578377E+01 -0.37871407426E+02  0.40659139508E+02  0.00000000000E+00 0.  1.
         11    1    3    3    0    0  0.56196992400E+01  0.27523790414E+01  0.18819940731E+02  0.19832972025E+02  0.51100000000E-03 0. -1.
        -11    1    3    3    0    0 -0.13692760834E+02 -0.33737835463E+01  0.72368373573E+01  0.15850739096E+02  0.51100000000E-03 0.  1.
        -12    1    3    3    0    0 -0.50660055944E+01  0.74248623425E+01  0.11814629337E+02  0.14845149371E+02  0.00000000000E+00 0.  1.
</event>
<event>
 7    1  0.5019004E-011  0.5052885E+02  0.7816164E-02  0.1300439E+00
        -11   -1    0    0    0    0  0.00000000000E+00  0.00000000000E+00  0.45593999997E+02  0.45594000000E+02  0.51100000000E-03 0.  1.
         11   -1    0    0    0    0 -0.00000000000E+00 -0.00000000000E+00 -0.45593999997E+02  0.45594000000E+02  0.51100000000E-03 0. -1.
    9900012    2    1    2    0    0 -0.15779054957E+02 -0.30717707775E+02 -0.21461831022E+02  0.50528851741E+02  0.29999975353E+02 0.  0.
        -12    1    1    2    0    0  0.15779054957E+02  0.30717707775E+02  0.21461831022E+02  0.40659148259E+02  0.00000000000E+00 0.  1.
         11    1    3    3    0    0 -0.21867196429E+02 -0.14326581696E+02 -0.16828894605E+02  0.31090785076E+02  0.51100000000E-03 0. -1.
        -11    1    3    3    0    0  0.42924989858E+01 -0.16437215575E+02 -0.47440086748E+01  0.17638401911E+02  0.51100000000E-03 0.  1.
         12    1    3    3    0    0  0.17956424863E+01  0.46089495853E-01  0.11107225815E+00  0.17996647540E+01  0.00000000000E+00 0. -1.
</event>
<event>
 7    1  0.5019004E-011  0.5052886E+02  0.7816164E-02  0.1300439E+00
        -11   -1    0    0    0    0  0.00000000000E+00  0.00000000000E+00  0.45593999997E+02  0.45594000000E+02  0.51100000000E-03 0. -1.
         11   -1    0    0    0    0 -0.00000000000E+00 -0.00000000000E+00 -0.45593999997E+02  0.45594000000E+02  0.51100000000E-03 0.  1.
    9900012    2    1    2    0    0 -0.18949037936E+02 -0.37430989257E+01  0.35778324798E+02  0.50528863836E+02  0.30000012115E+02 0.  0.
        -12    1    1    2    0    0  0.18949037936E+02  0.37430989257E+01 -0.35778324798E+02  0.40659136164E+02  0.00000000000E+00 0.  1.
         11    1    3    3    0    0 -0.14329391857E+02 -0.37951890895E+01  0.36714370946E+02  0.39593938493E+02  0.51100000000E-03 0. -1.
        -11    1    3    3    0    0 -0.64536531823E+01  0.31421602672E+01  0.15494772892E+00  0.71796113824E+01  0.51100000000E-03 0.  1.
         12    1    3    3    0    0  0.18340071034E+01 -0.30900701033E+01 -0.10909938767E+01  0.37553139600E+01  0.00000000000E+00 0. -1.
</event>
<event>
 7    1  0.5019004E-011  0.5052886E+02  0.7816164E-02  0.1300439E+00
        -11   -1    0    0    0    0  0.00000000000E+00  0.00000000000E+00  0.45593999997E+02  0.45594000000E+02  0.51100000000E-03 0.  1.
         11   -1    0    0    0    0 -0.00000000000E+00 -0.00000000000E+00 -0.45593999997E+02  0.45594000000E+02  0.51100000000E-03 0. -1.
    9900012    2    1    2    0    0 -0.18693187884E+02  0.23221206514E+01 -0.36032462450E+02  0.50528857513E+02  0.29999992896E+02 0.  0.
        -12    1    1    2    0    0  0.18693187884E+02 -0.23221206514E+01  0.36032462450E+02  0.40659142487E+02  0.00000000000E+00 0.  1.
         11    1    3    3    0    0  0.42523826970E+01  0.27747026084E+00 -0.20189388691E+02  0.20634223133E+02  0.51100000000E-03 0. -1.
        -11    1    3    3    0    0 -0.73431221812E+01  0.35882062812E+01 -0.87722465856E+00  0.82198656344E+01  0.51100000000E-03 0.  1.
         12    1    3    3    0    0 -0.15602448400E+02 -0.15435558907E+01 -0.14965849101E+02  0.21674768745E+02  0.00000000000E+00 0. -1.
</event>
<event>
 7    1  0.5019004E-011  0.5052887E+02  0.7816164E-02  0.1300439E+00
        -11   -1    0    0    0    0  0.00000000000E+00  0.00000000000E+00  0.45593999997E+02  0.45594000000E+02  0.51100000000E-03 0. -1.
         11   -1    0    0    0    0 -0.00000000000E+00 -0.00000000000E+00 -0.45593999997E+02  0.45594000000E+02  0.51100000000E-03 0.  1.
    9900012    2    1    2    0    0  0.30602572531E+02 -0.24438179940E+02  0.10928074677E+02  0.50528869409E+02  0.30000029055E+02 0.  0.
        -12    1    1    2    0    0 -0.30602572531E+02  0.24438179940E+02 -0.10928074677E+02  0.40659130591E+02  0.00000000000E+00 0.  1.
         11    1    3    3    0    0  0.15038562919E+02 -0.25165412219E+02  0.96231288589E+01  0.30855485025E+02  0.51100000000E-03 0. -1.
        -11    1    3    3    0    0  0.17492010932E+02  0.13694166233E+01  0.16067761916E+01  0.17618952248E+02  0.51100000000E-03 0.  1.
        -12    1    3    3    0    0 -0.19280013206E+01 -0.64218434439E+00 -0.30183037390E+00  0.20544321354E+01  0.00000000000E+00 0.  1.
</event>
<event>
 7    1  0.5019004E-011  0.5052885E+02  0.7816164E-02  0.1300439E+00
        -11   -1    0    0    0    0  0.00000000000E+00  0.00000000000E+00  0.45593999997E+02  0.45594000000E+02  0.51100000000E-03 0. -1.
         11   -1    0    0    0    0 -0.00000000000E+00 -0.00000000000E+00 -0.45593999997E+02  0.45594000000E+02  0.51100000000E-03 0.  1.
    9900012    2    1    2    0    0  0.22425635744E+02 -0.15965214042E+02  0.29922716883E+02  0.50528853629E+02  0.29999981092E+02 0.  0.
        -12    1    1    2    0    0 -0.22425635744E+02  0.15965214042E+02 -0.29922716883E+02  0.40659146371E+02  0.00000000000E+00 0.  1.
         11    1    3    3    0    0  0.10770170216E+02  0.15303664663E+01  0.80666494463E+01  0.13542873460E+02  0.51100000000E-03 0. -1.
        -11    1    3    3    0    0 -0.14965327613E+01 -0.12602516618E+02  0.22711153600E+01  0.12892672362E+02  0.51100000000E-03 0.  1.
        -12    1    3    3    0    0  0.13151998290E+02 -0.48930638906E+01  0.19584952076E+02  0.24093307807E+02  0.00000000000E+00 0.  1.
</event>
<event>
 7    1  0.5019004E-011  0.5052885E+02  0.7816164E-02  0.1300439E+00
        -11   -1    0    0    0    0  0.00000000000E+00  0.00000000000E+00  0.45593999997E+02  0.45594000000E+02  0.51100000000E-03 0.  1.
         11   -1    0    0    0    0 -0.00000000000E+00 -0.00000000000E+00 -0.45593999997E+02  0.45594000000E+02  0.51100000000E-03 0. -1.
    9900012    2    1    2    0    0 -0.16213026546E+02 -0.18557251560E+02 -0.32340884546E+02  0.50528848159E+02  0.29999964463E+02 0.  0.
        -12    1    1    2    0    0  0.16213026546E+02  0.18557251560E+02  0.32340884546E+02  0.40659151841E+02  0.00000000000E+00 0.  1.
         11    1    3    3    0    0 -0.13150122560E+02  0.10120472054E+01 -0.71301334073E+01  0.14992957198E+02  0.51100000000E-03 0. -1.
        -11    1    3    3    0    0 -0.31543917835E+01 -0.13379384582E+02 -0.25885138074E+02  0.29308676065E+02  0.51100000000E-03 0.  1.
        -12    1    3    3    0    0  0.91487797347E-01 -0.61899141832E+01  0.67438693545E+00  0.62272148952E+01  0.00000000000E+00 0.  1.
</event>
<event>
 7    1  0.5019004E-011  0.5052886E+02  0.7816164E-02  0.1300439E+00
        -11   -1    0    0    0    0  0.00000000000E+00  0.00000000000E+00  0.45593999997E+02  0.45594000000E+02  0.51100000000E-03 0.  1.
         11   -1    0    0    0    0 -0.00000000000E+00 -0.00000000000E+00 -0.45593999997E+02  0.45594000000E+02  0.51100000000E-03 0. -1.
    9900012    2    1    2    0    0 -0.27375316087E+02  0.17838594308E+02 -0.24197987407E+02  0.50528856227E+02  0.29999988989E+02 0.  0.
        -12    1    1    2    0    0  0.27375316087E+02 -0.17838594308E+02  0.24197987407E+02  0.40659143773E+02  0.00000000000E+00 0.  1.
         11    1    3    3    0    0 -0.46499694144E+01 -0.20303154909E+01 -0.78039048158E+00  0.51335568675E+01  0.51100000000E-03 0. -1.
        -11    1    3    3    0    0  0.46362260254E+01  0.74322257530E+01 -0.64789104966E+01  0.10895359236E+02  0.51100000000E-03 0.  1.
        -12    1    3    3    0    0 -0.27361572699E+02  0.12436684046E+02 -0.16938686429E+02  0.34499940124E+02  0.00000000000E+00 0.  1.
</event>
<event>
 7    1  0.5019004E-011  0.5052886E+02  0.7816164E-02  0.1300439E+00
        -11   -1    0    0    0    0  0.00000000000E+00  0.00000000000E+00  0.45593999997E+02  0.45594000000E+02  0.51100000000E-03 0.  1.
         11   -1    0    0    0    0 -0.00000000000E+00 -0.00000000000E+00 -0.45593999997E+02  0.45594000000E+02  0.51100000000E-03 0. -1.
    9900012    2    1    2    0    0 -0.12935004428E+02  0.34233182307E+02 -0.17718365984E+02  0.50528860762E+02  0.30000002771E+02 0.  0.
        -12    1    1    2    0    0  0.12935004428E+02 -0.34233182307E+02  0.17718365984E+02  0.40659139238E+02  0.00000000000E+00 0.  1.
         11    1    3    3    0    0 -0.12741918529E+02  0.67182768190E+01 -0.11954132990E+02  0.18718788075E+02  0.51100000000E-03 0.  1.
        -11    1    3    3    0    0 -0.38443395807E+01  0.20924565022E+02  0.15217637328E+01  0.21329138128E+02  0.51100000000E-03 0. -1.
         12    1    3    3    0    0  0.36512536810E+01  0.65903404669E+01 -0.72859967270E+01  0.10480934558E+02  0.00000000000E+00 0. -1.
</event>
<event>
 7    1  0.5019004E-011  0.5052886E+02  0.7816164E-02  0.1300439E+00
        -11   -1    0    0    0    0  0.00000000000E+00  0.00000000000E+00  0.45593999997E+02  0.45594000000E+02  0.51100000000E-03 0.  1.
         11   -1    0    0    0    0 -0.00000000000E+00 -0.00000000000E+00 -0.45593999997E+02  0.45594000000E+02  0.51100000000E-03 0. -1.
    9900012    2    1    2    0    0 -0.26861441156E+02 -0.13130260384E+01 -0.30494333201E+02  0.50528863072E+02  0.30000009793E+02 0.  0.
        -12    1    1    2    0    0  0.26861441156E+02  0.13130260384E+01  0.30494333201E+02  0.40659136928E+02  0.00000000000E+00 0.  1.
         11    1    3    3    0    0 -0.18716415173E+02 -0.12322775986E+02 -0.12569431992E+02  0.25693299239E+02  0.51100000000E-03 0. -1.
        -11    1    3    3    0    0 -0.41095161902E+01  0.10647475051E+02 -0.75151178246E+01  0.13665059256E+02  0.51100000000E-03 0.  1.
         12    1    3    3    0    0 -0.40355097930E+01  0.36227489666E+00 -0.10409783384E+02  0.11170504577E+02  0.00000000000E+00 0. -1.
</event>
<event>
 7    1  0.5019004E-011  0.5052886E+02  0.7816164E-02  0.1300439E+00
        -11   -1    0    0    0    0  0.00000000000E+00  0.00000000000E+00  0.45593999997E+02  0.45594000000E+02  0.51100000000E-03 0. -1.
         11   -1    0    0    0    0 -0.00000000000E+00 -0.00000000000E+00 -0.45593999997E+02  0.45594000000E+02  0.51100000000E-03 0.  1.
    9900012    2    1    2    0    0  0.35716644954E+01  0.32514016973E+02  0.24150521630E+02  0.50528858568E+02  0.29999996102E+02 0.  0.
        -12    1    1    2    0    0 -0.35716644954E+01 -0.32514016973E+02 -0.24150521630E+02  0.40659141432E+02  0.00000000000E+00 0.  1.
         11    1    3    3    0    0  0.95064094272E+01  0.15248744780E+02  0.18476658273E+02  0.25773686946E+02  0.51100000000E-03 0. -1.
        -11    1    3    3    0    0 -0.81506760433E+01  0.26889501486E+01  0.51348364317E+01  0.10001525799E+02  0.51100000000E-03 0.  1.
        -12    1    3    3    0    0  0.22159311115E+01  0.14576322045E+02  0.53902692490E+00  0.14753645823E+02  0.00000000000E+00 0.  1.
</event>
<event>
 7    1  0.5019004E-011  0.5052886E+02  0.7816164E-02  0.1300439E+00
        -11   -1    0    0    0    0  0.00000000000E+00  0.00000000000E+00  0.45593999997E+02  0.45594000000E+02  0.51100000000E-03 0.  1.
         11   -1    0    0    0    0 -0.00000000000E+00 -0.00000000000E+00 -0.45593999997E+02  0.45594000000E+02  0.51100000000E-03 0. -1.
    9900012    2    1    2    0    0  0.39361517770E+02  0.43095874093E+00  0.10180912757E+02  0.50528858455E+02  0.29999995759E+02 0.  0.
        -12    1    1    2    0    0 -0.39361517770E+02 -0.43095874093E+00 -0.10180912757E+02  0.40659141545E+02  0.00000000000E+00 0.  1.
         11    1    3    3    0    0  0.15042354405E+02 -0.31572537484E+00 -0.73486827778E+01  0.16744409437E+02  0.51100000000E-03 0. -1.
        -11    1    3    3    0    0  0.22305429411E+02 -0.48852618693E+01  0.14791528715E+02  0.27206383198E+02  0.51100000000E-03 0.  1.
        -12    1    3    3    0    0  0.20137339544E+01  0.56319459851E+01  0.27380668197E+01  0.65780658196E+01  0.00000000000E+00 0.  1.
</event>
<event>
 7    1  0.5019004E-011  0.5052886E+02  0.7816164E-02  0.1300439E+00
        -11   -1    0    0    0    0  0.00000000000E+00  0.00000000000E+00  0.45593999997E+02  0.45594000000E+02  0.51100000000E-03 0. -1.
         11   -1    0    0    0    0 -0.00000000000E+00 -0.00000000000E+00 -0.45593999997E+02  0.45594000000E+02  0.51100000000E-03 0.  1.
    9900012    2    1    2    0    0 -0.24176978591E+02  0.28966978609E+02 -0.15151014087E+02  0.50528863617E+02  0.30000011451E+02 0.  0.
        -12    1    1    2    0    0  0.24176978591E+02 -0.28966978609E+02  0.15151014087E+02  0.40659136383E+02  0.00000000000E+00 0.  1.
         11    1    3    3    0    0 -0.15986229448E+02  0.31626651749E+02 -0.19699848257E+02  0.40544896774E+02  0.51100000000E-03 0. -1.
        -11    1    3    3    0    0 -0.39166284564E+01 -0.40643147632E+00  0.28558412250E+01  0.48642568162E+01  0.51100000000E-03 0.  1.
         12    1    3    3    0    0 -0.42741206873E+01 -0.22532416642E+01  0.16929929452E+01  0.51197100268E+01  0.00000000000E+00 0. -1.
</event>
<event>
 7    1  0.5019004E-011  0.5052887E+02  0.7816164E-02  0.1300439E+00
        -11   -1    0    0    0    0  0.00000000000E+00  0.00000000000E+00  0.45593999997E+02  0.45594000000E+02  0.51100000000E-03 0.  1.
         11   -1    0    0    0    0 -0.00000000000E+00 -0.00000000000E+00 -0.45593999997E+02  0.45594000000E+02  0.51100000000E-03 0. -1.
    9900012    2    1    2    0    0  0.20269006186E+02 -0.27667144742E+02 -0.21837163219E+02  0.50528865634E+02  0.30000017581E+02 0.  0.
        -12    1    1    2    0    0 -0.20269006186E+02  0.27667144742E+02  0.21837163219E+02  0.40659134366E+02  0.00000000000E+00 0.  1.
         11    1    3    3    0    0  0.37426928442E+01 -0.84629912585E+00  0.23898427138E+00  0.38446177547E+01  0.51100000000E-03 0. -1.
        -11    1    3    3    0    0  0.46959001084E+01 -0.24478295630E+02 -0.23846563497E+02  0.34494884051E+02  0.51100000000E-03 0.  1.
        -12    1    3    3    0    0  0.11830413233E+02 -0.23425499859E+01  0.17704160064E+01  0.12189363828E+02  0.00000000000E+00 0.  1.
</event>
<event>
 7    1  0.5019004E-011  0.5052886E+02  0.7816164E-02  0.1300439E+00
        -11   -1    0    0    0    0  0.00000000000E+00  0.00000000000E+00  0.45593999997E+02  0.45594000000E+02  0.51100000000E-03 0.  1.
         11   -1    0    0    0    0 -0.00000000000E+00 -0.00000000000E+00 -0.45593999997E+02  0.45594000000E+02  0.51100000000E-03 0. -1.
    9900012    2    1    2    0    0  0.13503173579E+02  0.25882629662E+02 -0.28300515169E+02  0.50528863588E+02  0.30000011362E+02 0.  0.
        -12    1    1    2    0    0 -0.13503173579E+02 -0.25882629662E+02  0.28300515169E+02  0.40659136412E+02  0.00000000000E+00 0.  1.
         11    1    3    3    0    0 -0.47656346469E+00  0.64545033689E+00 -0.17607752845E+02  0.17626022790E+02  0.51100000000E-03 0. -1.
        -11    1    3    3    0    0  0.12266982306E+02  0.12106366538E+02 -0.93101263986E+01  0.19588808526E+02  0.51100000000E-03 0.  1.
         12    1    3    3    0    0  0.17127547375E+01  0.13130812787E+02 -0.13826359254E+01  0.13314032272E+02  0.00000000000E+00 0. -1.
</event>
<event>
 7    1  0.5019004E-011  0.5052888E+02  0.7816164E-02  0.1300439E+00
        -11   -1    0    0    0    0  0.00000000000E+00  0.00000000000E+00  0.45593999997E+02  0.45594000000E+02  0.51100000000E-03 0. -1.
         11   -1    0    0    0    0 -0.00000000000E+00 -0.00000000000E+00 -0.45593999997E+02  0.45594000000E+02  0.51100000000E-03 0.  1.
    9900012    2    1    2    0    0 -0.31394081002E+02  0.47197283399E+00  0.25833179164E+02  0.50528877702E+02  0.30000054264E+02 0.  0.
        -12    1    1    2    0    0  0.31394081002E+02 -0.47197283399E+00 -0.25833179164E+02  0.40659122298E+02  0.00000000000E+00 0.  1.
         11    1    3    3    0    0 -0.10547406496E+01  0.10574531010E+02  0.65029121844E+01  0.12458774059E+02  0.51100000000E-03 0. -1.
        -11    1    3    3    0    0 -0.22576249986E+02 -0.99722468908E+01  0.12211612859E+02  0.27536453301E+02  0.51100000000E-03 0.  1.
         12    1    3    3    0    0 -0.77630903660E+01 -0.13031128504E+00  0.71186541199E+01  0.10533650343E+02  0.00000000000E+00 0. -1.
</event>
<event>
 7    1  0.5019004E-011  0.5052885E+02  0.7816164E-02  0.1300439E+00
        -11   -1    0    0    0    0  0.00000000000E+00  0.00000000000E+00  0.45593999997E+02  0.45594000000E+02  0.51100000000E-03 0.  1.
         11   -1    0    0    0    0 -0.00000000000E+00 -0.00000000000E+00 -0.45593999997E+02  0.45594000000E+02  0.51100000000E-03 0. -1.
    9900012    2    1    2    0    0  0.39958212664E+02  0.70617173999E+01  0.25767288789E+01  0.50528854121E+02  0.29999982585E+02 0.  0.
        -12    1    1    2    0    0 -0.39958212664E+02 -0.70617173999E+01 -0.25767288789E+01  0.40659145879E+02  0.00000000000E+00 0.  1.
         11    1    3    3    0    0  0.28937916633E+02 -0.25374065715E+01 -0.63155125279E+00  0.29055813677E+02  0.51100000000E-03 0. -1.
        -11    1    3    3    0    0  0.43575940795E+01  0.97757896176E+01 -0.42092267652E+01  0.11500968613E+02  0.51100000000E-03 0.  1.
        -12    1    3    3    0    0  0.66627019511E+01 -0.17666564622E+00  0.74175068970E+01  0.99720718312E+01  0.00000000000E+00 0.  1.
</event>
<event>
 7    1  0.5019004E-011  0.5052888E+02  0.7816164E-02  0.1300439E+00
        -11   -1    0    0    0    0  0.00000000000E+00  0.00000000000E+00  0.45593999997E+02  0.45594000000E+02  0.51100000000E-03 0.  1.
         11   -1    0    0    0    0 -0.00000000000E+00 -0.00000000000E+00 -0.45593999997E+02  0.45594000000E+02  0.51100000000E-03 0. -1.
    9900012    2    1    2    0    0  0.25184224406E+02 -0.95702496668E+01 -0.30452074336E+02  0.50528884552E+02  0.30000075085E+02 0.  0.
        -12    1    1    2    0    0 -0.25184224406E+02  0.95702496668E+01  0.30452074336E+02  0.40659115448E+02  0.00000000000E+00 0.  1.
         11    1    3    3    0    0  0.17301687029E+02 -0.19244670463E+02 -0.18372131679E+02  0.31737059379E+02  0.51100000000E-03 0. -1.
        -11    1    3    3    0    0  0.20985892966E+01  0.33353527667E+01  0.40846516048E-01  0.39408531834E+01  0.51100000000E-03 0.  1.
         12    1    3    3    0    0  0.57839480809E+01  0.63390680299E+01 -0.12120789173E+02  0.14850971990E+02  0.00000000000E+00 0. -1.
</event>
<event>
 7    1  0.5019004E-011  0.5052887E+02  0.7816164E-02  0.1300439E+00
        -11   -1    0    0    0    0  0.00000000000E+00  0.00000000000E+00  0.45593999997E+02  0.45594000000E+02  0.51100000000E-03 0. -1.
         11   -1    0    0    0    0 -0.00000000000E+00 -0.00000000000E+00 -0.45593999997E+02  0.45594000000E+02  0.51100000000E-03 0.  1.
    9900012    2    1    2    0    0 -0.22478013124E+02  0.11877593519E+02  0.31730532007E+02  0.50528868637E+02  0.30000026708E+02 0.  0.
        -12    1    1    2    0    0  0.22478013124E+02 -0.11877593519E+02 -0.31730532007E+02  0.40659131363E+02  0.00000000000E+00 0.  1.
         11    1    3    3    0    0 -0.16357995722E+02  0.11103456056E+02  0.15901284342E+02  0.25371669326E+02  0.51100000000E-03 0. -1.
        -11    1    3    3    0    0  0.76835355927E+00 -0.51597648160E+01 -0.16360258673E+01  0.54671858436E+01  0.51100000000E-03 0.  1.
        -12    1    3    3    0    0 -0.68883709612E+01  0.59339022787E+01  0.17465273533E+02  0.19690013467E+02  0.00000000000E+00 0.  1.
</event>
<event>
 7    1  0.5019004E-011  0.5052886E+02  0.7816164E-02  0.1300439E+00
        -11   -1    0    0    0    0  0.00000000000E+00  0.00000000000E+00  0.45593999997E+02  0.45594000000E+02  0.51100000000E-03 0. -1.
         11   -1    0    0    0    0 -0.00000000000E+00 -0.00000000000E+00 -0.45593999997E+02  0.45594000000E+02  0.51100000000E-03 0.  1.
    9900012    2    1    2    0    0 -0.32964433795E+02  0.20485197578E+02  0.12118933912E+02  0.50528858662E+02  0.29999996388E+02 0.  0.
        -12    1    1    2    0    0  0.32964433795E+02 -0.20485197578E+02 -0.12118933912E+02  0.40659141338E+02  0.00000000000E+00 0.  1.
         11    1    3    3    0    0 -0.29334804184E+02  0.66988862594E+01  0.30373502695E+01  0.30242872062E+02  0.51100000000E-03 0. -1.
        -11    1    3    3    0    0 -0.13850798735E+00 -0.12803477234E+01  0.36884251526E+01  0.39067832194E+01  0.51100000000E-03 0.  1.
         12    1    3    3    0    0 -0.34911216233E+01  0.15066659042E+02  0.53931584895E+01  0.16379203380E+02  0.00000000000E+00 0. -1.
</event>
<event>
 7    1  0.5019004E-011  0.5052885E+02  0.7816164E-02  0.1300439E+00
        -11   -1    0    0    0    0  0.00000000000E+00  0.00000000000E+00  0.45593999997E+02  0.45594000000E+02  0.51100000000E-03 0.  1.
         11   -1    0    0    0    0 -0.00000000000E+00 -0.00000000000E+00 -0.45593999997E+02  0.45594000000E+02  0.51100000000E-03 0. -1.
    9900012    2    1    2    0    0 -0.10463591655E+02  0.23195663157E+01 -0.39221155423E+02  0.50528853785E+02  0.29999981566E+02 0.  0.
        -12    1    1    2    0    0  0.10463591655E+02 -0.23195663157E+01  0.39221155423E+02  0.40659146215E+02  0.00000000000E+00 0.  1.
         11    1    3    3    0    0 -0.87774152925E+01  0.18188855883E+01 -0.41313457087E+02  0.42274733597E+02  0.51100000000E-03 0. -1.
        -11    1    3    3    0    0 -0.26116692118E+01  0.35854501604E+01  0.23561484430E+01  0.50227188525E+01  0.51100000000E-03 0.  1.
         12    1    3    3    0    0  0.92549284968E+00 -0.30847694330E+01 -0.26384677924E+00  0.32314013357E+01  0.00000000000E+00 0. -1.
</event>
<event>
 7    1  0.5019004E-011  0.5052887E+02  0.7816164E-02  0.1300439E+00
        -11   -1    0    0    0    0  0.00000000000E+00  0.00000000000E+00  0.45593999997E+02  0.45594000000E+02  0.51100000000E-03 0. -1.
         11   -1    0    0    0    0 -0.00000000000E+00 -0.00000000000E+00 -0.45593999997E+02  0.45594000000E+02  0.51100000000E-03 0.  1.
    9900012    2    1    2    0    0 -0.34412334015E+02  0.13471413594E+02  0.16955159403E+02  0.50528866377E+02  0.30000019840E+02 0.  0.
        -12    1    1    2    0    0  0.34412334015E+02 -0.13471413594E+02 -0.16955159403E+02  0.40659133623E+02  0.00000000000E+00 0.  1.
         11    1    3    3    0    0 -0.27576603167E+02  0.47144153546E+01  0.21482759459E+02  0.35273271872E+02  0.51100000000E-03 0. -1.
        -11    1    3    3    0    0 -0.11262082826E+01  0.56657422483E+01 -0.62778781518E+01  0.85311625626E+01  0.51100000000E-03 0.  1.
         12    1    3    3    0    0 -0.57095225654E+01  0.30912559915E+01  0.17502780965E+01  0.67244319422E+01  0.00000000000E+00 0. -1.
</event>
<event>
 7    1  0.5019004E-011  0.5052888E+02  0.7816164E-02  0.1300439E+00
        -11   -1    0    0    0    0  0.00000000000E+00  0.00000000000E+00  0.45593999997E+02  0.45594000000E+02  0.51100000000E-03 0. -1.
         11   -1    0    0    0    0 -0.00000000000E+00 -0.00000000000E+00 -0.45593999997E+02  0.45594000000E+02  0.51100000000E-03 0.  1.
    9900012    2    1    2    0    0 -0.28026771363E+02  0.29455412295E+02 -0.20660200562E+00  0.50528881578E+02  0.30000066043E+02 0.  0.
        -12    1    1    2    0    0  0.28026771363E+02 -0.29455412295E+02  0.20660200562E+00  0.40659118422E+02  0.00000000000E+00 0.  1.
         11    1    3    3    0    0 -0.74054083726E+01 -0.16094320078E+01  0.37372377240E+01  0.84496917470E+01  0.51100000000E-03 0. -1.
        -11    1    3    3    0    0 -0.22463199751E+02  0.26416449244E+02 -0.80628774560E+01  0.35601041093E+02  0.51100000000E-03 0.  1.
        -12    1    3    3    0    0  0.18418367613E+01  0.46483950588E+01  0.41190377265E+01  0.64781487379E+01  0.00000000000E+00 0.  1.
</event>
<event>
 7    1  0.5019004E-011  0.5052884E+02  0.7816164E-02  0.1300439E+00
        -11   -1    0    0    0    0  0.00000000000E+00  0.00000000000E+00  0.45593999997E+02  0.45594000000E+02  0.51100000000E-03 0.  1.
         11   -1    0    0    0    0 -0.00000000000E+00 -0.00000000000E+00 -0.45593999997E+02  0.45594000000E+02  0.51100000000E-03 0. -1.
    9900012    2    1    2    0    0 -0.32810879752E+02  0.15840892581E+02 -0.18046599912E+02  0.50528837733E+02  0.29999932773E+02 0.  0.
        -12    1    1    2    0    0  0.32810879752E+02 -0.15840892581E+02  0.18046599912E+02  0.40659162267E+02  0.00000000000E+00 0.  1.
         11    1    3    3    0    0 -0.54010113048E+01 -0.41186875603E+01 -0.75362796953E+01  0.10145443423E+02  0.51100000000E-03 0. -1.
        -11    1    3    3    0    0 -0.12516352958E+02  0.16738568501E+02 -0.13463927365E+02  0.24861940938E+02  0.51100000000E-03 0.  1.
        -12    1    3    3    0    0 -0.14893515489E+02  0.32210116406E+01  0.29536071485E+01  0.15521453373E+02  0.00000000000E+00 0.  1.
</event>
<event>
 7    1  0.5019004E-011  0.5052886E+02  0.7816164E-02  0.1300439E+00
        -11   -1    0    0    0    0  0.00000000000E+00  0.00000000000E+00  0.45593999997E+02  0.45594000000E+02  0.51100000000E-03 0.  1.
         11   -1    0    0    0    0 -0.00000000000E+00 -0.00000000000E+00 -0.45593999997E+02  0.45594000000E+02  0.51100000000E-03 0. -1.
    9900012    2    1    2    0    0 -0.65983746976E+01  0.36903352969E+02 -0.15740697275E+02  0.50528861302E+02  0.30000004413E+02 0.  0.
        -12    1    1    2    0    0  0.65983746976E+01 -0.36903352969E+02  0.15740697275E+02  0.40659138698E+02  0.00000000000E+00 0.  1.
         11    1    3    3    0    0 -0.13333425573E+02  0.51433112365E+01 -0.99343073538E+01  0.17404722085E+02  0.51100000000E-03 0. -1.
        -11    1    3    3    0    0  0.19254721787E+01  0.11974980350E+02 -0.79257572757E+00  0.12154660589E+02  0.51100000000E-03 0.  1.
         12    1    3    3    0    0  0.48095786970E+01  0.19785061382E+02 -0.50138141933E+01  0.20969478627E+02  0.00000000000E+00 0. -1.
</event>
<event>
 7    1  0.5019004E-011  0.5052887E+02  0.7816164E-02  0.1300439E+00
        -11   -1    0    0    0    0  0.00000000000E+00  0.00000000000E+00  0.45593999997E+02  0.45594000000E+02  0.51100000000E-03 0.  1.
         11   -1    0    0    0    0 -0.00000000000E+00 -0.00000000000E+00 -0.45593999997E+02  0.45594000000E+02  0.51100000000E-03 0. -1.
    9900012    2    1    2    0    0  0.11028302196E+02 -0.53583106810E+01 -0.38766354326E+02  0.50528866089E+02  0.30000018965E+02 0.  0.
        -12    1    1    2    0    0 -0.11028302196E+02  0.53583106810E+01  0.38766354326E+02  0.40659133911E+02  0.00000000000E+00 0.  1.
         11    1    3    3    0    0 -0.25106808095E+00  0.67447130763E+00 -0.68868820182E+01  0.69243837935E+01  0.51100000000E-03 0. -1.
        -11    1    3    3    0    0  0.19483892117E+02 -0.18588359510E+01 -0.26494462365E+02  0.32939852146E+02  0.51100000000E-03 0.  1.
        -12    1    3    3    0    0 -0.82045218403E+01 -0.41739460376E+01 -0.53850099423E+01  0.10664630150E+02  0.00000000000E+00 0.  1.
</event>
<event>
 7    1  0.5019004E-011  0.5052886E+02  0.7816164E-02  0.1300439E+00
        -11   -1    0    0    0    0  0.00000000000E+00  0.00000000000E+00  0.45593999997E+02  0.45594000000E+02  0.51100000000E-03 0.  1.
         11   -1    0    0    0    0 -0.00000000000E+00 -0.00000000000E+00 -0.45593999997E+02  0.45594000000E+02  0.51100000000E-03 0. -1.
    9900012    2    1    2    0    0  0.38965248763E+02 -0.62882250551E+01 -0.97638577280E+01  0.50528864455E+02  0.30000013997E+02 0.  0.
        -12    1    1    2    0    0 -0.38965248763E+02  0.62882250551E+01  0.97638577280E+01  0.40659135545E+02  0.00000000000E+00 0.  1.
         11    1    3    3    0    0  0.28024724726E+02  0.48211976889E+01 -0.11353570546E+02  0.30619155892E+02  0.51100000000E-03 0. -1.
        -11    1    3    3    0    0  0.11426964065E+02 -0.57555356142E+01  0.47800944096E+01  0.13658367427E+02  0.51100000000E-03 0.  1.
        -12    1    3    3    0    0 -0.48644002760E+00 -0.53538871298E+01 -0.31903815918E+01  0.62513411361E+01  0.00000000000E+00 0.  1.
</event>
<event>
 7    1  0.5019004E-011  0.5052886E+02  0.7816164E-02  0.1300439E+00
        -11   -1    0    0    0    0  0.00000000000E+00  0.00000000000E+00  0.45593999997E+02  0.45594000000E+02  0.51100000000E-03 0.  1.
         11   -1    0    0    0    0 -0.00000000000E+00 -0.00000000000E+00 -0.45593999997E+02  0.45594000000E+02  0.51100000000E-03 0. -1.
    9900012    2    1    2    0    0 -0.28453183288E+02 -0.27408750618E+02 -0.96095139213E+01  0.50528855795E+02  0.29999987674E+02 0.  0.
        -12    1    1    2    0    0  0.28453183288E+02  0.27408750618E+02  0.96095139213E+01  0.40659144205E+02  0.00000000000E+00 0.  1.
         11    1    3    3    0    0 -0.31008424789E+01 -0.94465576916E+01  0.42323017502E+00  0.99514722701E+01  0.51100000000E-03 0. -1.
        -11    1    3    3    0    0 -0.15549515600E+01 -0.68713267618E+01 -0.12352320046E+02  0.14220155295E+02  0.51100000000E-03 0.  1.
        -12    1    3    3    0    0 -0.23797389250E+02 -0.11090866165E+02  0.23195759499E+01  0.26357228230E+02  0.00000000000E+00 0.  1.
</event>
<event>
 7    1  0.5019004E-011  0.5052882E+02  0.7816164E-02  0.1300439E+00
        -11   -1    0    0    0    0  0.00000000000E+00  0.00000000000E+00  0.45593999997E+02  0.45594000000E+02  0.51100000000E-03 0. -1.
         11   -1    0    0    0    0 -0.00000000000E+00 -0.00000000000E+00 -0.45593999997E+02  0.45594000000E+02  0.51100000000E-03 0.  1.
    9900012    2    1    2    0    0  0.16904821049E+02  0.36522985127E+02 -0.57851118674E+01  0.50528819774E+02  0.29999878186E+02 0.  0.
        -12    1    1    2    0    0 -0.16904821049E+02 -0.36522985127E+02  0.57851118674E+01  0.40659180226E+02  0.00000000000E+00 0.  1.
         11    1    3    3    0    0  0.11988733862E+01 -0.30752105312E+01  0.27819444492E+01  0.43166459650E+01  0.51100000000E-03 0. -1.
        -11    1    3    3    0    0  0.12603178759E+02  0.15643698044E+02 -0.90948579225E+01  0.22051799115E+02  0.51100000000E-03 0.  1.
         12    1    3    3    0    0  0.31027689045E+01  0.23954497614E+02  0.52780160583E+00  0.24160374694E+02  0.00000000000E+00 0. -1.
</event>
<event>
 7    1  0.5019004E-011  0.5052884E+02  0.7816164E-02  0.1300439E+00
        -11   -1    0    0    0    0  0.00000000000E+00  0.00000000000E+00  0.45593999997E+02  0.45594000000E+02  0.51100000000E-03 0.  1.
         11   -1    0    0    0    0 -0.00000000000E+00 -0.00000000000E+00 -0.45593999997E+02  0.45594000000E+02  0.51100000000E-03 0. -1.
    9900012    2    1    2    0    0 -0.12189281318E+02  0.22653505347E+02 -0.31486622331E+02  0.50528840277E+02  0.29999940506E+02 0.  0.
        -12    1    1    2    0    0  0.12189281318E+02 -0.22653505347E+02  0.31486622331E+02  0.40659159723E+02  0.00000000000E+00 0.  1.
         11    1    3    3    0    0 -0.48299200225E+01  0.12558446694E+02 -0.31961573848E+02  0.34678306099E+02  0.51100000000E-03 0. -1.
        -11    1    3    3    0    0 -0.58821544931E+01  0.79686752387E+00  0.21002148528E+01  0.62964785412E+01  0.51100000000E-03 0.  1.
         12    1    3    3    0    0 -0.14772068022E+01  0.92981911285E+01 -0.16252633360E+01  0.95540556368E+01  0.00000000000E+00 0. -1.
</event>
<event>
 7    1  0.5019004E-011  0.5052886E+02  0.7816164E-02  0.1300439E+00
        -11   -1    0    0    0    0  0.00000000000E+00  0.00000000000E+00  0.45593999997E+02  0.45594000000E+02  0.51100000000E-03 0.  1.
         11   -1    0    0    0    0 -0.00000000000E+00 -0.00000000000E+00 -0.45593999997E+02  0.45594000000E+02  0.51100000000E-03 0. -1.
    9900012    2    1    2    0    0  0.79920506844E+01  0.11225691453E+02 -0.38252794793E+02  0.50528864099E+02  0.30000012914E+02 0.  0.
        -12    1    1    2    0    0 -0.79920506844E+01 -0.11225691453E+02  0.38252794793E+02  0.40659135901E+02  0.00000000000E+00 0.  1.
         11    1    3    3    0    0  0.27239995908E+01  0.77934611841E+01 -0.38138677144E+01  0.90941628643E+01  0.51100000000E-03 0. -1.
        -11    1    3    3    0    0  0.71085006463E+01  0.45287859694E+01 -0.37084622522E+02  0.38030381429E+02  0.51100000000E-03 0.  1.
        -12    1    3    3    0    0 -0.18404495526E+01 -0.10965557002E+01  0.26456954428E+01  0.34043198051E+01  0.00000000000E+00 0.  1.
</event>
<event>
 7    1  0.5019004E-011  0.5052886E+02  0.7816164E-02  0.1300439E+00
        -11   -1    0    0    0    0  0.00000000000E+00  0.00000000000E+00  0.45593999997E+02  0.45594000000E+02  0.51100000000E-03 0. -1.
         11   -1    0    0    0    0 -0.00000000000E+00 -0.00000000000E+00 -0.45593999997E+02  0.45594000000E+02  0.51100000000E-03 0.  1.
    9900012    2    1    2    0    0 -0.36398118058E+02  0.27406403568E+01  0.17911780727E+02  0.50528855930E+02  0.29999988084E+02 0.  0.
        -12    1    1    2    0    0  0.36398118058E+02 -0.27406403568E+01 -0.17911780727E+02  0.40659144070E+02  0.00000000000E+00 0.  1.
         11    1    3    3    0    0 -0.39220969864E+02  0.58641516883E+01  0.14730468160E+02  0.42304366732E+02  0.51100000000E-03 0. -1.
        -11    1    3    3    0    0  0.33105410019E+01  0.97344217911E+00  0.12644126601E+01  0.36750525218E+01  0.51100000000E-03 0.  1.
         12    1    3    3    0    0 -0.48768919609E+00 -0.40969535106E+01  0.19168999066E+01  0.45494366763E+01  0.00000000000E+00 0. -1.
</event>
<event>
 7    1  0.5019004E-011  0.5052886E+02  0.7816164E-02  0.1300439E+00
        -11   -1    0    0    0    0  0.00000000000E+00  0.00000000000E+00  0.45593999997E+02  0.45594000000E+02  0.51100000000E-03 0.  1.
         11   -1    0    0    0    0 -0.00000000000E+00 -0.00000000000E+00 -0.45593999997E+02  0.45594000000E+02  0.51100000000E-03 0. -1.
    9900012    2    1    2    0    0 -0.19536274206E+02 -0.22597613469E+02 -0.27583464174E+02  0.50528860311E+02  0.30000001403E+02 0.  0.
        -12    1    1    2    0    0  0.19536274206E+02  0.22597613469E+02  0.27583464174E+02  0.40659139689E+02  0.00000000000E+00 0.  1.
         11    1    3    3    0    0 -0.19812246562E+02 -0.15902047563E+02 -0.11048674135E+02  0.27703310830E+02  0.51100000000E-03 0. -1.
        -11    1    3    3    0    0  0.37464517847E+01  0.13296619029E+01  0.16119801251E+00  0.39786790285E+01  0.51100000000E-03 0.  1.
         12    1    3    3    0    0 -0.34704794286E+01 -0.80252278095E+01 -0.16695988052E+02  0.18846870453E+02  0.00000000000E+00 0. -1.
</event>
<event>
 7    1  0.5019004E-011  0.5052886E+02  0.7816164E-02  0.1300439E+00
        -11   -1    0    0    0    0  0.00000000000E+00  0.00000000000E+00  0.45593999997E+02  0.45594000000E+02  0.51100000000E-03 0.  1.
         11   -1    0    0    0    0 -0.00000000000E+00 -0.00000000000E+00 -0.45593999997E+02  0.45594000000E+02  0.51100000000E-03 0. -1.
    9900012    2    1    2    0    0 -0.26524975758E+02 -0.98282967990E+01 -0.29206094457E+02  0.50528859449E+02  0.29999998781E+02 0.  0.
        -12    1    1    2    0    0  0.26524975758E+02  0.98282967990E+01  0.29206094457E+02  0.40659140551E+02  0.00000000000E+00 0.  1.
         11    1    3    3    0    0 -0.22889847328E+01  0.64310905980E+01 -0.27013043868E+01  0.73413502190E+01  0.51100000000E-03 0.  1.
        -11    1    3    3    0    0 -0.14242533477E+02 -0.13070275569E+02 -0.61447193142E+01  0.20283970001E+02  0.51100000000E-03 0. -1.
        -12    1    3    3    0    0 -0.99934575488E+01 -0.31891118277E+01 -0.20360070756E+02  0.22903539229E+02  0.00000000000E+00 0.  1.
</event>
<event>
 7    1  0.5019004E-011  0.5052886E+02  0.7816164E-02  0.1300439E+00
        -11   -1    0    0    0    0  0.00000000000E+00  0.00000000000E+00  0.45593999997E+02  0.45594000000E+02  0.51100000000E-03 0.  1.
         11   -1    0    0    0    0 -0.00000000000E+00 -0.00000000000E+00 -0.45593999997E+02  0.45594000000E+02  0.51100000000E-03 0. -1.
    9900012    2    1    2    0    0  0.33384375646E+02 -0.23200106815E+02 -0.63577622200E+00  0.50528859516E+02  0.29999998985E+02 0.  0.
        -12    1    1    2    0    0 -0.33384375646E+02  0.23200106815E+02  0.63577622200E+00  0.40659140484E+02  0.00000000000E+00 0.  1.
         11    1    3    3    0    0  0.22970076239E+02 -0.82785570419E+01 -0.53940818467E+01  0.25005100047E+02  0.51100000000E-03 0. -1.
        -11    1    3    3    0    0  0.57659152268E+01 -0.80935782025E+01  0.11255511444E+02  0.15014603713E+02  0.51100000000E-03 0.  1.
        -12    1    3    3    0    0  0.46483841803E+01 -0.68279715705E+01 -0.64972058194E+01  0.10509155757E+02  0.00000000000E+00 0.  1.
</event>
<event>
 7    1  0.5019004E-011  0.5052888E+02  0.7816164E-02  0.1300439E+00
        -11   -1    0    0    0    0  0.00000000000E+00  0.00000000000E+00  0.45593999997E+02  0.45594000000E+02  0.51100000000E-03 0.  1.
         11   -1    0    0    0    0 -0.00000000000E+00 -0.00000000000E+00 -0.45593999997E+02  0.45594000000E+02  0.51100000000E-03 0. -1.
    9900012    2    1    2    0    0 -0.47452786664E+01 -0.32565097615E+02 -0.23878038497E+02  0.50528880792E+02  0.30000063655E+02 0.  0.
        -12    1    1    2    0    0  0.47452786664E+01  0.32565097615E+02  0.23878038497E+02  0.40659119208E+02  0.00000000000E+00 0.  1.
         11    1    3    3    0    0  0.11108945070E+02 -0.15705235328E+02 -0.33018725280E+01  0.19518335988E+02  0.51100000000E-03 0. -1.
        -11    1    3    3    0    0 -0.12116245344E+02 -0.11963139301E+02 -0.14639635324E+02  0.22455267219E+02  0.51100000000E-03 0.  1.
         12    1    3    3    0    0 -0.37379783923E+01 -0.48967229860E+01 -0.59365306448E+01  0.85552775852E+01  0.00000000000E+00 0. -1.
</event>
<event>
 7    1  0.5019004E-011  0.5052887E+02  0.7816164E-02  0.1300439E+00
        -11   -1    0    0    0    0  0.00000000000E+00  0.00000000000E+00  0.45593999997E+02  0.45594000000E+02  0.51100000000E-03 0.  1.
         11   -1    0    0    0    0 -0.00000000000E+00 -0.00000000000E+00 -0.45593999997E+02  0.45594000000E+02  0.51100000000E-03 0. -1.
    9900012    2    1    2    0    0 -0.15704701509E+02 -0.37417809174E+02 -0.25366780898E+01  0.50528870292E+02  0.30000031740E+02 0.  0.
        -12    1    1    2    0    0  0.15704701509E+02  0.37417809174E+02  0.25366780898E+01  0.40659129708E+02  0.00000000000E+00 0.  1.
         11    1    3    3    0    0 -0.95255929206E+01 -0.21621175295E+02  0.45239022118E+01  0.24055723500E+02  0.51100000000E-03 0. -1.
        -11    1    3    3    0    0 -0.83827151595E+01  0.73801718904E+00 -0.46634771219E+01  0.96209460005E+01  0.51100000000E-03 0.  1.
        -12    1    3    3    0    0  0.22036065710E+01 -0.16534651069E+02 -0.23971031798E+01  0.16852200792E+02  0.00000000000E+00 0.  1.
</event>
<event>
 7    1  0.5019004E-011  0.5052900E+02  0.7816164E-02  0.1300438E+00
        -11   -1    0    0    0    0  0.00000000000E+00  0.00000000000E+00  0.45593999997E+02  0.45594000000E+02  0.51100000000E-03 0.  1.
         11   -1    0    0    0    0 -0.00000000000E+00 -0.00000000000E+00 -0.45593999997E+02  0.45594000000E+02  0.51100000000E-03 0. -1.
    9900012    2    1    2    0    0  0.33578746834E+02 -0.18605217703E+02  0.13396568004E+02  0.50528998549E+02  0.30000421586E+02 0.  0.
        -12    1    1    2    0    0 -0.33578746834E+02  0.18605217703E+02 -0.13396568004E+02  0.40659001451E+02  0.00000000000E+00 0.  1.
         11    1    3    3    0    0  0.29635268614E+02 -0.96294865550E+01  0.15722626438E+02  0.34902394466E+02  0.51100000000E-03 0.  1.
        -11    1    3    3    0    0  0.32655941403E+01  0.10389992586E+01 -0.41946389710E+01  0.54165137225E+01  0.51100000000E-03 0. -1.
        -12    1    3    3    0    0  0.67788408055E+00 -0.10014730406E+02  0.18685805372E+01  0.10210090360E+02  0.00000000000E+00 0.  1.
</event>
<event>
 7    1  0.5019004E-011  0.5052886E+02  0.7816164E-02  0.1300439E+00
        -11   -1    0    0    0    0  0.00000000000E+00  0.00000000000E+00  0.45593999997E+02  0.45594000000E+02  0.51100000000E-03 0. -1.
         11   -1    0    0    0    0 -0.00000000000E+00 -0.00000000000E+00 -0.45593999997E+02  0.45594000000E+02  0.51100000000E-03 0.  1.
    9900012    2    1    2    0    0  0.29496992768E+02 -0.27604332072E+02  0.45928224225E+01  0.50528858970E+02  0.29999997325E+02 0.  0.
        -12    1    1    2    0    0 -0.29496992768E+02  0.27604332072E+02 -0.45928224225E+01  0.40659141030E+02  0.00000000000E+00 0.  1.
         11    1    3    3    0    0  0.12567103961E+02 -0.10389255192E+02  0.84291562507E+01  0.18355364360E+02  0.51100000000E-03 0. -1.
        -11    1    3    3    0    0  0.52561625867E+01 -0.17479107937E+02 -0.77906054156E+01  0.19845402299E+02  0.51100000000E-03 0.  1.
        -12    1    3    3    0    0  0.11673726220E+02  0.26403105637E+00  0.39542715874E+01  0.12328092312E+02  0.00000000000E+00 0.  1.
</event>
<event>
 7    1  0.5019004E-011  0.5052886E+02  0.7816164E-02  0.1300439E+00
        -11   -1    0    0    0    0  0.00000000000E+00  0.00000000000E+00  0.45593999997E+02  0.45594000000E+02  0.51100000000E-03 0.  1.
         11   -1    0    0    0    0 -0.00000000000E+00 -0.00000000000E+00 -0.45593999997E+02  0.45594000000E+02  0.51100000000E-03 0. -1.
    9900012    2    1    2    0    0 -0.66771040541E+01 -0.28382301577E+02 -0.28337732642E+02  0.50528857699E+02  0.29999993461E+02 0.  0.
        -12    1    1    2    0    0  0.66771040541E+01  0.28382301577E+02  0.28337732642E+02  0.40659142301E+02  0.00000000000E+00 0.  1.
         11    1    3    3    0    0 -0.81710356913E+01  0.26522955374E+01 -0.10491869454E+02  0.13560229378E+02  0.51100000000E-03 0. -1.
        -11    1    3    3    0    0  0.46708178116E+01 -0.18311462946E+02 -0.13220235299E+02  0.23062975434E+02  0.51100000000E-03 0.  1.
        -12    1    3    3    0    0 -0.31768861744E+01 -0.12723134169E+02 -0.46256278890E+01  0.13905652887E+02  0.00000000000E+00 0.  1.
</event>
<event>
 7    1  0.5019004E-011  0.5052886E+02  0.7816164E-02  0.1300439E+00
        -11   -1    0    0    0    0  0.00000000000E+00  0.00000000000E+00  0.45593999997E+02  0.45594000000E+02  0.51100000000E-03 0. -1.
         11   -1    0    0    0    0 -0.00000000000E+00 -0.00000000000E+00 -0.45593999997E+02  0.45594000000E+02  0.51100000000E-03 0.  1.
    9900012    2    1    2    0    0 -0.24565680127E+02 -0.61941450948E+01  0.31801348140E+02  0.50528858136E+02  0.29999994791E+02 0.  0.
        -12    1    1    2    0    0  0.24565680127E+02  0.61941450948E+01 -0.31801348140E+02  0.40659141864E+02  0.00000000000E+00 0.  1.
         11    1    3    3    0    0 -0.17178483067E+01 -0.50000207969E+01  0.22657102741E+02  0.23265758437E+02  0.51100000000E-03 0. -1.
        -11    1    3    3    0    0 -0.17203066583E+02  0.38933736571E+01  0.39984508430E+01  0.18085670231E+02  0.51100000000E-03 0.  1.
         12    1    3    3    0    0 -0.56447652372E+01 -0.50874979550E+01  0.51457945561E+01  0.91774294680E+01  0.00000000000E+00 0. -1.
</event>
<event>
 7    1  0.5019004E-011  0.5052886E+02  0.7816164E-02  0.1300439E+00
        -11   -1    0    0    0    0  0.00000000000E+00  0.00000000000E+00  0.45593999997E+02  0.45594000000E+02  0.51100000000E-03 0. -1.
         11   -1    0    0    0    0 -0.00000000000E+00 -0.00000000000E+00 -0.45593999997E+02  0.45594000000E+02  0.51100000000E-03 0.  1.
    9900012    2    1    2    0    0 -0.68348438445E+01  0.40069222143E+02  0.95272122465E+00  0.50528864110E+02  0.30000012950E+02 0.  0.
        -12    1    1    2    0    0  0.68348438445E+01 -0.40069222143E+02 -0.95272122465E+00  0.40659135890E+02  0.00000000000E+00 0.  1.
         11    1    3    3    0    0 -0.80182403337E+01  0.27419759197E+02  0.60551055301E+01  0.29202734045E+02  0.51100000000E-03 0. -1.
        -11    1    3    3    0    0  0.83781286025E+01  0.84846147104E+01 -0.76276975753E+00  0.11948369915E+02  0.51100000000E-03 0.  1.
        -12    1    3    3    0    0 -0.71947321132E+01  0.41648482359E+01 -0.43396145480E+01  0.93777601502E+01  0.00000000000E+00 0.  1.
</event>
<event>
 7    1  0.5019004E-011  0.5052886E+02  0.7816164E-02  0.1300439E+00
        -11   -1    0    0    0    0  0.00000000000E+00  0.00000000000E+00  0.45593999997E+02  0.45594000000E+02  0.51100000000E-03 0. -1.
         11   -1    0    0    0    0 -0.00000000000E+00 -0.00000000000E+00 -0.45593999997E+02  0.45594000000E+02  0.51100000000E-03 0.  1.
    9900012    2    1    2    0    0  0.16683374481E+02  0.22582139565E+02  0.29408796240E+02  0.50528864401E+02  0.30000013833E+02 0.  0.
        -12    1    1    2    0    0 -0.16683374481E+02 -0.22582139565E+02 -0.29408796240E+02  0.40659135599E+02  0.00000000000E+00 0.  1.
         11    1    3    3    0    0 -0.48843953783E+01  0.11996123562E+02  0.12801273369E+02  0.18210900551E+02  0.51100000000E-03 0. -1.
        -11    1    3    3    0    0  0.16037089473E+02  0.10892605725E+02  0.18161873529E+02  0.26564840459E+02  0.51100000000E-03 0.  1.
         12    1    3    3    0    0  0.55306803861E+01 -0.30658972213E+00 -0.15543506585E+01  0.57531233917E+01  0.00000000000E+00 0. -1.
</event>
<event>
 7    1  0.5019004E-011  0.5052887E+02  0.7816164E-02  0.1300439E+00
        -11   -1    0    0    0    0  0.00000000000E+00  0.00000000000E+00  0.45593999997E+02  0.45594000000E+02  0.51100000000E-03 0. -1.
         11   -1    0    0    0    0 -0.00000000000E+00 -0.00000000000E+00 -0.45593999997E+02  0.45594000000E+02  0.51100000000E-03 0.  1.
    9900012    2    1    2    0    0 -0.25508031200E+02  0.31630305376E+02 -0.14244664056E+01  0.50528868450E+02  0.30000026139E+02 0.  0.
        -12    1    1    2    0    0  0.25508031200E+02 -0.31630305376E+02  0.14244664056E+01  0.40659131550E+02  0.00000000000E+00 0.  1.
         11    1    3    3    0    0 -0.98560092408E+01  0.31733612572E+02  0.43539031398E+01  0.33512975962E+02  0.51100000000E-03 0. -1.
        -11    1    3    3    0    0 -0.95335237009E+01  0.14933787107E+01 -0.29663042580E+01  0.10095405655E+02  0.51100000000E-03 0.  1.
         12    1    3    3    0    0 -0.61184982583E+01 -0.15966859062E+01 -0.28120652874E+01  0.69204868326E+01  0.00000000000E+00 0. -1.
</event>
<event>
 7    1  0.5019004E-011  0.5052887E+02  0.7816164E-02  0.1300439E+00
        -11   -1    0    0    0    0  0.00000000000E+00  0.00000000000E+00  0.45593999997E+02  0.45594000000E+02  0.51100000000E-03 0.  1.
         11   -1    0    0    0    0 -0.00000000000E+00 -0.00000000000E+00 -0.45593999997E+02  0.45594000000E+02  0.51100000000E-03 0. -1.
    9900012    2    1    2    0    0 -0.10589166897E+02  0.47692153070E+01 -0.38965228976E+02  0.50528868931E+02  0.30000027601E+02 0.  0.
        -12    1    1    2    0    0  0.10589166897E+02 -0.47692153070E+01  0.38965228976E+02  0.40659131069E+02  0.00000000000E+00 0.  1.
         11    1    3    3    0    0  0.25071525851E+00 -0.92005046680E+01 -0.18144407358E+02  0.20345310588E+02  0.51100000000E-03 0. -1.
        -11    1    3    3    0    0 -0.42819159976E+00  0.48901122715E+01  0.33114766636E+00  0.49199801943E+01  0.51100000000E-03 0.  1.
         12    1    3    3    0    0 -0.10411690555E+02  0.90796077035E+01 -0.21151969284E+02  0.25263578148E+02  0.00000000000E+00 0. -1.
</event>
<event>
 7    1  0.5019004E-011  0.5052886E+02  0.7816164E-02  0.1300439E+00
        -11   -1    0    0    0    0  0.00000000000E+00  0.00000000000E+00  0.45593999997E+02  0.45594000000E+02  0.51100000000E-03 0.  1.
         11   -1    0    0    0    0 -0.00000000000E+00 -0.00000000000E+00 -0.45593999997E+02  0.45594000000E+02  0.51100000000E-03 0. -1.
    9900012    2    1    2    0    0  0.14482084447E+02  0.16255591757E+02  0.34339340170E+02  0.50528864291E+02  0.30000013499E+02 0.  0.
        -12    1    1    2    0    0 -0.14482084447E+02 -0.16255591757E+02 -0.34339340170E+02  0.40659135709E+02  0.00000000000E+00 0.  1.
         11    1    3    3    0    0  0.57522665215E+01  0.59165712620E+01 -0.13355768770E+01  0.83593152524E+01  0.51100000000E-03 0. -1.
        -11    1    3    3    0    0 -0.19380227386E+01 -0.22154477440E+01  0.17056740800E+02  0.17308857496E+02  0.51100000000E-03 0.  1.
        -12    1    3    3    0    0  0.10667840664E+02  0.12554468239E+02  0.18618176247E+02  0.24860691542E+02  0.00000000000E+00 0.  1.
</event>
<event>
 7    1  0.5019004E-011  0.5052886E+02  0.7816164E-02  0.1300439E+00
        -11   -1    0    0    0    0  0.00000000000E+00  0.00000000000E+00  0.45593999997E+02  0.45594000000E+02  0.51100000000E-03 0.  1.
         11   -1    0    0    0    0 -0.00000000000E+00 -0.00000000000E+00 -0.45593999997E+02  0.45594000000E+02  0.51100000000E-03 0. -1.
    9900012    2    1    2    0    0 -0.78201527325E+01 -0.54686594800E+01 -0.39523472261E+02  0.50528857303E+02  0.29999992258E+02 0.  0.
        -12    1    1    2    0    0  0.78201527325E+01  0.54686594800E+01  0.39523472261E+02  0.40659142697E+02  0.00000000000E+00 0.  1.
         11    1    3    3    0    0 -0.10656767027E+02 -0.54709471822E+01 -0.26827052791E+02  0.29380073319E+02  0.51100000000E-03 0. -1.
        -11    1    3    3    0    0  0.87174944040E+01  0.40818113174E+01 -0.85647925643E+01  0.12884547499E+02  0.51100000000E-03 0.  1.
        -12    1    3    3    0    0 -0.58808801092E+01 -0.40795236151E+01 -0.41316269061E+01  0.82642364847E+01  0.00000000000E+00 0.  1.
</event>
<event>
 7    1  0.5019004E-011  0.5052886E+02  0.7816164E-02  0.1300439E+00
        -11   -1    0    0    0    0  0.00000000000E+00  0.00000000000E+00  0.45593999997E+02  0.45594000000E+02  0.51100000000E-03 0.  1.
         11   -1    0    0    0    0 -0.00000000000E+00 -0.00000000000E+00 -0.45593999997E+02  0.45594000000E+02  0.51100000000E-03 0. -1.
    9900012    2    1    2    0    0  0.35477451794E+01 -0.39644980274E+00 -0.40502127825E+02  0.50528855560E+02  0.29999986959E+02 0.  0.
        -12    1    1    2    0    0 -0.35477451794E+01  0.39644980274E+00  0.40502127825E+02  0.40659144440E+02  0.00000000000E+00 0.  1.
         11    1    3    3    0    0  0.15763277069E+01  0.16974005813E+01 -0.76473606943E+01  0.79905008368E+01  0.51100000000E-03 0.  1.
        -11    1    3    3    0    0  0.11045150663E+02  0.63504779756E+01 -0.88202015384E+01  0.15495801984E+02  0.51100000000E-03 0. -1.
        -12    1    3    3    0    0 -0.90737331904E+01 -0.84443283597E+01 -0.24034565592E+02  0.27042552739E+02  0.00000000000E+00 0.  1.
</event>
<event>
 7    1  0.5019004E-011  0.5052886E+02  0.7816164E-02  0.1300439E+00
        -11   -1    0    0    0    0  0.00000000000E+00  0.00000000000E+00  0.45593999997E+02  0.45594000000E+02  0.51100000000E-03 0.  1.
         11   -1    0    0    0    0 -0.00000000000E+00 -0.00000000000E+00 -0.45593999997E+02  0.45594000000E+02  0.51100000000E-03 0. -1.
    9900012    2    1    2    0    0 -0.26541774792E+02  0.30041320683E+02 -0.67984366989E+01  0.50528862048E+02  0.30000006682E+02 0.  0.
        -12    1    1    2    0    0  0.26541774792E+02 -0.30041320683E+02  0.67984366989E+01  0.40659137952E+02  0.00000000000E+00 0.  1.
         11    1    3    3    0    0 -0.10206586356E+01  0.19205654849E+02  0.13325574082E+01  0.19278864898E+02  0.51100000000E-03 0. -1.
        -11    1    3    3    0    0 -0.13664537787E+02  0.52094543687E+01  0.18794857523E+01  0.14744167481E+02  0.51100000000E-03 0.  1.
         12    1    3    3    0    0 -0.11856578369E+02  0.56262114648E+01 -0.10010479859E+02  0.16505829669E+02  0.00000000000E+00 0. -1.
</event>
<event>
 7    1  0.5019004E-011  0.5052887E+02  0.7816164E-02  0.1300439E+00
        -11   -1    0    0    0    0  0.00000000000E+00  0.00000000000E+00  0.45593999997E+02  0.45594000000E+02  0.51100000000E-03 0.  1.
         11   -1    0    0    0    0 -0.00000000000E+00 -0.00000000000E+00 -0.45593999997E+02  0.45594000000E+02  0.51100000000E-03 0. -1.
    9900012    2    1    2    0    0  0.91426454935E+01 -0.25349540222E+02 -0.30446311173E+02  0.50528867937E+02  0.30000024582E+02 0.  0.
        -12    1    1    2    0    0 -0.91426454935E+01  0.25349540222E+02  0.30446311173E+02  0.40659132063E+02  0.00000000000E+00 0.  1.
         11    1    3    3    0    0  0.16448845086E+02 -0.14205187626E+02 -0.29786314646E+02  0.36872434157E+02  0.51100000000E-03 0. -1.
        -11    1    3    3    0    0 -0.35464615683E+01 -0.63934797270E+01  0.98809481389E+00  0.73776896314E+01  0.51100000000E-03 0.  1.
         12    1    3    3    0    0 -0.37597380243E+01 -0.47508728686E+01 -0.16480913402E+01  0.62787441492E+01  0.00000000000E+00 0. -1.
</event>
<event>
 7    1  0.5019004E-011  0.5052884E+02  0.7816164E-02  0.1300439E+00
        -11   -1    0    0    0    0  0.00000000000E+00  0.00000000000E+00  0.45593999997E+02  0.45594000000E+02  0.51100000000E-03 0.  1.
         11   -1    0    0    0    0 -0.00000000000E+00 -0.00000000000E+00 -0.45593999997E+02  0.45594000000E+02  0.51100000000E-03 0. -1.
    9900012    2    1    2    0    0  0.12219455417E+02 -0.15254563515E+02 -0.35653193474E+02  0.50528843546E+02  0.29999950441E+02 0.  0.
        -12    1    1    2    0    0 -0.12219455417E+02  0.15254563515E+02  0.35653193474E+02  0.40659156454E+02  0.00000000000E+00 0.  1.
         11    1    3    3    0    0 -0.12978463575E+01 -0.17761857469E+02 -0.29404908526E+02  0.34377560000E+02  0.51100000000E-03 0. -1.
        -11    1    3    3    0    0  0.90992946094E+01 -0.11196283861E+01 -0.41318058251E+01  0.10055970851E+02  0.51100000000E-03 0.  1.
         12    1    3    3    0    0  0.44180071650E+01  0.36269223400E+01 -0.21164791229E+01  0.60953126948E+01  0.00000000000E+00 0. -1.
</event>
<event>
 7    1  0.5019004E-011  0.5052891E+02  0.7816164E-02  0.1300439E+00
        -11   -1    0    0    0    0  0.00000000000E+00  0.00000000000E+00  0.45593999997E+02  0.45594000000E+02  0.51100000000E-03 0.  1.
         11   -1    0    0    0    0 -0.00000000000E+00 -0.00000000000E+00 -0.45593999997E+02  0.45594000000E+02  0.51100000000E-03 0. -1.
    9900012    2    1    2    0    0 -0.35401267611E+02  0.11315823193E+02 -0.16488289683E+02  0.50528913689E+02  0.30000163649E+02 0.  0.
        -12    1    1    2    0    0  0.35401267611E+02 -0.11315823193E+02  0.16488289683E+02  0.40659086311E+02  0.00000000000E+00 0.  1.
         11    1    3    3    0    0 -0.32543660602E+02  0.75798323717E+01 -0.12853743927E+02  0.35801709979E+02  0.51100000000E-03 0. -1.
        -11    1    3    3    0    0  0.30512843487E+01 -0.15138019543E+01  0.28986133895E+01  0.44725711147E+01  0.51100000000E-03 0.  1.
        -12    1    3    3    0    0 -0.59088913569E+01  0.52497927754E+01 -0.65331591456E+01  0.10254632596E+02  0.00000000000E+00 0.  1.
</event>
<event>
 7    1  0.5019004E-011  0.5052886E+02  0.7816164E-02  0.1300439E+00
        -11   -1    0    0    0    0  0.00000000000E+00  0.00000000000E+00  0.45593999997E+02  0.45594000000E+02  0.51100000000E-03 0. -1.
         11   -1    0    0    0    0 -0.00000000000E+00 -0.00000000000E+00 -0.45593999997E+02  0.45594000000E+02  0.51100000000E-03 0.  1.
    9900012    2    1    2    0    0  0.27072334343E+02  0.29079529673E+02  0.86391781536E+01  0.50528859183E+02  0.29999997974E+02 0.  0.
        -12    1    1    2    0    0 -0.27072334343E+02 -0.29079529673E+02 -0.86391781536E+01  0.40659140817E+02  0.00000000000E+00 0.  1.
         11    1    3    3    0    0  0.21403929775E+02  0.14279344355E+02 -0.16881520828E+01  0.25785223341E+02  0.51100000000E-03 0. -1.
        -11    1    3    3    0    0  0.47547697266E+01  0.13931659561E+02  0.14332030814E+02  0.20545220388E+02  0.51100000000E-03 0.  1.
         12    1    3    3    0    0  0.91363484179E+00  0.86852575717E+00 -0.40047005776E+01  0.41984154548E+01  0.00000000000E+00 0. -1.
</event>
<event>
 7    1  0.5019004E-011  0.5052886E+02  0.7816164E-02  0.1300439E+00
        -11   -1    0    0    0    0  0.00000000000E+00  0.00000000000E+00  0.45593999997E+02  0.45594000000E+02  0.51100000000E-03 0.  1.
         11   -1    0    0    0    0 -0.00000000000E+00 -0.00000000000E+00 -0.45593999997E+02  0.45594000000E+02  0.51100000000E-03 0. -1.
    9900012    2    1    2    0    0  0.34897687165E+02 -0.84700204203E+01 -0.19067664540E+02  0.50528860235E+02  0.30000001171E+02 0.  0.
        -12    1    1    2    0    0 -0.34897687165E+02  0.84700204203E+01  0.19067664540E+02  0.40659139765E+02  0.00000000000E+00 0.  1.
         11    1    3    3    0    0  0.14794368746E+02 -0.28396771449E+01 -0.18657393270E+02  0.23979896513E+02  0.51100000000E-03 0. -1.
        -11    1    3    3    0    0  0.16020762815E+02 -0.42338803420E+00  0.62115211523E+01  0.17187992724E+02  0.51100000000E-03 0.  1.
        -12    1    3    3    0    0  0.40825556042E+01 -0.52069552412E+01 -0.66217924220E+01  0.93609709980E+01  0.00000000000E+00 0.  1.
</event>
<event>
 7    1  0.5019004E-011  0.5052886E+02  0.7816164E-02  0.1300439E+00
        -11   -1    0    0    0    0  0.00000000000E+00  0.00000000000E+00  0.45593999997E+02  0.45594000000E+02  0.51100000000E-03 0.  1.
         11   -1    0    0    0    0 -0.00000000000E+00 -0.00000000000E+00 -0.45593999997E+02  0.45594000000E+02  0.51100000000E-03 0. -1.
    9900012    2    1    2    0    0  0.25328251939E+01  0.31183214174E+02 -0.25968394372E+02  0.50528861348E+02  0.30000004553E+02 0.  0.
        -12    1    1    2    0    0 -0.25328251939E+01 -0.31183214174E+02  0.25968394372E+02  0.40659138652E+02  0.00000000000E+00 0.  1.
         11    1    3    3    0    0 -0.87867925473E+01  0.14705811516E+02 -0.17322517819E+02  0.24362640240E+02  0.51100000000E-03 0. -1.
        -11    1    3    3    0    0  0.14694268174E+02  0.11412101299E+02 -0.62928446354E+01  0.19640709434E+02  0.51100000000E-03 0.  1.
        -12    1    3    3    0    0 -0.33746504324E+01  0.50653013589E+01 -0.23530319176E+01  0.65255116736E+01  0.00000000000E+00 0.  1.
</event>
<event>
 7    1  0.5019004E-011  0.5052887E+02  0.7816164E-02  0.1300439E+00
        -11   -1    0    0    0    0  0.00000000000E+00  0.00000000000E+00  0.45593999997E+02  0.45594000000E+02  0.51100000000E-03 0.  1.
         11   -1    0    0    0    0 -0.00000000000E+00 -0.00000000000E+00 -0.45593999997E+02  0.45594000000E+02  0.51100000000E-03 0. -1.
    9900012    2    1    2    0    0  0.29361005673E+02 -0.70399624134E+00 -0.28117626179E+02  0.50528866133E+02  0.30000019099E+02 0.  0.
        -12    1    1    2    0    0 -0.29361005673E+02  0.70399624134E+00  0.28117626179E+02  0.40659133867E+02  0.00000000000E+00 0.  1.
         11    1    3    3    0    0  0.34973397468E+01 -0.70346446222E+01 -0.15839366147E+02  0.17680586259E+02  0.51100000000E-03 0. -1.
        -11    1    3    3    0    0  0.26914109905E+02  0.43561106258E+01 -0.13362420826E+02  0.30362794706E+02  0.51100000000E-03 0.  1.
        -12    1    3    3    0    0 -0.10504439790E+01  0.19745377551E+01  0.10841607929E+01  0.24854851688E+01  0.00000000000E+00 0.  1.
</event>
<event>
 7    1  0.5019004E-011  0.5052887E+02  0.7816164E-02  0.1300439E+00
        -11   -1    0    0    0    0  0.00000000000E+00  0.00000000000E+00  0.45593999997E+02  0.45594000000E+02  0.51100000000E-03 0.  1.
         11   -1    0    0    0    0 -0.00000000000E+00 -0.00000000000E+00 -0.45593999997E+02  0.45594000000E+02  0.51100000000E-03 0. -1.
    9900012    2    1    2    0    0 -0.13596958768E+02  0.18102978324E+02 -0.33772319633E+02  0.50528872054E+02  0.30000037094E+02 0.  0.
        -12    1    1    2    0    0  0.13596958768E+02 -0.18102978324E+02  0.33772319633E+02  0.40659127946E+02  0.00000000000E+00 0.  1.
         11    1    3    3    0    0 -0.11997378525E+02  0.12780124499E+02 -0.14798958382E+02  0.22940746351E+02  0.51100000000E-03 0. -1.
        -11    1    3    3    0    0  0.87713772955E+00 -0.61321794075E+01 -0.13074164158E+02  0.14467438044E+02  0.51100000000E-03 0.  1.
        -12    1    3    3    0    0 -0.24767179734E+01  0.11455033233E+02 -0.58991970927E+01  0.13120687658E+02  0.00000000000E+00 0.  1.
</event>
<event>
 7    1  0.5019004E-011  0.5052886E+02  0.7816164E-02  0.1300439E+00
        -11   -1    0    0    0    0  0.00000000000E+00  0.00000000000E+00  0.45593999997E+02  0.45594000000E+02  0.51100000000E-03 0. -1.
         11   -1    0    0    0    0 -0.00000000000E+00 -0.00000000000E+00 -0.45593999997E+02  0.45594000000E+02  0.51100000000E-03 0.  1.
    9900012    2    1    2    0    0 -0.16738111474E+02  0.25779093281E+02  0.26616535493E+02  0.50528856037E+02  0.29999988411E+02 0.  0.
        -12    1    1    2    0    0  0.16738111474E+02 -0.25779093281E+02 -0.26616535493E+02  0.40659143963E+02  0.00000000000E+00 0.  1.
         11    1    3    3    0    0 -0.17327627417E+02  0.43036918209E+01  0.58868781757E+01  0.18799568349E+02  0.51100000000E-03 0. -1.
        -11    1    3    3    0    0  0.11171592644E+01  0.14560370654E+02  0.66743450000E+01  0.16056130289E+02  0.51100000000E-03 0.  1.
        -12    1    3    3    0    0 -0.52764332162E+00  0.69150308058E+01  0.14055312317E+02  0.15673157399E+02  0.00000000000E+00 0.  1.
</event>
<event>
 7    1  0.5019004E-011  0.5052885E+02  0.7816164E-02  0.1300439E+00
        -11   -1    0    0    0    0  0.00000000000E+00  0.00000000000E+00  0.45593999997E+02  0.45594000000E+02  0.51100000000E-03 0.  1.
         11   -1    0    0    0    0 -0.00000000000E+00 -0.00000000000E+00 -0.45593999997E+02  0.45594000000E+02  0.51100000000E-03 0. -1.
    9900012    2    1    2    0    0  0.13792888731E+02 -0.36812413631E+02  0.10381180431E+02  0.50528849935E+02  0.29999969863E+02 0.  0.
        -12    1    1    2    0    0 -0.13792888731E+02  0.36812413631E+02 -0.10381180431E+02  0.40659150065E+02  0.00000000000E+00 0.  1.
         11    1    3    3    0    0  0.68975347106E+01 -0.27366588377E+02 -0.48122854876E+01  0.28629778839E+02  0.51100000000E-03 0. -1.
        -11    1    3    3    0    0 -0.76006684530E+00  0.13178996447E+01 -0.28829254477E+00  0.15484424223E+01  0.51100000000E-03 0.  1.
         12    1    3    3    0    0  0.76554208659E+01 -0.10763724899E+02  0.15481758463E+02  0.20350628674E+02  0.00000000000E+00 0. -1.
</event>
<event>
 7    1  0.5019004E-011  0.5052888E+02  0.7816164E-02  0.1300439E+00
        -11   -1    0    0    0    0  0.00000000000E+00  0.00000000000E+00  0.45593999997E+02  0.45594000000E+02  0.51100000000E-03 0. -1.
         11   -1    0    0    0    0 -0.00000000000E+00 -0.00000000000E+00 -0.45593999997E+02  0.45594000000E+02  0.51100000000E-03 0.  1.
    9900012    2    1    2    0    0  0.60362213695E+01  0.39283753117E+01  0.40016195275E+02  0.50528880663E+02  0.30000063262E+02 0.  0.
        -12    1    1    2    0    0 -0.60362213695E+01 -0.39283753117E+01 -0.40016195275E+02  0.40659119337E+02  0.00000000000E+00 0.  1.
         11    1    3    3    0    0 -0.48243044785E+00 -0.10451545311E+02  0.10292384519E+02  0.14676536304E+02  0.51100000000E-03 0.  1.
        -11    1    3    3    0    0  0.98478578607E+01  0.74308486719E+01  0.18677705200E+02  0.22384246430E+02  0.51100000000E-03 0. -1.
        -12    1    3    3    0    0 -0.33292060434E+01  0.69490719513E+01  0.11046105556E+02  0.13468097929E+02  0.00000000000E+00 0.  1.
</event>
<event>
 7    1  0.5019004E-011  0.5052886E+02  0.7816164E-02  0.1300439E+00
        -11   -1    0    0    0    0  0.00000000000E+00  0.00000000000E+00  0.45593999997E+02  0.45594000000E+02  0.51100000000E-03 0.  1.
         11   -1    0    0    0    0 -0.00000000000E+00 -0.00000000000E+00 -0.45593999997E+02  0.45594000000E+02  0.51100000000E-03 0. -1.
    9900012    2    1    2    0    0 -0.65705831260E+01 -0.40061180150E+02  0.22571790627E+01  0.50528861114E+02  0.30000003842E+02 0.  0.
        -12    1    1    2    0    0  0.65705831260E+01  0.40061180150E+02 -0.22571790627E+01  0.40659138886E+02  0.00000000000E+00 0.  1.
         11    1    3    3    0    0 -0.11878193132E+01 -0.20448215374E+02  0.11597773220E+02  0.23538240602E+02  0.51100000000E-03 0. -1.
        -11    1    3    3    0    0 -0.61533059412E+01 -0.38669954153E+01 -0.85283602874E+01  0.11204898795E+02  0.51100000000E-03 0.  1.
         12    1    3    3    0    0  0.77054212842E+00 -0.15745969360E+02 -0.81223386984E+00  0.15785721717E+02  0.00000000000E+00 0. -1.
</event>
<event>
 7    1  0.5019004E-011  0.5052887E+02  0.7816164E-02  0.1300439E+00
        -11   -1    0    0    0    0  0.00000000000E+00  0.00000000000E+00  0.45593999997E+02  0.45594000000E+02  0.51100000000E-03 0.  1.
         11   -1    0    0    0    0 -0.00000000000E+00 -0.00000000000E+00 -0.45593999997E+02  0.45594000000E+02  0.51100000000E-03 0. -1.
    9900012    2    1    2    0    0 -0.11341716691E+02  0.30390569981E+02 -0.24514157249E+02  0.50528865886E+02  0.30000018346E+02 0.  0.
        -12    1    1    2    0    0  0.11341716691E+02 -0.30390569981E+02  0.24514157249E+02  0.40659134114E+02  0.00000000000E+00 0.  1.
         11    1    3    3    0    0 -0.15645631606E+02  0.10673949439E+02 -0.12374270244E+02  0.22623915429E+02  0.51100000000E-03 0. -1.
        -11    1    3    3    0    0  0.56821950195E+01  0.43684332415E+01  0.15033563063E+01  0.73232936354E+01  0.51100000000E-03 0.  1.
         12    1    3    3    0    0 -0.13782801044E+01  0.15348187301E+02 -0.13643243312E+02  0.20581656822E+02  0.00000000000E+00 0. -1.
</event>
<event>
 7    1  0.5019004E-011  0.5052888E+02  0.7816164E-02  0.1300439E+00
        -11   -1    0    0    0    0  0.00000000000E+00  0.00000000000E+00  0.45593999997E+02  0.45594000000E+02  0.51100000000E-03 0.  1.
         11   -1    0    0    0    0 -0.00000000000E+00 -0.00000000000E+00 -0.45593999997E+02  0.45594000000E+02  0.51100000000E-03 0. -1.
    9900012    2    1    2    0    0  0.32166641164E+02 -0.83950892274E+01 -0.23409265140E+02  0.50528880220E+02  0.30000061915E+02 0.  0.
        -12    1    1    2    0    0 -0.32166641164E+02  0.83950892274E+01  0.23409265140E+02  0.40659119780E+02  0.00000000000E+00 0.  1.
         11    1    3    3    0    0  0.30593257828E+01 -0.38555994642E+01 -0.12134522910E+02  0.13094722907E+02  0.51100000000E-03 0. -1.
        -11    1    3    3    0    0  0.28350351774E+02  0.23667135357E+01 -0.10935438070E+02  0.30478313351E+02  0.51100000000E-03 0.  1.
        -12    1    3    3    0    0  0.75696360679E+00 -0.69062032989E+01 -0.33930415958E+00  0.69558439618E+01  0.00000000000E+00 0.  1.
</event>
<event>
 7    1  0.5019004E-011  0.5052890E+02  0.7816164E-02  0.1300439E+00
        -11   -1    0    0    0    0  0.00000000000E+00  0.00000000000E+00  0.45593999997E+02  0.45594000000E+02  0.51100000000E-03 0.  1.
         11   -1    0    0    0    0 -0.00000000000E+00 -0.00000000000E+00 -0.45593999997E+02  0.45594000000E+02  0.51100000000E-03 0. -1.
    9900012    2    1    2    0    0  0.31463283373E+02 -0.87222577036E+01 -0.24231105510E+02  0.50528899490E+02  0.30000120488E+02 0.  0.
        -12    1    1    2    0    0 -0.31463283373E+02  0.87222577036E+01  0.24231105510E+02  0.40659100510E+02  0.00000000000E+00 0.  1.
         11    1    3    3    0    0  0.24131418688E+02 -0.17245981315E+02 -0.22894690841E+02  0.37468868523E+02  0.51100000000E-03 0. -1.
        -11    1    3    3    0    0  0.37414050777E+01  0.68662621937E+01  0.17866656055E+01  0.80209627050E+01  0.51100000000E-03 0.  1.
         12    1    3    3    0    0  0.35904596076E+01  0.16574614177E+01 -0.31230802750E+01  0.50390682619E+01  0.00000000000E+00 0. -1.
</event>
<event>
 7    1  0.5019004E-011  0.5052886E+02  0.7816164E-02  0.1300439E+00
        -11   -1    0    0    0    0  0.00000000000E+00  0.00000000000E+00  0.45593999997E+02  0.45594000000E+02  0.51100000000E-03 0.  1.
         11   -1    0    0    0    0 -0.00000000000E+00 -0.00000000000E+00 -0.45593999997E+02  0.45594000000E+02  0.51100000000E-03 0. -1.
    9900012    2    1    2    0    0 -0.24440401283E+02  0.90056216025E+01 -0.31220686814E+02  0.50528859324E+02  0.29999998402E+02 0.  0.
        -12    1    1    2    0    0  0.24440401283E+02 -0.90056216025E+01  0.31220686814E+02  0.40659140676E+02  0.00000000000E+00 0.  1.
         11    1    3    3    0    0 -0.15101600769E+01 -0.36531315591E+00 -0.14204891171E+02  0.14289610582E+02  0.51100000000E-03 0. -1.
        -11    1    3    3    0    0 -0.20348458116E+02  0.63734635439E+01 -0.28276747079E+01  0.21509917009E+02  0.51100000000E-03 0.  1.
        -12    1    3    3    0    0 -0.25817830908E+01  0.29974712145E+01 -0.14188120936E+02  0.14729331733E+02  0.00000000000E+00 0.  1.
</event>
<event>
 7    1  0.5019004E-011  0.5052886E+02  0.7816164E-02  0.1300439E+00
        -11   -1    0    0    0    0  0.00000000000E+00  0.00000000000E+00  0.45593999997E+02  0.45594000000E+02  0.51100000000E-03 0. -1.
         11   -1    0    0    0    0 -0.00000000000E+00 -0.00000000000E+00 -0.45593999997E+02  0.45594000000E+02  0.51100000000E-03 0.  1.
    9900012    2    1    2    0    0  0.31360902138E+02  0.68829939210E+01  0.24945614132E+02  0.50528862618E+02  0.30000008415E+02 0.  0.
        -12    1    1    2    0    0 -0.31360902138E+02 -0.68829939210E+01 -0.24945614132E+02  0.40659137382E+02  0.00000000000E+00 0.  1.
         11    1    3    3    0    0  0.97506264872E+01 -0.41767422262E+01  0.99561498612E+00  0.10654160783E+02  0.51100000000E-03 0. -1.
        -11    1    3    3    0    0  0.13191548279E+02 -0.23280837194E+01  0.19107228330E+02  0.23335018631E+02  0.51100000000E-03 0.  1.
        -12    1    3    3    0    0  0.84187273716E+01  0.13387819867E+02  0.48427708155E+01  0.16539683205E+02  0.00000000000E+00 0.  1.
</event>
<event>
 7    1  0.5019004E-011  0.5052886E+02  0.7816164E-02  0.1300439E+00
        -11   -1    0    0    0    0  0.00000000000E+00  0.00000000000E+00  0.45593999997E+02  0.45594000000E+02  0.51100000000E-03 0. -1.
         11   -1    0    0    0    0 -0.00000000000E+00 -0.00000000000E+00 -0.45593999997E+02  0.45594000000E+02  0.51100000000E-03 0.  1.
    9900012    2    1    2    0    0  0.23622805209E+02  0.26987862267E+02  0.19151608574E+02  0.50528859003E+02  0.29999997424E+02 0.  0.
        -12    1    1    2    0    0 -0.23622805209E+02 -0.26987862267E+02 -0.19151608574E+02  0.40659140997E+02  0.00000000000E+00 0.  1.
         11    1    3    3    0    0  0.12620334252E+02  0.27600101259E+01  0.10118172899E+02  0.16409384985E+02  0.51100000000E-03 0. -1.
        -11    1    3    3    0    0 -0.53326494272E+01  0.93775079957E+01  0.37362860154E+01  0.11416419735E+02  0.51100000000E-03 0.  1.
        -12    1    3    3    0    0  0.16335120384E+02  0.14850344146E+02  0.52971496590E+01  0.22703054282E+02  0.00000000000E+00 0.  1.
</event>
<event>
 7    1  0.5019004E-011  0.5052887E+02  0.7816164E-02  0.1300439E+00
        -11   -1    0    0    0    0  0.00000000000E+00  0.00000000000E+00  0.45593999997E+02  0.45594000000E+02  0.51100000000E-03 0.  1.
         11   -1    0    0    0    0 -0.00000000000E+00 -0.00000000000E+00 -0.45593999997E+02  0.45594000000E+02  0.51100000000E-03 0. -1.
    9900012    2    1    2    0    0  0.18178615031E+02 -0.34600819336E+02 -0.11202056104E+02  0.50528870593E+02  0.30000032654E+02 0.  0.
        -12    1    1    2    0    0 -0.18178615031E+02  0.34600819336E+02  0.11202056104E+02  0.40659129407E+02  0.00000000000E+00 0.  1.
         11    1    3    3    0    0  0.16632617057E+02 -0.18473794685E+02  0.64127046544E+01  0.25671926719E+02  0.51100000000E-03 0. -1.
        -11    1    3    3    0    0 -0.20752832822E+01 -0.18230411347E+01 -0.23520865767E+01  0.36280285563E+01  0.51100000000E-03 0.  1.
         12    1    3    3    0    0  0.36212812560E+01 -0.14303983517E+02 -0.15262674181E+02  0.21228915317E+02  0.00000000000E+00 0. -1.
</event>
<event>
 7    1  0.5019004E-011  0.5052885E+02  0.7816164E-02  0.1300439E+00
        -11   -1    0    0    0    0  0.00000000000E+00  0.00000000000E+00  0.45593999997E+02  0.45594000000E+02  0.51100000000E-03 0. -1.
         11   -1    0    0    0    0 -0.00000000000E+00 -0.00000000000E+00 -0.45593999997E+02  0.45594000000E+02  0.51100000000E-03 0.  1.
    9900012    2    1    2    0    0 -0.39298107180E+02 -0.61226497949E+01  0.84461834918E+01  0.50528854854E+02  0.29999984815E+02 0.  0.
        -12    1    1    2    0    0  0.39298107180E+02  0.61226497949E+01 -0.84461834918E+01  0.40659145146E+02  0.00000000000E+00 0.  1.
         11    1    3    3    0    0 -0.19809292584E+02 -0.74689399485E+01 -0.32888241881E+01  0.21424507029E+02  0.51100000000E-03 0. -1.
        -11    1    3    3    0    0 -0.30254637191E+01 -0.53128945335E+01  0.93702472747E+01  0.11188467870E+02  0.51100000000E-03 0.  1.
        -12    1    3    3    0    0 -0.16463350876E+02  0.66591846871E+01  0.23647604052E+01  0.17915879954E+02  0.00000000000E+00 0.  1.
</event>
<event>
 7    1  0.5019004E-011  0.5052891E+02  0.7816164E-02  0.1300439E+00
        -11   -1    0    0    0    0  0.00000000000E+00  0.00000000000E+00  0.45593999997E+02  0.45594000000E+02  0.51100000000E-03 0.  1.
         11   -1    0    0    0    0 -0.00000000000E+00 -0.00000000000E+00 -0.45593999997E+02  0.45594000000E+02  0.51100000000E-03 0. -1.
    9900012    2    1    2    0    0 -0.28648427891E+02 -0.35037606435E+01 -0.28638304215E+02  0.50528914575E+02  0.30000166343E+02 0.  0.
        -12    1    1    2    0    0  0.28648427891E+02  0.35037606435E+01  0.28638304215E+02  0.40659085425E+02  0.00000000000E+00 0.  1.
         11    1    3    3    0    0 -0.85362445607E+01  0.10832441074E+02 -0.67426650512E+01  0.15351637798E+02  0.51100000000E-03 0. -1.
        -11    1    3    3    0    0 -0.98369863768E+01 -0.12106903172E+02 -0.73888247398E+01  0.17260884586E+02  0.51100000000E-03 0.  1.
        -12    1    3    3    0    0 -0.10275196953E+02 -0.22292985459E+01 -0.14506814424E+02  0.17916392191E+02  0.00000000000E+00 0.  1.
</event>
<event>
 7    1  0.5019004E-011  0.5052886E+02  0.7816164E-02  0.1300439E+00
        -11   -1    0    0    0    0  0.00000000000E+00  0.00000000000E+00  0.45593999997E+02  0.45594000000E+02  0.51100000000E-03 0. -1.
         11   -1    0    0    0    0 -0.00000000000E+00 -0.00000000000E+00 -0.45593999997E+02  0.45594000000E+02  0.51100000000E-03 0.  1.
    9900012    2    1    2    0    0 -0.82438972315E+01 -0.39161948445E+02  0.71795301676E+01  0.50528859564E+02  0.29999999130E+02 0.  0.
        -12    1    1    2    0    0  0.82438972315E+01  0.39161948445E+02 -0.71795301676E+01  0.40659140436E+02  0.00000000000E+00 0.  1.
         11    1    3    3    0    0 -0.66208853297E+01 -0.97473080495E+01  0.65060224886E+01  0.13460106450E+02  0.51100000000E-03 0. -1.
        -11    1    3    3    0    0  0.13137661660E+01 -0.32274908457E+02  0.28503536258E+01  0.32427152411E+02  0.51100000000E-03 0.  1.
        -12    1    3    3    0    0 -0.29367780678E+01  0.28602680616E+01 -0.21768459468E+01  0.46416007023E+01  0.00000000000E+00 0.  1.
</event>
<event>
 7    1  0.5019004E-011  0.5052888E+02  0.7816164E-02  0.1300439E+00
        -11   -1    0    0    0    0  0.00000000000E+00  0.00000000000E+00  0.45593999997E+02  0.45594000000E+02  0.51100000000E-03 0. -1.
         11   -1    0    0    0    0 -0.00000000000E+00 -0.00000000000E+00 -0.45593999997E+02  0.45594000000E+02  0.51100000000E-03 0.  1.
    9900012    2    1    2    0    0 -0.25776118943E+02 -0.30193094987E+02  0.87825196881E+01  0.50528881162E+02  0.30000064779E+02 0.  0.
        -12    1    1    2    0    0  0.25776118943E+02  0.30193094987E+02 -0.87825196881E+01  0.40659118838E+02  0.00000000000E+00 0.  1.
         11    1    3    3    0    0 -0.97736056190E+00 -0.10271655710E+02  0.56834404419E+01  0.11779797970E+02  0.51100000000E-03 0. -1.
        -11    1    3    3    0    0 -0.21501264740E+02 -0.24738391340E+02  0.22978917284E+01  0.32856851617E+02  0.51100000000E-03 0.  1.
        -12    1    3    3    0    0 -0.32974936408E+01  0.48169520636E+01  0.80118751777E+00  0.58922315750E+01  0.00000000000E+00 0.  1.
</event>
<event>
 7    1  0.5019004E-011  0.5052886E+02  0.7816164E-02  0.1300439E+00
        -11   -1    0    0    0    0  0.00000000000E+00  0.00000000000E+00  0.45593999997E+02  0.45594000000E+02  0.51100000000E-03 0.  1.
         11   -1    0    0    0    0 -0.00000000000E+00 -0.00000000000E+00 -0.45593999997E+02  0.45594000000E+02  0.51100000000E-03 0. -1.
    9900012    2    1    2    0    0  0.15557372529E+02 -0.29105430249E+02 -0.23748847350E+02  0.50528860062E+02  0.30000000645E+02 0.  0.
        -12    1    1    2    0    0 -0.15557372529E+02  0.29105430249E+02  0.23748847350E+02  0.40659139938E+02  0.00000000000E+00 0.  1.
         11    1    3    3    0    0  0.18953288349E+02 -0.18361108680E+02 -0.14431336235E+02  0.30076916680E+02  0.51100000000E-03 0.  1.
        -11    1    3    3    0    0 -0.40647905955E+01  0.66565321164E+00 -0.79333330643E+01  0.89388696464E+01  0.51100000000E-03 0. -1.
         12    1    3    3    0    0  0.66887477535E+00 -0.11409974781E+02 -0.13841780514E+01  0.11513073736E+02  0.00000000000E+00 0. -1.
</event>
<event>
 7    1  0.5019004E-011  0.5052886E+02  0.7816164E-02  0.1300439E+00
        -11   -1    0    0    0    0  0.00000000000E+00  0.00000000000E+00  0.45593999997E+02  0.45594000000E+02  0.51100000000E-03 0. -1.
         11   -1    0    0    0    0 -0.00000000000E+00 -0.00000000000E+00 -0.45593999997E+02  0.45594000000E+02  0.51100000000E-03 0.  1.
    9900012    2    1    2    0    0  0.37034205314E+02 -0.16537453403E+02  0.28541019002E+01  0.50528860487E+02  0.30000001935E+02 0.  0.
        -12    1    1    2    0    0 -0.37034205314E+02  0.16537453403E+02 -0.28541019002E+01  0.40659139513E+02  0.00000000000E+00 0.  1.
         11    1    3    3    0    0  0.37287923794E+02 -0.15519473342E+02  0.60247207297E+01  0.40835530777E+02  0.51100000000E-03 0. -1.
        -11    1    3    3    0    0  0.27115345769E+01  0.36636233922E+00 -0.51764006055E+01  0.58550631606E+01  0.51100000000E-03 0.  1.
         12    1    3    3    0    0 -0.29652530567E+01 -0.13843424000E+01  0.20057817760E+01  0.38382665493E+01  0.00000000000E+00 0. -1.
</event>
<event>
 7    1  0.5019004E-011  0.5052887E+02  0.7816164E-02  0.1300439E+00
        -11   -1    0    0    0    0  0.00000000000E+00  0.00000000000E+00  0.45593999997E+02  0.45594000000E+02  0.51100000000E-03 0. -1.
         11   -1    0    0    0    0 -0.00000000000E+00 -0.00000000000E+00 -0.45593999997E+02  0.45594000000E+02  0.51100000000E-03 0.  1.
    9900012    2    1    2    0    0 -0.34802880453E+02  0.16435128546E+02 -0.13107655728E+02  0.50528873388E+02  0.30000041151E+02 0.  0.
        -12    1    1    2    0    0  0.34802880453E+02 -0.16435128546E+02  0.13107655728E+02  0.40659126612E+02  0.00000000000E+00 0.  1.
         11    1    3    3    0    0 -0.46171313131E+01  0.63121763457E+01 -0.35836197644E+01  0.86025462892E+01  0.51100000000E-03 0.  1.
        -11    1    3    3    0    0 -0.10160192184E+02  0.30793000823E+01  0.88725292083E+01  0.13835944819E+02  0.51100000000E-03 0. -1.
        -12    1    3    3    0    0 -0.20025556955E+02  0.70436521181E+01 -0.18396565172E+02  0.28090382280E+02  0.00000000000E+00 0.  1.
</event>
<event>
 7    1  0.5019004E-011  0.5052886E+02  0.7816164E-02  0.1300439E+00
        -11   -1    0    0    0    0  0.00000000000E+00  0.00000000000E+00  0.45593999997E+02  0.45594000000E+02  0.51100000000E-03 0. -1.
         11   -1    0    0    0    0 -0.00000000000E+00 -0.00000000000E+00 -0.45593999997E+02  0.45594000000E+02  0.51100000000E-03 0.  1.
    9900012    2    1    2    0    0 -0.18273358184E+02 -0.17242121057E+02  0.31968104629E+02  0.50528855009E+02  0.29999985286E+02 0.  0.
        -12    1    1    2    0    0  0.18273358184E+02  0.17242121057E+02 -0.31968104629E+02  0.40659144991E+02  0.00000000000E+00 0.  1.
         11    1    3    3    0    0  0.58992573723E+01  0.18311299857E+01  0.10378261658E+01  0.62634940712E+01  0.51100000000E-03 0. -1.
        -11    1    3    3    0    0 -0.12870998703E+02 -0.13015715388E+02  0.14094224854E+02  0.23102351161E+02  0.51100000000E-03 0.  1.
        -12    1    3    3    0    0 -0.11301616853E+02 -0.60575356543E+01  0.16836053608E+02  0.21163009776E+02  0.00000000000E+00 0.  1.
</event>
<event>
 7    1  0.5019004E-011  0.5052884E+02  0.7816164E-02  0.1300439E+00
        -11   -1    0    0    0    0  0.00000000000E+00  0.00000000000E+00  0.45593999997E+02  0.45594000000E+02  0.51100000000E-03 0. -1.
         11   -1    0    0    0    0 -0.00000000000E+00 -0.00000000000E+00 -0.45593999997E+02  0.45594000000E+02  0.51100000000E-03 0.  1.
    9900012    2    1    2    0    0 -0.33110515870E+02  0.35948224477E+01  0.23322485405E+02  0.50528839469E+02  0.29999938050E+02 0.  0.
        -12    1    1    2    0    0  0.33110515870E+02 -0.35948224477E+01 -0.23322485405E+02  0.40659160531E+02  0.00000000000E+00 0.  1.
         11    1    3    3    0    0 -0.21271788126E+02  0.14956215217E+02  0.17939306677E+02  0.31591075765E+02  0.51100000000E-03 0. -1.
        -11    1    3    3    0    0 -0.48031977274E+01 -0.97215928508E+01  0.23078266266E+01  0.11086304162E+02  0.51100000000E-03 0.  1.
         12    1    3    3    0    0 -0.70355300174E+01 -0.16397999184E+01  0.30753521015E+01  0.78514595425E+01  0.00000000000E+00 0. -1.
</event>
<event>
 7    1  0.5019004E-011  0.5052886E+02  0.7816164E-02  0.1300439E+00
        -11   -1    0    0    0    0  0.00000000000E+00  0.00000000000E+00  0.45593999997E+02  0.45594000000E+02  0.51100000000E-03 0.  1.
         11   -1    0    0    0    0 -0.00000000000E+00 -0.00000000000E+00 -0.45593999997E+02  0.45594000000E+02  0.51100000000E-03 0. -1.
    9900012    2    1    2    0    0  0.22023096486E+02 -0.24877455493E+02 -0.23436315472E+02  0.50528862607E+02  0.30000008381E+02 0.  0.
        -12    1    1    2    0    0 -0.22023096486E+02  0.24877455493E+02  0.23436315472E+02  0.40659137393E+02  0.00000000000E+00 0.  1.
         11    1    3    3    0    0  0.16019759860E+02 -0.73968545989E+01  0.22595826999E+01  0.17789094360E+02  0.51100000000E-03 0. -1.
        -11    1    3    3    0    0 -0.14845172020E+01 -0.60276684407E+01 -0.11202208899E+02  0.12807266009E+02  0.51100000000E-03 0.  1.
         12    1    3    3    0    0  0.74878538278E+01 -0.11452932453E+02 -0.14493689273E+02  0.19932502238E+02  0.00000000000E+00 0. -1.
</event>
<event>
 7    1  0.5019004E-011  0.5052886E+02  0.7816164E-02  0.1300439E+00
        -11   -1    0    0    0    0  0.00000000000E+00  0.00000000000E+00  0.45593999997E+02  0.45594000000E+02  0.51100000000E-03 0.  1.
         11   -1    0    0    0    0 -0.00000000000E+00 -0.00000000000E+00 -0.45593999997E+02  0.45594000000E+02  0.51100000000E-03 0. -1.
    9900012    2    1    2    0    0 -0.29982306201E+02  0.12040119360E+02 -0.24683239755E+02  0.50528862231E+02  0.30000007237E+02 0.  0.
        -12    1    1    2    0    0  0.29982306201E+02 -0.12040119360E+02  0.24683239755E+02  0.40659137769E+02  0.00000000000E+00 0.  1.
         11    1    3    3    0    0 -0.24697910675E+02  0.11233760472E+02 -0.78781098890E+01  0.28253296829E+02  0.51100000000E-03 0.  1.
        -11    1    3    3    0    0  0.30556040466E+01  0.25406125084E+01 -0.67009155275E+00  0.40299442871E+01  0.51100000000E-03 0. -1.
         12    1    3    3    0    0 -0.83399995729E+01 -0.17342536203E+01 -0.16135038313E+02  0.18245621115E+02  0.00000000000E+00 0. -1.
</event>
<event>
 7    1  0.5019004E-011  0.5052886E+02  0.7816164E-02  0.1300439E+00
        -11   -1    0    0    0    0  0.00000000000E+00  0.00000000000E+00  0.45593999997E+02  0.45594000000E+02  0.51100000000E-03 0. -1.
         11   -1    0    0    0    0 -0.00000000000E+00 -0.00000000000E+00 -0.45593999997E+02  0.45594000000E+02  0.51100000000E-03 0.  1.
    9900012    2    1    2    0    0 -0.37775404827E+02  0.12570195720E+02  0.82567938486E+01  0.50528859884E+02  0.30000000104E+02 0.  0.
        -12    1    1    2    0    0  0.37775404827E+02 -0.12570195720E+02 -0.82567938486E+01  0.40659140116E+02  0.00000000000E+00 0.  1.
         11    1    3    3    0    0 -0.19926535010E+02  0.89666274432E+01 -0.17018721582E+00  0.21851685728E+02  0.51100000000E-03 0. -1.
        -11    1    3    3    0    0 -0.46381857948E+01 -0.81175216449E+01  0.62587489282E+00  0.93700931033E+01  0.51100000000E-03 0.  1.
        -12    1    3    3    0    0 -0.13210684022E+02  0.11721089921E+02  0.78011061716E+01  0.19307081053E+02  0.00000000000E+00 0.  1.
</event>
<event>
 7    1  0.5019004E-011  0.5052886E+02  0.7816164E-02  0.1300439E+00
        -11   -1    0    0    0    0  0.00000000000E+00  0.00000000000E+00  0.45593999997E+02  0.45594000000E+02  0.51100000000E-03 0.  1.
         11   -1    0    0    0    0 -0.00000000000E+00 -0.00000000000E+00 -0.45593999997E+02  0.45594000000E+02  0.51100000000E-03 0. -1.
    9900012    2    1    2    0    0 -0.17527611358E+02  0.92723223706E+01 -0.35496091380E+02  0.50528860495E+02  0.30000001960E+02 0.  0.
        -12    1    1    2    0    0  0.17527611358E+02 -0.92723223706E+01  0.35496091380E+02  0.40659139505E+02  0.00000000000E+00 0.  1.
         11    1    3    3    0    0 -0.71470819262E+01  0.14584690651E+02 -0.24139528717E+02  0.29094859140E+02  0.51100000000E-03 0. -1.
        -11    1    3    3    0    0 -0.11814325184E+02 -0.18243270856E+01 -0.30890977466E+01  0.12347022880E+02  0.51100000000E-03 0.  1.
        -12    1    3    3    0    0  0.14337957523E+01 -0.34880411951E+01 -0.82674649165E+01  0.90869784739E+01  0.00000000000E+00 0.  1.
</event>
<event>
 7    1  0.5019004E-011  0.5052887E+02  0.7816164E-02  0.1300439E+00
        -11   -1    0    0    0    0  0.00000000000E+00  0.00000000000E+00  0.45593999997E+02  0.45594000000E+02  0.51100000000E-03 0.  1.
         11   -1    0    0    0    0 -0.00000000000E+00 -0.00000000000E+00 -0.45593999997E+02  0.45594000000E+02  0.51100000000E-03 0. -1.
    9900012    2    1    2    0    0 -0.23058036105E+02 -0.27302114561E+02 -0.19392956308E+02  0.50528865198E+02  0.30000016255E+02 0.  0.
        -12    1    1    2    0    0  0.23058036105E+02  0.27302114561E+02  0.19392956308E+02  0.40659134802E+02  0.00000000000E+00 0.  1.
         11    1    3    3    0    0 -0.22492646665E+01  0.46363903788E+01 -0.92054063984E+01  0.10549635752E+02  0.51100000000E-03 0. -1.
        -11    1    3    3    0    0 -0.65691262096E+01 -0.63778542944E+01 -0.54590104397E+00  0.91721563860E+01  0.51100000000E-03 0.  1.
         12    1    3    3    0    0 -0.14239645229E+02 -0.25560650645E+02 -0.96416488655E+01  0.30807073060E+02  0.00000000000E+00 0. -1.
</event>
<event>
 7    1  0.5019004E-011  0.5052886E+02  0.7816164E-02  0.1300439E+00
        -11   -1    0    0    0    0  0.00000000000E+00  0.00000000000E+00  0.45593999997E+02  0.45594000000E+02  0.51100000000E-03 0.  1.
         11   -1    0    0    0    0 -0.00000000000E+00 -0.00000000000E+00 -0.45593999997E+02  0.45594000000E+02  0.51100000000E-03 0. -1.
    9900012    2    1    2    0    0  0.25164995769E+02 -0.24912961417E+02 -0.19980806550E+02  0.50528864631E+02  0.30000014532E+02 0.  0.
        -12    1    1    2    0    0 -0.25164995769E+02  0.24912961417E+02  0.19980806550E+02  0.40659135369E+02  0.00000000000E+00 0.  1.
         11    1    3    3    0    0  0.50603940346E+01 -0.12370393889E+02  0.30476057399E+00  0.13368885968E+02  0.51100000000E-03 0. -1.
        -11    1    3    3    0    0  0.18647651555E+02 -0.20060457121E+00 -0.13277821432E+02  0.22892699556E+02  0.51100000000E-03 0.  1.
        -12    1    3    3    0    0  0.14569501786E+01 -0.12341962956E+02 -0.70077456920E+01  0.14267279107E+02  0.00000000000E+00 0.  1.
</event>
<event>
 7    1  0.5019004E-011  0.5052886E+02  0.7816164E-02  0.1300439E+00
        -11   -1    0    0    0    0  0.00000000000E+00  0.00000000000E+00  0.45593999997E+02  0.45594000000E+02  0.51100000000E-03 0.  1.
         11   -1    0    0    0    0 -0.00000000000E+00 -0.00000000000E+00 -0.45593999997E+02  0.45594000000E+02  0.51100000000E-03 0. -1.
    9900012    2    1    2    0    0 -0.23355480067E+02  0.12341085963E+02 -0.30909303767E+02  0.50528856978E+02  0.29999991271E+02 0.  0.
        -12    1    1    2    0    0  0.23355480067E+02 -0.12341085963E+02  0.30909303767E+02  0.40659143022E+02  0.00000000000E+00 0.  1.
         11    1    3    3    0    0 -0.25574527791E+02  0.10344150875E+02 -0.30668605737E+02  0.41250712808E+02  0.51100000000E-03 0. -1.
        -11    1    3    3    0    0 -0.10310519299E+01  0.48449226893E+01 -0.16189538102E+00  0.49560623809E+01  0.51100000000E-03 0.  1.
         12    1    3    3    0    0  0.32500996534E+01 -0.28479876021E+01 -0.78802649053E-01  0.43220817896E+01  0.00000000000E+00 0. -1.
</event>
<event>
 7    1  0.5019004E-011  0.5052883E+02  0.7816164E-02  0.1300439E+00
        -11   -1    0    0    0    0  0.00000000000E+00  0.00000000000E+00  0.45593999997E+02  0.45594000000E+02  0.51100000000E-03 0.  1.
         11   -1    0    0    0    0 -0.00000000000E+00 -0.00000000000E+00 -0.45593999997E+02  0.45594000000E+02  0.51100000000E-03 0. -1.
    9900012    2    1    2    0    0 -0.39445467122E+02 -0.93243159043E+00  0.98159852604E+01  0.50528832869E+02  0.29999917988E+02 0.  0.
        -12    1    1    2    0    0  0.39445467122E+02  0.93243159043E+00 -0.98159852604E+01  0.40659167131E+02  0.00000000000E+00 0.  1.
         11    1    3    3    0    0 -0.11931662354E+01 -0.25236836566E+01 -0.75670751205E+00  0.28922709734E+01  0.51100000000E-03 0.  1.
        -11    1    3    3    0    0 -0.97114622716E+01  0.11570689539E+02  0.84930701245E+01  0.17329904681E+02  0.51100000000E-03 0. -1.
        -12    1    3    3    0    0 -0.28540838615E+02 -0.99794374726E+01  0.20796226479E+01  0.30306657214E+02  0.00000000000E+00 0.  1.
</event>
<event>
 7    1  0.5019004E-011  0.5052887E+02  0.7816164E-02  0.1300439E+00
        -11   -1    0    0    0    0  0.00000000000E+00  0.00000000000E+00  0.45593999997E+02  0.45594000000E+02  0.51100000000E-03 0. -1.
         11   -1    0    0    0    0 -0.00000000000E+00 -0.00000000000E+00 -0.45593999997E+02  0.45594000000E+02  0.51100000000E-03 0.  1.
    9900012    2    1    2    0    0 -0.28590353699E+02 -0.21713344215E+02 -0.19086314708E+02  0.50528867560E+02  0.30000023435E+02 0.  0.
        -12    1    1    2    0    0  0.28590353699E+02  0.21713344215E+02  0.19086314708E+02  0.40659132440E+02  0.00000000000E+00 0.  1.
         11    1    3    3    0    0 -0.36664915228E+00 -0.32429771556E+01  0.33030377040E+01  0.46434244656E+01  0.51100000000E-03 0. -1.
        -11    1    3    3    0    0 -0.22541478815E+02 -0.21145924401E+01 -0.14262826480E+02  0.26758512436E+02  0.51100000000E-03 0.  1.
        -12    1    3    3    0    0 -0.56822257325E+01 -0.16355774619E+02 -0.81265259319E+01  0.19126930658E+02  0.00000000000E+00 0.  1.
</event>
<event>
 7    1  0.5019004E-011  0.5052885E+02  0.7816164E-02  0.1300439E+00
        -11   -1    0    0    0    0  0.00000000000E+00  0.00000000000E+00  0.45593999997E+02  0.45594000000E+02  0.51100000000E-03 0.  1.
         11   -1    0    0    0    0 -0.00000000000E+00 -0.00000000000E+00 -0.45593999997E+02  0.45594000000E+02  0.51100000000E-03 0. -1.
    9900012    2    1    2    0    0  0.39531444891E+02  0.72388368138E+01  0.61669065566E+01  0.50528848139E+02  0.29999964402E+02 0.  0.
        -12    1    1    2    0    0 -0.39531444891E+02 -0.72388368138E+01 -0.61669065566E+01  0.40659151861E+02  0.00000000000E+00 0.  1.
         11    1    3    3    0    0  0.11031645278E+01  0.54935945239E+01 -0.66102531273E+01  0.86655639999E+01  0.51100000000E-03 0. -1.
        -11    1    3    3    0    0  0.23841297323E+02 -0.28257970960E+01  0.11211228768E+02  0.26496872231E+02  0.51100000000E-03 0.  1.
         12    1    3    3    0    0  0.14586983040E+02  0.45710393859E+01  0.15659309159E+01  0.15366411908E+02  0.00000000000E+00 0. -1.
</event>
<event>
 7    1  0.5019004E-011  0.5052886E+02  0.7816164E-02  0.1300439E+00
        -11   -1    0    0    0    0  0.00000000000E+00  0.00000000000E+00  0.45593999997E+02  0.45594000000E+02  0.51100000000E-03 0.  1.
         11   -1    0    0    0    0 -0.00000000000E+00 -0.00000000000E+00 -0.45593999997E+02  0.45594000000E+02  0.51100000000E-03 0. -1.
    9900012    2    1    2    0    0  0.32474383717E+02 -0.79775289817E+00 -0.24452890030E+02  0.50528857876E+02  0.29999993999E+02 0.  0.
        -12    1    1    2    0    0 -0.32474383717E+02  0.79775289817E+00  0.24452890030E+02  0.40659142124E+02  0.00000000000E+00 0.  1.
         11    1    3    3    0    0  0.27020775069E+02 -0.47469694764E+01 -0.15641409128E+02  0.31580210327E+02  0.51100000000E-03 0. -1.
        -11    1    3    3    0    0  0.30099798666E-01  0.27470859742E+01 -0.12157229953E+02  0.12463772613E+02  0.51100000000E-03 0.  1.
         12    1    3    3    0    0  0.54235088492E+01  0.12021306040E+01  0.33457490509E+01  0.64848749362E+01  0.00000000000E+00 0. -1.
</event>
<event>
 7    1  0.5019004E-011  0.5052880E+02  0.7816164E-02  0.1300439E+00
        -11   -1    0    0    0    0  0.00000000000E+00  0.00000000000E+00  0.45593999997E+02  0.45594000000E+02  0.51100000000E-03 0.  1.
         11   -1    0    0    0    0 -0.00000000000E+00 -0.00000000000E+00 -0.45593999997E+02  0.45594000000E+02  0.51100000000E-03 0. -1.
    9900012    2    1    2    0    0 -0.94935448889E+01 -0.38805659494E+02  0.75606987919E+01  0.50528797234E+02  0.29999809672E+02 0.  0.
        -12    1    1    2    0    0  0.94935448889E+01  0.38805659494E+02 -0.75606987919E+01  0.40659202766E+02  0.00000000000E+00 0.  1.
         11    1    3    3    0    0  0.91256522300E+00 -0.23147843402E+02  0.54928615904E-01  0.23165889727E+02  0.51100000000E-03 0. -1.
        -11    1    3    3    0    0 -0.12060321616E+01  0.27744876138E+01  0.59849234727E+01  0.67060871102E+01  0.51100000000E-03 0.  1.
        -12    1    3    3    0    0 -0.92000779503E+01 -0.18432303706E+02  0.15208467033E+01  0.20656820397E+02  0.00000000000E+00 0.  1.
</event>
<event>
 7    1  0.5019004E-011  0.5052876E+02  0.7816164E-02  0.1300439E+00
        -11   -1    0    0    0    0  0.00000000000E+00  0.00000000000E+00  0.45593999997E+02  0.45594000000E+02  0.51100000000E-03 0.  1.
         11   -1    0    0    0    0 -0.00000000000E+00 -0.00000000000E+00 -0.45593999997E+02  0.45594000000E+02  0.51100000000E-03 0. -1.
    9900012    2    1    2    0    0  0.17731784149E+02  0.12849991031E+02 -0.34258357318E+02  0.50528763845E+02  0.29999708180E+02 0.  0.
        -12    1    1    2    0    0 -0.17731784149E+02 -0.12849991031E+02  0.34258357318E+02  0.40659236155E+02  0.00000000000E+00 0.  1.
         11    1    3    3    0    0  0.14374098870E+02  0.34446951488E+01 -0.75665114320E+01  0.16605202152E+02  0.51100000000E-03 0. -1.
        -11    1    3    3    0    0 -0.58046586802E+01 -0.21160691888E+01 -0.88452357112E+01  0.10789346887E+02  0.51100000000E-03 0.  1.
         12    1    3    3    0    0  0.91623439595E+01  0.11521365071E+02 -0.17846610175E+02  0.23134214806E+02  0.00000000000E+00 0. -1.
</event>
<event>
 7    1  0.5019004E-011  0.5052887E+02  0.7816164E-02  0.1300439E+00
        -11   -1    0    0    0    0  0.00000000000E+00  0.00000000000E+00  0.45593999997E+02  0.45594000000E+02  0.51100000000E-03 0. -1.
         11   -1    0    0    0    0 -0.00000000000E+00 -0.00000000000E+00 -0.45593999997E+02  0.45594000000E+02  0.51100000000E-03 0.  1.
    9900012    2    1    2    0    0  0.29782544044E+01  0.21833345568E+02  0.34170165144E+02  0.50528866168E+02  0.30000019206E+02 0.  0.
        -12    1    1    2    0    0 -0.29782544044E+01 -0.21833345568E+02 -0.34170165144E+02  0.40659133832E+02  0.00000000000E+00 0.  1.
         11    1    3    3    0    0 -0.36585439972E-01  0.15542705734E+02  0.16070930451E+02  0.22357366702E+02  0.51100000000E-03 0. -1.
        -11    1    3    3    0    0  0.45143397056E+01 -0.60493656421E+01  0.19571713239E+01  0.77977309201E+01  0.51100000000E-03 0.  1.
        -12    1    3    3    0    0 -0.14994998612E+01  0.12340005476E+02  0.16142063368E+02  0.20373768546E+02  0.00000000000E+00 0.  1.
</event>
<event>
 7    1  0.5019004E-011  0.5052887E+02  0.7816164E-02  0.1300439E+00
        -11   -1    0    0    0    0  0.00000000000E+00  0.00000000000E+00  0.45593999997E+02  0.45594000000E+02  0.51100000000E-03 0. -1.
         11   -1    0    0    0    0 -0.00000000000E+00 -0.00000000000E+00 -0.45593999997E+02  0.45594000000E+02  0.51100000000E-03 0.  1.
    9900012    2    1    2    0    0  0.40321496107E+01 -0.40057351063E+02 -0.56846490590E+01  0.50528870157E+02  0.30000031330E+02 0.  0.
        -12    1    1    2    0    0 -0.40321496107E+01  0.40057351063E+02  0.56846490590E+01  0.40659129843E+02  0.00000000000E+00 0.  1.
         11    1    3    3    0    0 -0.52539940900E-01 -0.44327113060E+01  0.94944587537E+01  0.10478379515E+02  0.51100000000E-03 0. -1.
        -11    1    3    3    0    0  0.96462254895E+00  0.53028730575E-01 -0.13485582176E+01  0.16588906641E+01  0.51100000000E-03 0.  1.
         12    1    3    3    0    0  0.31200670027E+01 -0.35677668487E+02 -0.13830549595E+02  0.38391599978E+02  0.00000000000E+00 0. -1.
</event>
<event>
 7    1  0.5019004E-011  0.5052886E+02  0.7816164E-02  0.1300439E+00
        -11   -1    0    0    0    0  0.00000000000E+00  0.00000000000E+00  0.45593999997E+02  0.45594000000E+02  0.51100000000E-03 0. -1.
         11   -1    0    0    0    0 -0.00000000000E+00 -0.00000000000E+00 -0.45593999997E+02  0.45594000000E+02  0.51100000000E-03 0.  1.
    9900012    2    1    2    0    0 -0.28014591329E+02  0.28664681552E+02  0.68326120943E+01  0.50528857315E+02  0.29999992296E+02 0.  0.
        -12    1    1    2    0    0  0.28014591329E+02 -0.28664681552E+02 -0.68326120943E+01  0.40659142685E+02  0.00000000000E+00 0.  1.
         11    1    3    3    0    0 -0.14192667725E+02  0.77150950838E+01  0.13211354830E+02  0.20868502726E+02  0.51100000000E-03 0. -1.
        -11    1    3    3    0    0  0.42125661304E+00  0.96158039301E+01  0.16510738133E+01  0.97656124925E+01  0.51100000000E-03 0.  1.
         12    1    3    3    0    0 -0.14243180217E+02  0.11333782538E+02 -0.80298165487E+01  0.19894742097E+02  0.00000000000E+00 0. -1.
</event>
<event>
 7    1  0.5019004E-011  0.5052886E+02  0.7816164E-02  0.1300439E+00
        -11   -1    0    0    0    0  0.00000000000E+00  0.00000000000E+00  0.45593999997E+02  0.45594000000E+02  0.51100000000E-03 0.  1.
         11   -1    0    0    0    0 -0.00000000000E+00 -0.00000000000E+00 -0.45593999997E+02  0.45594000000E+02  0.51100000000E-03 0. -1.
    9900012    2    1    2    0    0  0.30155839355E+02 -0.19436912424E+02 -0.19131058365E+02  0.50528860733E+02  0.30000002684E+02 0.  0.
        -12    1    1    2    0    0 -0.30155839355E+02  0.19436912424E+02  0.19131058365E+02  0.40659139267E+02  0.00000000000E+00 0.  1.
         11    1    3    3    0    0  0.15265755300E+02 -0.18769285421E+01 -0.63227456363E+01  0.16629589841E+02  0.51100000000E-03 0. -1.
        -11    1    3    3    0    0  0.10766478124E+02 -0.12715962005E+02 -0.18827574854E+02  0.25141406406E+02  0.51100000000E-03 0.  1.
        -12    1    3    3    0    0  0.41236059305E+01 -0.48440218760E+01  0.60192621261E+01  0.87578644856E+01  0.00000000000E+00 0.  1.
</event>
<event>
 7    1  0.5019004E-011  0.5052886E+02  0.7816164E-02  0.1300439E+00
        -11   -1    0    0    0    0  0.00000000000E+00  0.00000000000E+00  0.45593999997E+02  0.45594000000E+02  0.51100000000E-03 0.  1.
         11   -1    0    0    0    0 -0.00000000000E+00 -0.00000000000E+00 -0.45593999997E+02  0.45594000000E+02  0.51100000000E-03 0. -1.
    9900012    2    1    2    0    0  0.28503786964E+02 -0.28615245405E+02 -0.46763118691E+01  0.50528855474E+02  0.29999986698E+02 0.  0.
        -12    1    1    2    0    0 -0.28503786964E+02  0.28615245405E+02  0.46763118691E+01  0.40659144526E+02  0.00000000000E+00 0.  1.
         11    1    3    3    0    0  0.24814002149E+02 -0.15621200588E+02 -0.14437614536E+02  0.32683349342E+02  0.51100000000E-03 0. -1.
        -11    1    3    3    0    0  0.15624373244E+01 -0.44602346553E+01  0.73286179532E+01  0.87202950029E+01  0.51100000000E-03 0.  1.
         12    1    3    3    0    0  0.21273474908E+01 -0.85338101615E+01  0.24326847139E+01  0.91252111283E+01  0.00000000000E+00 0. -1.
</event>
<event>
 7    1  0.5019004E-011  0.5052887E+02  0.7816164E-02  0.1300439E+00
        -11   -1    0    0    0    0  0.00000000000E+00  0.00000000000E+00  0.45593999997E+02  0.45594000000E+02  0.51100000000E-03 0.  1.
         11   -1    0    0    0    0 -0.00000000000E+00 -0.00000000000E+00 -0.45593999997E+02  0.45594000000E+02  0.51100000000E-03 0. -1.
    9900012    2    1    2    0    0  0.35318157900E+02 -0.15227133748E+02 -0.13188132847E+02  0.50528871534E+02  0.30000035515E+02 0.  0.
        -12    1    1    2    0    0 -0.35318157900E+02  0.15227133748E+02  0.13188132847E+02  0.40659128466E+02  0.00000000000E+00 0.  1.
         11    1    3    3    0    0  0.17666413511E+02 -0.14664727682E+02 -0.17072655869E+02  0.28611745543E+02  0.51100000000E-03 0. -1.
        -11    1    3    3    0    0  0.43707790741E+01  0.36523919467E+01  0.54654902300E+01  0.78940015431E+01  0.51100000000E-03 0.  1.
         12    1    3    3    0    0  0.13280965314E+02 -0.42147980124E+01 -0.15809672084E+01  0.14023124448E+02  0.00000000000E+00 0. -1.
</event>
<event>
 7    1  0.5019004E-011  0.5052887E+02  0.7816164E-02  0.1300439E+00
        -11   -1    0    0    0    0  0.00000000000E+00  0.00000000000E+00  0.45593999997E+02  0.45594000000E+02  0.51100000000E-03 0.  1.
         11   -1    0    0    0    0 -0.00000000000E+00 -0.00000000000E+00 -0.45593999997E+02  0.45594000000E+02  0.51100000000E-03 0. -1.
    9900012    2    1    2    0    0 -0.13909393003E+02 -0.60627182126E+01 -0.37721836044E+02  0.50528872115E+02  0.30000037281E+02 0.  0.
        -12    1    1    2    0    0  0.13909393003E+02  0.60627182126E+01  0.37721836044E+02  0.40659127885E+02  0.00000000000E+00 0.  1.
         11    1    3    3    0    0 -0.37699936110E+01 -0.76186621241E+01 -0.17260358040E+02  0.19239979842E+02  0.51100000000E-03 0. -1.
        -11    1    3    3    0    0  0.65013741581E+01  0.23280551648E+01 -0.73872402001E+01  0.10112320447E+02  0.51100000000E-03 0.  1.
        -12    1    3    3    0    0 -0.16640773550E+02 -0.77211125320E+00 -0.13074237804E+02  0.21176571826E+02  0.00000000000E+00 0.  1.
</event>
<event>
 7    1  0.5019004E-011  0.5052886E+02  0.7816164E-02  0.1300439E+00
        -11   -1    0    0    0    0  0.00000000000E+00  0.00000000000E+00  0.45593999997E+02  0.45594000000E+02  0.51100000000E-03 0. -1.
         11   -1    0    0    0    0 -0.00000000000E+00 -0.00000000000E+00 -0.45593999997E+02  0.45594000000E+02  0.51100000000E-03 0.  1.
    9900012    2    1    2    0    0  0.23873313944E+02  0.23277088368E+02  0.23268174747E+02  0.50528856900E+02  0.29999991034E+02 0.  0.
        -12    1    1    2    0    0 -0.23873313944E+02 -0.23277088368E+02 -0.23268174747E+02  0.40659143100E+02  0.00000000000E+00 0.  1.
         11    1    3    3    0    0  0.24168850784E+02  0.26918037776E+02  0.26400711628E+02  0.44785172553E+02  0.51100000000E-03 0. -1.
        -11    1    3    3    0    0  0.11990457779E+01 -0.27255424364E+01 -0.14413326715E+01  0.33081312673E+01  0.51100000000E-03 0.  1.
         12    1    3    3    0    0 -0.14945826181E+01 -0.91540697181E+00 -0.16912042093E+01  0.24355530797E+01  0.00000000000E+00 0. -1.
</event>
<event>
 7    1  0.5019004E-011  0.5052886E+02  0.7816164E-02  0.1300439E+00
        -11   -1    0    0    0    0  0.00000000000E+00  0.00000000000E+00  0.45593999997E+02  0.45594000000E+02  0.51100000000E-03 0. -1.
         11   -1    0    0    0    0 -0.00000000000E+00 -0.00000000000E+00 -0.45593999997E+02  0.45594000000E+02  0.51100000000E-03 0.  1.
    9900012    2    1    2    0    0  0.40105296010E+01  0.37284507361E+02  0.15714549883E+02  0.50528856934E+02  0.29999991138E+02 0.  0.
        -12    1    1    2    0    0 -0.40105296010E+01 -0.37284507361E+02 -0.15714549883E+02  0.40659143066E+02  0.00000000000E+00 0.  1.
         11    1    3    3    0    0  0.84632157102E+00  0.64937534532E+01  0.15755000853E+02  0.17061803722E+02  0.51100000000E-03 0.  1.
        -11    1    3    3    0    0 -0.88410607161E+00  0.54850376294E+01 -0.48704216224E+01  0.73883887542E+01  0.51100000000E-03 0. -1.
         12    1    3    3    0    0  0.40483141016E+01  0.25305716278E+02  0.48299706520E+01  0.26078664458E+02  0.00000000000E+00 0. -1.
</event>
<event>
 7    1  0.5019004E-011  0.5052888E+02  0.7816164E-02  0.1300439E+00
        -11   -1    0    0    0    0  0.00000000000E+00  0.00000000000E+00  0.45593999997E+02  0.45594000000E+02  0.51100000000E-03 0.  1.
         11   -1    0    0    0    0 -0.00000000000E+00 -0.00000000000E+00 -0.45593999997E+02  0.45594000000E+02  0.51100000000E-03 0. -1.
    9900012    2    1    2    0    0 -0.13482041816E+02 -0.35698730446E+02 -0.14035629268E+02  0.50528884221E+02  0.30000074078E+02 0.  0.
        -12    1    1    2    0    0  0.13482041816E+02  0.35698730446E+02  0.14035629268E+02  0.40659115779E+02  0.00000000000E+00 0.  1.
         11    1    3    3    0    0 -0.16222067319E+02 -0.35485924144E+02 -0.12460356772E+02  0.40959330702E+02  0.51100000000E-03 0. -1.
        -11    1    3    3    0    0  0.55026285312E+01 -0.21896014229E+01 -0.26370241435E+00  0.59281375126E+01  0.51100000000E-03 0.  1.
         12    1    3    3    0    0 -0.27626030291E+01  0.19767951214E+01 -0.13115700823E+01  0.36414160060E+01  0.00000000000E+00 0. -1.
</event>
<event>
 7    1  0.5019004E-011  0.5052886E+02  0.7816164E-02  0.1300439E+00
        -11   -1    0    0    0    0  0.00000000000E+00  0.00000000000E+00  0.45593999997E+02  0.45594000000E+02  0.51100000000E-03 0. -1.
         11   -1    0    0    0    0 -0.00000000000E+00 -0.00000000000E+00 -0.45593999997E+02  0.45594000000E+02  0.51100000000E-03 0.  1.
    9900012    2    1    2    0    0 -0.28846505596E+02  0.62833297006E+01  0.27956477898E+02  0.50528858670E+02  0.29999996414E+02 0.  0.
        -12    1    1    2    0    0  0.28846505596E+02 -0.62833297006E+01 -0.27956477898E+02  0.40659141330E+02  0.00000000000E+00 0.  1.
         11    1    3    3    0    0  0.29289379021E+00  0.52111995570E+01  0.15881544207E+02  0.16717231656E+02  0.51100000000E-03 0. -1.
        -11    1    3    3    0    0 -0.12880335066E+02  0.64046235160E+01  0.42754814013E+01  0.15006730999E+02  0.51100000000E-03 0.  1.
         12    1    3    3    0    0 -0.16259064320E+02 -0.53324933724E+01  0.77994522902E+01  0.18804896015E+02  0.00000000000E+00 0. -1.
</event>
<event>
 7    1  0.5019004E-011  0.5052885E+02  0.7816164E-02  0.1300439E+00
        -11   -1    0    0    0    0  0.00000000000E+00  0.00000000000E+00  0.45593999997E+02  0.45594000000E+02  0.51100000000E-03 0. -1.
         11   -1    0    0    0    0 -0.00000000000E+00 -0.00000000000E+00 -0.45593999997E+02  0.45594000000E+02  0.51100000000E-03 0.  1.
    9900012    2    1    2    0    0  0.11374288825E+02  0.37158265702E+02  0.11960570716E+02  0.50528850868E+02  0.29999972699E+02 0.  0.
        -12    1    1    2    0    0 -0.11374288825E+02 -0.37158265702E+02 -0.11960570716E+02  0.40659149132E+02  0.00000000000E+00 0.  1.
         11    1    3    3    0    0  0.12333014357E+02  0.36356808910E+02  0.10334151265E+02  0.39758212735E+02  0.51100000000E-03 0. -1.
        -11    1    3    3    0    0 -0.17768730797E+01 -0.45571301470E+01  0.21129604259E+01  0.53281624545E+01  0.51100000000E-03 0.  1.
         12    1    3    3    0    0  0.81814754748E+00  0.53585869397E+01 -0.48654097489E+00  0.54424756793E+01  0.00000000000E+00 0. -1.
</event>
<event>
 7    1  0.5019004E-011  0.5052886E+02  0.7816164E-02  0.1300439E+00
        -11   -1    0    0    0    0  0.00000000000E+00  0.00000000000E+00  0.45593999997E+02  0.45594000000E+02  0.51100000000E-03 0.  1.
         11   -1    0    0    0    0 -0.00000000000E+00 -0.00000000000E+00 -0.45593999997E+02  0.45594000000E+02  0.51100000000E-03 0. -1.
    9900012    2    1    2    0    0 -0.33714150677E+02  0.21814238187E+02 -0.63765724283E+01  0.50528860567E+02  0.30000002179E+02 0.  0.
        -12    1    1    2    0    0  0.33714150677E+02 -0.21814238187E+02  0.63765724283E+01  0.40659139433E+02  0.00000000000E+00 0.  1.
         11    1    3    3    0    0 -0.29022028959E+02  0.83033780819E+01 -0.15003621398E+02  0.33709537342E+02  0.51100000000E-03 0. -1.
        -11    1    3    3    0    0 -0.11122841174E+01  0.61285140829E+01  0.39450584879E+01  0.73728791904E+01  0.51100000000E-03 0.  1.
         12    1    3    3    0    0 -0.35798375997E+01  0.73823460219E+01  0.46819904819E+01  0.94464440346E+01  0.00000000000E+00 0. -1.
</event>
<event>
 7    1  0.5019004E-011  0.5052886E+02  0.7816164E-02  0.1300439E+00
        -11   -1    0    0    0    0  0.00000000000E+00  0.00000000000E+00  0.45593999997E+02  0.45594000000E+02  0.51100000000E-03 0.  1.
         11   -1    0    0    0    0 -0.00000000000E+00 -0.00000000000E+00 -0.45593999997E+02  0.45594000000E+02  0.51100000000E-03 0. -1.
    9900012    2    1    2    0    0  0.14442913975E+02 -0.37798359377E+02 -0.39814736605E+01  0.50528857508E+02  0.29999992881E+02 0.  0.
        -12    1    1    2    0    0 -0.14442913975E+02  0.37798359377E+02  0.39814736605E+01  0.40659142492E+02  0.00000000000E+00 0.  1.
         11    1    3    3    0    0  0.39357189651E+01 -0.13740238950E+01 -0.16704711469E+01  0.44909129974E+01  0.51100000000E-03 0. -1.
        -11    1    3    3    0    0  0.68796071262E+01 -0.18317296676E+02  0.11753299066E+02  0.22825257741E+02  0.51100000000E-03 0.  1.
        -12    1    3    3    0    0  0.36275878841E+01 -0.18107038805E+02 -0.14064301579E+02  0.23212686770E+02  0.00000000000E+00 0.  1.
</event>
<event>
 7    1  0.5019004E-011  0.5052886E+02  0.7816164E-02  0.1300439E+00
        -11   -1    0    0    0    0  0.00000000000E+00  0.00000000000E+00  0.45593999997E+02  0.45594000000E+02  0.51100000000E-03 0. -1.
         11   -1    0    0    0    0 -0.00000000000E+00 -0.00000000000E+00 -0.45593999997E+02  0.45594000000E+02  0.51100000000E-03 0.  1.
    9900012    2    1    2    0    0 -0.14709395654E+02  0.27377867045E+02  0.26215492876E+02  0.50528855996E+02  0.29999988284E+02 0.  0.
        -12    1    1    2    0    0  0.14709395654E+02 -0.27377867045E+02 -0.26215492876E+02  0.40659144004E+02  0.00000000000E+00 0.  1.
         11    1    3    3    0    0 -0.11811767919E+02  0.19697034785E+01  0.15920817060E+01  0.12080244931E+02  0.51100000000E-03 0.  1.
        -11    1    3    3    0    0 -0.31040239633E+01  0.16426122175E+02  0.24253625556E+02  0.29456591917E+02  0.51100000000E-03 0. -1.
         12    1    3    3    0    0  0.20639622831E+00  0.89820413915E+01  0.36978561399E+00  0.89920191483E+01  0.00000000000E+00 0. -1.
</event>
<event>
 7    1  0.5019004E-011  0.5052886E+02  0.7816164E-02  0.1300439E+00
        -11   -1    0    0    0    0  0.00000000000E+00  0.00000000000E+00  0.45593999997E+02  0.45594000000E+02  0.51100000000E-03 0. -1.
         11   -1    0    0    0    0 -0.00000000000E+00 -0.00000000000E+00 -0.45593999997E+02  0.45594000000E+02  0.51100000000E-03 0.  1.
    9900012    2    1    2    0    0 -0.27163513280E+02  0.26098386075E+01  0.30141304322E+02  0.50528856656E+02  0.29999990290E+02 0.  0.
        -12    1    1    2    0    0  0.27163513280E+02 -0.26098386075E+01 -0.30141304322E+02  0.40659143344E+02  0.00000000000E+00 0.  1.
         11    1    3    3    0    0 -0.23527825792E+02  0.20740164929E+01  0.34021710966E+02  0.41416626471E+02  0.51100000000E-03 0. -1.
        -11    1    3    3    0    0  0.22009181040E+01 -0.18173487587E+00 -0.18815236639E+01  0.29012410490E+01  0.51100000000E-03 0.  1.
         12    1    3    3    0    0 -0.58366055923E+01  0.71755699048E+00 -0.19988829804E+01  0.62109891357E+01  0.00000000000E+00 0. -1.
</event>
<event>
 7    1  0.5019004E-011  0.5052886E+02  0.7816164E-02  0.1300439E+00
        -11   -1    0    0    0    0  0.00000000000E+00  0.00000000000E+00  0.45593999997E+02  0.45594000000E+02  0.51100000000E-03 0.  1.
         11   -1    0    0    0    0 -0.00000000000E+00 -0.00000000000E+00 -0.45593999997E+02  0.45594000000E+02  0.51100000000E-03 0. -1.
    9900012    2    1    2    0    0 -0.36264464809E+02 -0.12068194536E+02  0.13871288784E+02  0.50528863514E+02  0.30000011139E+02 0.  0.
        -12    1    1    2    0    0  0.36264464809E+02  0.12068194536E+02 -0.13871288784E+02  0.40659136486E+02  0.00000000000E+00 0.  1.
         11    1    3    3    0    0 -0.31680938960E+02 -0.17803263579E+02  0.41188085357E+01  0.36573250764E+02  0.51100000000E-03 0. -1.
        -11    1    3    3    0    0 -0.60257979093E+01  0.53193167669E+01  0.63727041046E+01  0.10257520615E+02  0.51100000000E-03 0.  1.
         12    1    3    3    0    0  0.14422720609E+01  0.41575227610E+00  0.33797761440E+01  0.36980921346E+01  0.00000000000E+00 0. -1.
</event>
<event>
 7    1  0.5019004E-011  0.5052885E+02  0.7816164E-02  0.1300439E+00
        -11   -1    0    0    0    0  0.00000000000E+00  0.00000000000E+00  0.45593999997E+02  0.45594000000E+02  0.51100000000E-03 0. -1.
         11   -1    0    0    0    0 -0.00000000000E+00 -0.00000000000E+00 -0.45593999997E+02  0.45594000000E+02  0.51100000000E-03 0.  1.
    9900012    2    1    2    0    0 -0.79270687530E+01 -0.84148562216E+01  0.38980995446E+02  0.50528853056E+02  0.29999979350E+02 0.  0.
        -12    1    1    2    0    0  0.79270687530E+01  0.84148562216E+01 -0.38980995446E+02  0.40659146944E+02  0.00000000000E+00 0.  1.
         11    1    3    3    0    0 -0.15760753958E+02 -0.13328293642E+02  0.21877475535E+02  0.30077711229E+02  0.51100000000E-03 0. -1.
        -11    1    3    3    0    0  0.89095669488E+01  0.39100306998E+01  0.14531245256E+02  0.17487876150E+02  0.51100000000E-03 0.  1.
         12    1    3    3    0    0 -0.10758817437E+01  0.10034067203E+01  0.25722746547E+01  0.29632656769E+01  0.00000000000E+00 0. -1.
</event>
<event>
 7    1  0.5019004E-011  0.5052886E+02  0.7816164E-02  0.1300439E+00
        -11   -1    0    0    0    0  0.00000000000E+00  0.00000000000E+00  0.45593999997E+02  0.45594000000E+02  0.51100000000E-03 0.  1.
         11   -1    0    0    0    0 -0.00000000000E+00 -0.00000000000E+00 -0.45593999997E+02  0.45594000000E+02  0.51100000000E-03 0. -1.
    9900012    2    1    2    0    0 -0.56303071178E+01 -0.40265855976E+02 -0.35521798915E+00  0.50528859631E+02  0.29999999335E+02 0.  0.
        -12    1    1    2    0    0  0.56303071178E+01  0.40265855976E+02  0.35521798915E+00  0.40659140369E+02  0.00000000000E+00 0.  1.
         11    1    3    3    0    0 -0.16075526046E+02 -0.19721402874E+02 -0.14352073597E+01  0.25483643566E+02  0.51100000000E-03 0. -1.
        -11    1    3    3    0    0  0.19617573040E+01 -0.14401734428E+02  0.22460830817E+00  0.14536467776E+02  0.51100000000E-03 0.  1.
         12    1    3    3    0    0  0.84834616243E+01 -0.61427186735E+01  0.85538106238E+00  0.10508748289E+02  0.00000000000E+00 0. -1.
</event>
<event>
 7    1  0.5019004E-011  0.5052886E+02  0.7816164E-02  0.1300439E+00
        -11   -1    0    0    0    0  0.00000000000E+00  0.00000000000E+00  0.45593999997E+02  0.45594000000E+02  0.51100000000E-03 0.  1.
         11   -1    0    0    0    0 -0.00000000000E+00 -0.00000000000E+00 -0.45593999997E+02  0.45594000000E+02  0.51100000000E-03 0. -1.
    9900012    2    1    2    0    0 -0.14098977060E+02 -0.37843403064E+02 -0.47182263788E+01  0.50528856259E+02  0.29999989084E+02 0.  0.
        -12    1    1    2    0    0  0.14098977060E+02  0.37843403064E+02  0.47182263788E+01  0.40659143741E+02  0.00000000000E+00 0.  1.
         11    1    3    3    0    0 -0.54369661115E+01 -0.19823136486E+02 -0.73995930385E+01  0.21846540184E+02  0.51100000000E-03 0. -1.
        -11    1    3    3    0    0  0.21521782590E+01  0.35652835338E+01 -0.93997575146E+00  0.42692707351E+01  0.51100000000E-03 0.  1.
        -12    1    3    3    0    0 -0.10814189208E+02 -0.21585550112E+02  0.36213424112E+01  0.24413045339E+02  0.00000000000E+00 0.  1.
</event>
<event>
 7    1  0.5019004E-011  0.5052885E+02  0.7816164E-02  0.1300439E+00
        -11   -1    0    0    0    0  0.00000000000E+00  0.00000000000E+00  0.45593999997E+02  0.45594000000E+02  0.51100000000E-03 0. -1.
         11   -1    0    0    0    0 -0.00000000000E+00 -0.00000000000E+00 -0.45593999997E+02  0.45594000000E+02  0.51100000000E-03 0.  1.
    9900012    2    1    2    0    0 -0.20969087438E+02  0.30239761810E+02 -0.17292212868E+02  0.50528850375E+02  0.29999971201E+02 0.  0.
        -12    1    1    2    0    0  0.20969087438E+02 -0.30239761810E+02  0.17292212868E+02  0.40659149625E+02  0.00000000000E+00 0.  1.
         11    1    3    3    0    0 -0.19667414688E+02  0.27442150931E+02 -0.13520039989E+02  0.36368534886E+02  0.51100000000E-03 0. -1.
        -11    1    3    3    0    0  0.47924029808E+01 -0.72613649787E+00 -0.50566613126E+01  0.70045859575E+01  0.51100000000E-03 0.  1.
        -12    1    3    3    0    0 -0.60940757308E+01  0.35237473772E+01  0.12844884333E+01  0.71557295314E+01  0.00000000000E+00 0.  1.
</event>
<event>
 7    1  0.5019004E-011  0.5052887E+02  0.7816164E-02  0.1300439E+00
        -11   -1    0    0    0    0  0.00000000000E+00  0.00000000000E+00  0.45593999997E+02  0.45594000000E+02  0.51100000000E-03 0.  1.
         11   -1    0    0    0    0 -0.00000000000E+00 -0.00000000000E+00 -0.45593999997E+02  0.45594000000E+02  0.51100000000E-03 0. -1.
    9900012    2    1    2    0    0 -0.50321477970E+01  0.18296486357E+02 -0.35959438906E+02  0.50528866083E+02  0.30000018945E+02 0.  0.
        -12    1    1    2    0    0  0.50321477970E+01 -0.18296486357E+02  0.35959438906E+02  0.40659133917E+02  0.00000000000E+00 0.  1.
         11    1    3    3    0    0 -0.23369487559E+01  0.10869102710E+02 -0.32110166070E+01  0.11571920806E+02  0.51100000000E-03 0. -1.
        -11    1    3    3    0    0 -0.82303536547E+01 -0.10109924180E+01 -0.24681466302E+02  0.26037196586E+02  0.51100000000E-03 0.  1.
        -12    1    3    3    0    0  0.55351546136E+01  0.84383760645E+01 -0.80669559968E+01  0.12919748692E+02  0.00000000000E+00 0.  1.
</event>
<event>
 7    1  0.5019004E-011  0.5052885E+02  0.7816164E-02  0.1300439E+00
        -11   -1    0    0    0    0  0.00000000000E+00  0.00000000000E+00  0.45593999997E+02  0.45594000000E+02  0.51100000000E-03 0.  1.
         11   -1    0    0    0    0 -0.00000000000E+00 -0.00000000000E+00 -0.45593999997E+02  0.45594000000E+02  0.51100000000E-03 0. -1.
    9900012    2    1    2    0    0  0.19335708008E+02 -0.30224305271E+02 -0.19125588311E+02  0.50528851441E+02  0.29999974441E+02 0.  0.
        -12    1    1    2    0    0 -0.19335708008E+02  0.30224305271E+02  0.19125588311E+02  0.40659148559E+02  0.00000000000E+00 0.  1.
         11    1    3    3    0    0  0.11331228295E+02 -0.53932669875E-01 -0.10823346174E+02  0.15669858521E+02  0.51100000000E-03 0. -1.
        -11    1    3    3    0    0 -0.31673751881E+01 -0.30406441017E+01 -0.90628809995E-01  0.43915824002E+01  0.51100000000E-03 0.  1.
         12    1    3    3    0    0  0.11171854902E+02 -0.27129728499E+02 -0.82116133263E+01  0.30467410520E+02  0.00000000000E+00 0. -1.
</event>
<event>
 7    1  0.5019004E-011  0.5052887E+02  0.7816164E-02  0.1300439E+00
        -11   -1    0    0    0    0  0.00000000000E+00  0.00000000000E+00  0.45593999997E+02  0.45594000000E+02  0.51100000000E-03 0.  1.
         11   -1    0    0    0    0 -0.00000000000E+00 -0.00000000000E+00 -0.45593999997E+02  0.45594000000E+02  0.51100000000E-03 0. -1.
    9900012    2    1    2    0    0  0.20705932365E+02  0.24377211954E+02 -0.25103399872E+02  0.50528870854E+02  0.30000033448E+02 0.  0.
        -12    1    1    2    0    0 -0.20705932365E+02 -0.24377211954E+02  0.25103399872E+02  0.40659129146E+02  0.00000000000E+00 0.  1.
         11    1    3    3    0    0 -0.65035639025E-01  0.10116594948E+02 -0.13692150631E+02  0.17024238960E+02  0.51100000000E-03 0. -1.
        -11    1    3    3    0    0  0.82223112681E+01  0.10095491051E+02  0.35921815544E+01  0.13506632101E+02  0.51100000000E-03 0.  1.
         12    1    3    3    0    0  0.12548656736E+02  0.41651259551E+01 -0.15003430796E+02  0.19997999793E+02  0.00000000000E+00 0. -1.
</event>
<event>
 7    1  0.5019004E-011  0.5052886E+02  0.7816164E-02  0.1300439E+00
        -11   -1    0    0    0    0  0.00000000000E+00  0.00000000000E+00  0.45593999997E+02  0.45594000000E+02  0.51100000000E-03 0.  1.
         11   -1    0    0    0    0 -0.00000000000E+00 -0.00000000000E+00 -0.45593999997E+02  0.45594000000E+02  0.51100000000E-03 0. -1.
    9900012    2    1    2    0    0  0.48775100172E+01  0.39153274184E+02 -0.98181754378E+01  0.50528861394E+02  0.30000004692E+02 0.  0.
        -12    1    1    2    0    0 -0.48775100172E+01 -0.39153274184E+02  0.98181754378E+01  0.40659138606E+02  0.00000000000E+00 0.  1.
         11    1    3    3    0    0  0.19595441983E+01  0.28443377487E+02 -0.18348736854E+02  0.33904891693E+02  0.51100000000E-03 0. -1.
        -11    1    3    3    0    0  0.45300845806E+01  0.11536448746E+02  0.79368564455E+01  0.14717506802E+02  0.51100000000E-03 0.  1.
         12    1    3    3    0    0 -0.16121187616E+01 -0.82655204881E+00  0.59370497031E+00  0.19064628984E+01  0.00000000000E+00 0. -1.
</event>
<event>
 7    1  0.5019004E-011  0.5052886E+02  0.7816164E-02  0.1300439E+00
        -11   -1    0    0    0    0  0.00000000000E+00  0.00000000000E+00  0.45593999997E+02  0.45594000000E+02  0.51100000000E-03 0.  1.
         11   -1    0    0    0    0 -0.00000000000E+00 -0.00000000000E+00 -0.45593999997E+02  0.45594000000E+02  0.51100000000E-03 0. -1.
    9900012    2    1    2    0    0 -0.37228123941E+02  0.54814679403E+01 -0.15400844774E+02  0.50528859297E+02  0.29999998318E+02 0.  0.
        -12    1    1    2    0    0  0.37228123941E+02 -0.54814679403E+01  0.15400844774E+02  0.40659140703E+02  0.00000000000E+00 0.  1.
         11    1    3    3    0    0 -0.37261808571E+02 -0.37398391019E+01 -0.11148315274E+02  0.39073184003E+02  0.51100000000E-03 0. -1.
        -11    1    3    3    0    0  0.17053686107E+01  0.24087711343E+01 -0.32157953164E+01  0.43648367957E+01  0.51100000000E-03 0.  1.
         12    1    3    3    0    0 -0.16716839813E+01  0.68125359079E+01 -0.10367341844E+01  0.70908384975E+01  0.00000000000E+00 0. -1.
</event>
<event>
 7    1  0.5019004E-011  0.5052887E+02  0.7816164E-02  0.1300439E+00
        -11   -1    0    0    0    0  0.00000000000E+00  0.00000000000E+00  0.45593999997E+02  0.45594000000E+02  0.51100000000E-03 0.  1.
         11   -1    0    0    0    0 -0.00000000000E+00 -0.00000000000E+00 -0.45593999997E+02  0.45594000000E+02  0.51100000000E-03 0. -1.
    9900012    2    1    2    0    0 -0.39865935379E+01  0.34237748535E+02 -0.21564983318E+02  0.50528869927E+02  0.30000030629E+02 0.  0.
        -12    1    1    2    0    0  0.39865935379E+01 -0.34237748535E+02  0.21564983318E+02  0.40659130073E+02  0.00000000000E+00 0.  1.
         11    1    3    3    0    0  0.54388929674E+01  0.12390920845E+02 -0.79401050828E+01  0.15689542539E+02  0.51100000000E-03 0. -1.
        -11    1    3    3    0    0 -0.99533741947E+01 -0.13901712136E+00 -0.56488638787E+01  0.11445464036E+02  0.51100000000E-03 0.  1.
        -12    1    3    3    0    0  0.52788768935E+00  0.21985844811E+02 -0.79760143570E+01  0.23393863351E+02  0.00000000000E+00 0.  1.
</event>
<event>
 7    1  0.5019004E-011  0.5052887E+02  0.7816164E-02  0.1300439E+00
        -11   -1    0    0    0    0  0.00000000000E+00  0.00000000000E+00  0.45593999997E+02  0.45594000000E+02  0.51100000000E-03 0.  1.
         11   -1    0    0    0    0 -0.00000000000E+00 -0.00000000000E+00 -0.45593999997E+02  0.45594000000E+02  0.51100000000E-03 0. -1.
    9900012    2    1    2    0    0 -0.53230424780E+01  0.36113395135E+02 -0.17906789634E+02  0.50528865670E+02  0.30000017692E+02 0.  0.
        -12    1    1    2    0    0  0.53230424780E+01 -0.36113395135E+02  0.17906789634E+02  0.40659134330E+02  0.00000000000E+00 0.  1.
         11    1    3    3    0    0  0.63946194839E+01  0.26929211858E+02 -0.88065362472E+01  0.29045286891E+02  0.51100000000E-03 0. -1.
        -11    1    3    3    0    0 -0.13734825279E+02  0.58118394669E+01 -0.48207985439E+01  0.15673640365E+02  0.51100000000E-03 0.  1.
        -12    1    3    3    0    0  0.20171633173E+01  0.33723438106E+01 -0.42794548428E+01  0.58099384142E+01  0.00000000000E+00 0.  1.
</event>
<event>
 7    1  0.5019004E-011  0.5052886E+02  0.7816164E-02  0.1300439E+00
        -11   -1    0    0    0    0  0.00000000000E+00  0.00000000000E+00  0.45593999997E+02  0.45594000000E+02  0.51100000000E-03 0.  1.
         11   -1    0    0    0    0 -0.00000000000E+00 -0.00000000000E+00 -0.45593999997E+02  0.45594000000E+02  0.51100000000E-03 0. -1.
    9900012    2    1    2    0    0  0.63631164835E+01  0.35884928266E+02 -0.18026325499E+02  0.50528859096E+02  0.29999997709E+02 0.  0.
        -12    1    1    2    0    0 -0.63631164835E+01 -0.35884928266E+02  0.18026325499E+02  0.40659140904E+02  0.00000000000E+00 0.  1.
         11    1    3    3    0    0  0.14088247372E+02  0.14811821217E+02 -0.16139812575E+02  0.26045389457E+02  0.51100000000E-03 0. -1.
        -11    1    3    3    0    0 -0.11666453604E+01  0.74120088537E+01  0.36576119631E+01  0.83472787289E+01  0.51100000000E-03 0.  1.
         12    1    3    3    0    0 -0.65584855278E+01  0.13661098196E+02 -0.55441248868E+01  0.16136190910E+02  0.00000000000E+00 0. -1.
</event>
<event>
 7    1  0.5019004E-011  0.5052886E+02  0.7816164E-02  0.1300439E+00
        -11   -1    0    0    0    0  0.00000000000E+00  0.00000000000E+00  0.45593999997E+02  0.45594000000E+02  0.51100000000E-03 0.  1.
         11   -1    0    0    0    0 -0.00000000000E+00 -0.00000000000E+00 -0.45593999997E+02  0.45594000000E+02  0.51100000000E-03 0. -1.
    9900012    2    1    2    0    0  0.13794773382E+02  0.26318284950E+02 -0.27752791508E+02  0.50528864104E+02  0.30000012930E+02 0.  0.
        -12    1    1    2    0    0 -0.13794773382E+02 -0.26318284950E+02  0.27752791508E+02  0.40659135896E+02  0.00000000000E+00 0.  1.
         11    1    3    3    0    0  0.80846926610E+01  0.26566053918E+02 -0.26517959398E+02  0.38396870277E+02  0.51100000000E-03 0. -1.
        -11    1    3    3    0    0  0.89733137436E+00 -0.48627066174E+01  0.11027291324E+01  0.50662738816E+01  0.51100000000E-03 0.  1.
        -12    1    3    3    0    0  0.48127493467E+01  0.46149376496E+01 -0.23375612420E+01  0.70657199452E+01  0.00000000000E+00 0.  1.
</event>
<event>
 7    1  0.5019004E-011  0.5052893E+02  0.7816164E-02  0.1300439E+00
        -11   -1    0    0    0    0  0.00000000000E+00  0.00000000000E+00  0.45593999997E+02  0.45594000000E+02  0.51100000000E-03 0. -1.
         11   -1    0    0    0    0 -0.00000000000E+00 -0.00000000000E+00 -0.45593999997E+02  0.45594000000E+02  0.51100000000E-03 0.  1.
    9900012    2    1    2    0    0  0.21215402311E+02 -0.19102598140E+02  0.28950951793E+02  0.50528927696E+02  0.30000206225E+02 0.  0.
        -12    1    1    2    0    0 -0.21215402311E+02  0.19102598140E+02 -0.28950951793E+02  0.40659072304E+02  0.00000000000E+00 0.  1.
         11    1    3    3    0    0  0.12291239139E+02  0.14620380298E+00 -0.16457633580E+01  0.12401793113E+02  0.51100000000E-03 0. -1.
        -11    1    3    3    0    0  0.42186071062E+01 -0.12438055085E+02  0.12081501379E+02  0.17845574691E+02  0.51100000000E-03 0.  1.
         12    1    3    3    0    0  0.47055560651E+01 -0.68107468584E+01  0.18515213772E+02  0.20281559892E+02  0.00000000000E+00 0. -1.
</event>
<event>
 7    1  0.5019004E-011  0.5052887E+02  0.7816164E-02  0.1300439E+00
        -11   -1    0    0    0    0  0.00000000000E+00  0.00000000000E+00  0.45593999997E+02  0.45594000000E+02  0.51100000000E-03 0.  1.
         11   -1    0    0    0    0 -0.00000000000E+00 -0.00000000000E+00 -0.45593999997E+02  0.45594000000E+02  0.51100000000E-03 0. -1.
    9900012    2    1    2    0    0 -0.49991401210E+01 -0.35740492285E+01 -0.40192034887E+02  0.50528869436E+02  0.30000029138E+02 0.  0.
        -12    1    1    2    0    0  0.49991401210E+01  0.35740492285E+01  0.40192034887E+02  0.40659130564E+02  0.00000000000E+00 0.  1.
         11    1    3    3    0    0 -0.10659501839E+02  0.25464425316E+01 -0.43064310180E+01  0.11775172924E+02  0.51100000000E-03 0.  1.
        -11    1    3    3    0    0  0.26177910304E+01 -0.89614878675E+01 -0.30787860776E+02  0.32172246830E+02  0.51100000000E-03 0. -1.
         12    1    3    3    0    0  0.30425706874E+01  0.28409961074E+01 -0.50977430929E+01  0.65814496816E+01  0.00000000000E+00 0. -1.
</event>
<event>
 7    1  0.5019004E-011  0.5052887E+02  0.7816164E-02  0.1300439E+00
        -11   -1    0    0    0    0  0.00000000000E+00  0.00000000000E+00  0.45593999997E+02  0.45594000000E+02  0.51100000000E-03 0. -1.
         11   -1    0    0    0    0 -0.00000000000E+00 -0.00000000000E+00 -0.45593999997E+02  0.45594000000E+02  0.51100000000E-03 0.  1.
    9900012    2    1    2    0    0  0.19598301010E+02 -0.33907848020E+02  0.10923810055E+02  0.50528865898E+02  0.30000018384E+02 0.  0.
        -12    1    1    2    0    0 -0.19598301010E+02  0.33907848020E+02 -0.10923810055E+02  0.40659134102E+02  0.00000000000E+00 0.  1.
         11    1    3    3    0    0  0.21043654155E+02 -0.28449411691E+02  0.11896704444E+02  0.37332773573E+02  0.51100000000E-03 0. -1.
        -11    1    3    3    0    0 -0.40607454832E+01 -0.81833667541E+01 -0.18445460789E+01  0.93198441945E+01  0.51100000000E-03 0.  1.
         12    1    3    3    0    0  0.26153923386E+01  0.27249304249E+01  0.87165168911E+00  0.38762481309E+01  0.00000000000E+00 0. -1.
</event>
<event>
 7    1  0.5019004E-011  0.5052875E+02  0.7816164E-02  0.1300439E+00
        -11   -1    0    0    0    0  0.00000000000E+00  0.00000000000E+00  0.45593999997E+02  0.45594000000E+02  0.51100000000E-03 0.  1.
         11   -1    0    0    0    0 -0.00000000000E+00 -0.00000000000E+00 -0.45593999997E+02  0.45594000000E+02  0.51100000000E-03 0. -1.
    9900012    2    1    2    0    0 -0.31128428187E+02  0.25223586227E+02  0.69257654196E+01  0.50528750497E+02  0.29999667608E+02 0.  0.
        -12    1    1    2    0    0  0.31128428187E+02 -0.25223586227E+02 -0.69257654196E+01  0.40659249503E+02  0.00000000000E+00 0.  1.
         11    1    3    3    0    0 -0.14383573145E+02  0.10218927525E+02 -0.11194138369E+02  0.20895511247E+02  0.51100000000E-03 0. -1.
        -11    1    3    3    0    0 -0.20484066325E+01  0.28446871711E+01  0.62522232210E+01  0.71678804607E+01  0.51100000000E-03 0.  1.
         12    1    3    3    0    0 -0.14696448410E+02  0.12159971530E+02  0.11867680568E+02  0.22465358789E+02  0.00000000000E+00 0. -1.
</event>
<event>
 7    1  0.5019004E-011  0.5052886E+02  0.7816164E-02  0.1300439E+00
        -11   -1    0    0    0    0  0.00000000000E+00  0.00000000000E+00  0.45593999997E+02  0.45594000000E+02  0.51100000000E-03 0.  1.
         11   -1    0    0    0    0 -0.00000000000E+00 -0.00000000000E+00 -0.45593999997E+02  0.45594000000E+02  0.51100000000E-03 0. -1.
    9900012    2    1    2    0    0 -0.94225811517E+01  0.22043251256E+02 -0.32840151075E+02  0.50528862231E+02  0.30000007237E+02 0.  0.
        -12    1    1    2    0    0  0.94225811517E+01 -0.22043251256E+02  0.32840151075E+02  0.40659137769E+02  0.00000000000E+00 0.  1.
         11    1    3    3    0    0 -0.15678094642E+02  0.17583441753E+02 -0.32765265096E+02  0.40355206264E+02  0.51100000000E-03 0. -1.
        -11    1    3    3    0    0  0.69217273017E+01  0.18695652611E+01 -0.12046815275E+01  0.72702710368E+01  0.51100000000E-03 0.  1.
         12    1    3    3    0    0 -0.66621381125E+00  0.25902442412E+01  0.11297955487E+01  0.29033849303E+01  0.00000000000E+00 0. -1.
</event>
<event>
 7    1  0.5019004E-011  0.5052886E+02  0.7816164E-02  0.1300439E+00
        -11   -1    0    0    0    0  0.00000000000E+00  0.00000000000E+00  0.45593999997E+02  0.45594000000E+02  0.51100000000E-03 0. -1.
         11   -1    0    0    0    0 -0.00000000000E+00 -0.00000000000E+00 -0.45593999997E+02  0.45594000000E+02  0.51100000000E-03 0.  1.
    9900012    2    1    2    0    0 -0.25981314350E+02  0.90418475019E+01  0.29939642909E+02  0.50528856881E+02  0.29999990976E+02 0.  0.
        -12    1    1    2    0    0  0.25981314350E+02 -0.90418475019E+01 -0.29939642909E+02  0.40659143119E+02  0.00000000000E+00 0.  1.
         11    1    3    3    0    0 -0.11526230777E+02 -0.31086102439E+01  0.25761522267E+02  0.28393194314E+02  0.51100000000E-03 0. -1.
        -11    1    3    3    0    0 -0.55168653103E+01  0.20557184979E+01 -0.32674226400E+01  0.67333373868E+01  0.51100000000E-03 0.  1.
         12    1    3    3    0    0 -0.89382182628E+01  0.10094739248E+02  0.74455432826E+01  0.15402325181E+02  0.00000000000E+00 0. -1.
</event>
<event>
 7    1  0.6875845E-011  0.5052884E+02  0.7816164E-02  0.1300439E+00
        -11   -1    0    0    0    0  0.00000000000E+00  0.00000000000E+00  0.45593999997E+02  0.45594000000E+02  0.51100000000E-03 0. -1.
         11   -1    0    0    0    0 -0.00000000000E+00 -0.00000000000E+00 -0.45593999997E+02  0.45594000000E+02  0.51100000000E-03 0.  1.
    9900012    2    1    2    0    0  0.45434015857E+01 -0.54630412492E+01  0.40033487737E+02  0.50528837957E+02  0.29999933455E+02 0.  0.
        -12    1    1    2    0    0 -0.45434015857E+01  0.54630412492E+01 -0.40033487737E+02  0.40659162043E+02  0.00000000000E+00 0.  1.
         11    1    3    3    0    0  0.56342401740E+01 -0.25946000159E+01  0.32477590324E+02  0.33064641010E+02  0.51100000000E-03 0. -1.
        -11    1    3    3    0    0 -0.47041488037E+01  0.39536905972E+01 -0.67205492171E+00  0.61816133319E+01  0.51100000000E-03 0.  1.
         12    1    3    3    0    0  0.36133102155E+01 -0.68221318304E+01  0.82279523341E+01  0.11282583615E+02  0.00000000000E+00 0. -1.
</event>
<event>
 7    1  0.5019004E-011  0.5052887E+02  0.7816164E-02  0.1300439E+00
        -11   -1    0    0    0    0  0.00000000000E+00  0.00000000000E+00  0.45593999997E+02  0.45594000000E+02  0.51100000000E-03 0.  1.
         11   -1    0    0    0    0 -0.00000000000E+00 -0.00000000000E+00 -0.45593999997E+02  0.45594000000E+02  0.51100000000E-03 0. -1.
    9900012    2    1    2    0    0 -0.26627747101E+02  0.30428402292E+02 -0.42708807570E+01  0.50528868133E+02  0.30000025178E+02 0.  0.
        -12    1    1    2    0    0  0.26627747101E+02 -0.30428402292E+02  0.42708807570E+01  0.40659131867E+02  0.00000000000E+00 0.  1.
         11    1    3    3    0    0 -0.13772102795E+02  0.11311264100E+02 -0.89619648033E+00  0.17844289824E+02  0.51100000000E-03 0. -1.
        -11    1    3    3    0    0 -0.30387556803E+01  0.23243919729E+01 -0.11110769516E+02  0.11751001389E+02  0.51100000000E-03 0.  1.
        -12    1    3    3    0    0 -0.98168886259E+01  0.16792746219E+02  0.77360852396E+01  0.20933576921E+02  0.00000000000E+00 0.  1.
</event>
<event>
 7    1  0.5019004E-011  0.5052886E+02  0.7816164E-02  0.1300439E+00
        -11   -1    0    0    0    0  0.00000000000E+00  0.00000000000E+00  0.45593999997E+02  0.45594000000E+02  0.51100000000E-03 0.  1.
         11   -1    0    0    0    0 -0.00000000000E+00 -0.00000000000E+00 -0.45593999997E+02  0.45594000000E+02  0.51100000000E-03 0. -1.
    9900012    2    1    2    0    0 -0.19921381871E+02 -0.15456805958E+02 -0.31896571818E+02  0.50528860808E+02  0.30000002913E+02 0.  0.
        -12    1    1    2    0    0  0.19921381871E+02  0.15456805958E+02  0.31896571818E+02  0.40659139192E+02  0.00000000000E+00 0.  1.
         11    1    3    3    0    0 -0.62749125122E+01  0.48729479578E+01 -0.84163923260E+01  0.11573927980E+02  0.51100000000E-03 0. -1.
        -11    1    3    3    0    0 -0.17463564059E+01 -0.17655162416E+02 -0.18910750410E+02  0.25930117662E+02  0.51100000000E-03 0.  1.
         12    1    3    3    0    0 -0.11900112953E+02 -0.26745914992E+01 -0.45694290820E+01  0.13024815166E+02  0.00000000000E+00 0. -1.
</event>
<event>
 7    1  0.5019004E-011  0.5052886E+02  0.7816164E-02  0.1300439E+00
        -11   -1    0    0    0    0  0.00000000000E+00  0.00000000000E+00  0.45593999997E+02  0.45594000000E+02  0.51100000000E-03 0.  1.
         11   -1    0    0    0    0 -0.00000000000E+00 -0.00000000000E+00 -0.45593999997E+02  0.45594000000E+02  0.51100000000E-03 0. -1.
    9900012    2    1    2    0    0  0.38069757536E+02 -0.75583924236E+01 -0.12113213881E+02  0.50528859756E+02  0.29999999713E+02 0.  0.
        -12    1    1    2    0    0 -0.38069757536E+02  0.75583924236E+01  0.12113213881E+02  0.40659140244E+02  0.00000000000E+00 0.  1.
         11    1    3    3    0    0  0.37305989918E+02  0.82835777960E+00 -0.16408963663E+02  0.40763674382E+02  0.51100000000E-03 0. -1.
        -11    1    3    3    0    0  0.15292813326E+01 -0.37962713898E+01  0.16582946189E+01  0.44159165712E+01  0.51100000000E-03 0.  1.
         12    1    3    3    0    0 -0.76551371423E+00 -0.45904788135E+01  0.26374551633E+01  0.53492688025E+01  0.00000000000E+00 0. -1.
</event>
<event>
 7    1  0.5019004E-011  0.5052886E+02  0.7816164E-02  0.1300439E+00
        -11   -1    0    0    0    0  0.00000000000E+00  0.00000000000E+00  0.45593999997E+02  0.45594000000E+02  0.51100000000E-03 0. -1.
         11   -1    0    0    0    0 -0.00000000000E+00 -0.00000000000E+00 -0.45593999997E+02  0.45594000000E+02  0.51100000000E-03 0.  1.
    9900012    2    1    2    0    0 -0.20238035578E+02 -0.13014636762E+02  0.32775093111E+02  0.50528861021E+02  0.30000003559E+02 0.  0.
        -12    1    1    2    0    0  0.20238035578E+02  0.13014636762E+02 -0.32775093111E+02  0.40659138979E+02  0.00000000000E+00 0.  1.
         11    1    3    3    0    0 -0.16566248240E+02 -0.12104733671E+01  0.31038217135E+02  0.35203362761E+02  0.51100000000E-03 0. -1.
        -11    1    3    3    0    0 -0.62603983208E+01 -0.10228620305E+02  0.36210049877E+00  0.11997848870E+02  0.51100000000E-03 0.  1.
         12    1    3    3    0    0  0.25886109828E+01 -0.15755430898E+01  0.13747754772E+01  0.33276493897E+01  0.00000000000E+00 0. -1.
</event>
<event>
 7    1  0.5019004E-011  0.5052890E+02  0.7816164E-02  0.1300439E+00
        -11   -1    0    0    0    0  0.00000000000E+00  0.00000000000E+00  0.45593999997E+02  0.45594000000E+02  0.51100000000E-03 0.  1.
         11   -1    0    0    0    0 -0.00000000000E+00 -0.00000000000E+00 -0.45593999997E+02  0.45594000000E+02  0.51100000000E-03 0. -1.
    9900012    2    1    2    0    0 -0.44446024252E+01 -0.40328888635E+02 -0.26436801944E+01  0.50528895310E+02  0.30000107784E+02 0.  0.
        -12    1    1    2    0    0  0.44446024252E+01  0.40328888635E+02  0.26436801944E+01  0.40659104690E+02  0.00000000000E+00 0.  1.
         11    1    3    3    0    0  0.63068273751E+01 -0.18742197056E+02  0.10531819918E+01  0.19802909246E+02  0.51100000000E-03 0. -1.
        -11    1    3    3    0    0 -0.33271918054E+01  0.29926290854E+01  0.10938047947E+01  0.46067823199E+01  0.51100000000E-03 0.  1.
         12    1    3    3    0    0 -0.74242379948E+01 -0.24579320664E+02 -0.47906669809E+01  0.26119203744E+02  0.00000000000E+00 0. -1.
</event>
<event>
 7    1  0.5019004E-011  0.5052886E+02  0.7816164E-02  0.1300439E+00
        -11   -1    0    0    0    0  0.00000000000E+00  0.00000000000E+00  0.45593999997E+02  0.45594000000E+02  0.51100000000E-03 0.  1.
         11   -1    0    0    0    0 -0.00000000000E+00 -0.00000000000E+00 -0.45593999997E+02  0.45594000000E+02  0.51100000000E-03 0. -1.
    9900012    2    1    2    0    0  0.51649068399E+01 -0.22629917679E+02 -0.33382269741E+02  0.50528863635E+02  0.30000011506E+02 0.  0.
        -12    1    1    2    0    0 -0.51649068399E+01  0.22629917679E+02  0.33382269741E+02  0.40659136365E+02  0.00000000000E+00 0.  1.
         11    1    3    3    0    0  0.70205573049E+01 -0.24246579082E+02 -0.24166692602E+02  0.34945870337E+02  0.51100000000E-03 0. -1.
        -11    1    3    3    0    0  0.45102825416E+01  0.37321927741E+01 -0.44773900908E+01  0.73701379766E+01  0.51100000000E-03 0.  1.
         12    1    3    3    0    0 -0.63659330066E+01 -0.21155313709E+01 -0.47381870488E+01  0.82128553217E+01  0.00000000000E+00 0. -1.
</event>
<event>
 7    1  0.5019004E-011  0.5052884E+02  0.7816164E-02  0.1300439E+00
        -11   -1    0    0    0    0  0.00000000000E+00  0.00000000000E+00  0.45593999997E+02  0.45594000000E+02  0.51100000000E-03 0.  1.
         11   -1    0    0    0    0 -0.00000000000E+00 -0.00000000000E+00 -0.45593999997E+02  0.45594000000E+02  0.51100000000E-03 0. -1.
    9900012    2    1    2    0    0  0.12303959462E+02 -0.20999253403E+02 -0.32570100541E+02  0.50528837304E+02  0.29999931468E+02 0.  0.
        -12    1    1    2    0    0 -0.12303959462E+02  0.20999253403E+02  0.32570100541E+02  0.40659162696E+02  0.00000000000E+00 0.  1.
         11    1    3    3    0    0  0.65020565161E+01 -0.19250709135E+02 -0.10962065848E+02  0.23087516737E+02  0.51100000000E-03 0. -1.
        -11    1    3    3    0    0 -0.29359209888E+01 -0.32692198979E+01 -0.16774749443E+02  0.17340693468E+02  0.51100000000E-03 0.  1.
        -12    1    3    3    0    0  0.87378239349E+01  0.15206756305E+01 -0.48332852497E+01  0.10100627099E+02  0.00000000000E+00 0.  1.
</event>
<event>
 7    1  0.5019004E-011  0.5052886E+02  0.7816164E-02  0.1300439E+00
        -11   -1    0    0    0    0  0.00000000000E+00  0.00000000000E+00  0.45593999997E+02  0.45594000000E+02  0.51100000000E-03 0.  1.
         11   -1    0    0    0    0 -0.00000000000E+00 -0.00000000000E+00 -0.45593999997E+02  0.45594000000E+02  0.51100000000E-03 0. -1.
    9900012    2    1    2    0    0 -0.10580391053E+02  0.20195765199E+02 -0.33665291431E+02  0.50528862602E+02  0.30000008365E+02 0.  0.
        -12    1    1    2    0    0  0.10580391053E+02 -0.20195765199E+02  0.33665291431E+02  0.40659137398E+02  0.00000000000E+00 0.  1.
         11    1    3    3    0    0 -0.22646213225E+01 -0.32263166637E+01 -0.18238415168E+02  0.18659512777E+02  0.51100000000E-03 0. -1.
        -11    1    3    3    0    0 -0.75012037993E+01  0.16129911756E+02 -0.16726553118E+02  0.24417610267E+02  0.51100000000E-03 0.  1.
         12    1    3    3    0    0 -0.81456593074E+00  0.72921701060E+01  0.12996768551E+01  0.74517395579E+01  0.00000000000E+00 0. -1.
</event>
<event>
 7    1  0.5019004E-011  0.5052887E+02  0.7816164E-02  0.1300439E+00
        -11   -1    0    0    0    0  0.00000000000E+00  0.00000000000E+00  0.45593999997E+02  0.45594000000E+02  0.51100000000E-03 0.  1.
         11   -1    0    0    0    0 -0.00000000000E+00 -0.00000000000E+00 -0.45593999997E+02  0.45594000000E+02  0.51100000000E-03 0. -1.
    9900012    2    1    2    0    0  0.22029972301E+02  0.30047547099E+02 -0.16278520645E+02  0.50528868177E+02  0.30000025311E+02 0.  0.
        -12    1    1    2    0    0 -0.22029972301E+02 -0.30047547099E+02  0.16278520645E+02  0.40659131823E+02  0.00000000000E+00 0.  1.
         11    1    3    3    0    0  0.12004340646E+02  0.17141784433E+02  0.18520428776E+01  0.21008927411E+02  0.51100000000E-03 0. -1.
        -11    1    3    3    0    0  0.47979850835E+01 -0.19153222985E+01 -0.11218943223E+02  0.12351267452E+02  0.51100000000E-03 0.  1.
         12    1    3    3    0    0  0.52276465708E+01  0.14821084965E+02 -0.69116202991E+01  0.17168673314E+02  0.00000000000E+00 0. -1.
</event>
<event>
 7    1  0.5019004E-011  0.5052886E+02  0.7816164E-02  0.1300439E+00
        -11   -1    0    0    0    0  0.00000000000E+00  0.00000000000E+00  0.45593999997E+02  0.45594000000E+02  0.51100000000E-03 0. -1.
         11   -1    0    0    0    0 -0.00000000000E+00 -0.00000000000E+00 -0.45593999997E+02  0.45594000000E+02  0.51100000000E-03 0.  1.
    9900012    2    1    2    0    0  0.29852833295E+02  0.22073612730E+02 -0.16574979982E+02  0.50528855935E+02  0.29999988101E+02 0.  0.
        -12    1    1    2    0    0 -0.29852833295E+02 -0.22073612730E+02  0.16574979982E+02  0.40659144065E+02  0.00000000000E+00 0.  1.
         11    1    3    3    0    0  0.14954859726E+02  0.25281350884E+02 -0.13676081678E+02  0.32401076251E+02  0.51100000000E-03 0. -1.
        -11    1    3    3    0    0  0.68262129078E+01 -0.93512958507E+00 -0.60504808195E+01  0.91695129866E+01  0.51100000000E-03 0.  1.
         12    1    3    3    0    0  0.80717606607E+01 -0.22726085687E+01  0.31515825148E+01  0.89582666972E+01  0.00000000000E+00 0. -1.
</event>
<event>
 7    1  0.5019004E-011  0.5052885E+02  0.7816164E-02  0.1300439E+00
        -11   -1    0    0    0    0  0.00000000000E+00  0.00000000000E+00  0.45593999997E+02  0.45594000000E+02  0.51100000000E-03 0.  1.
         11   -1    0    0    0    0 -0.00000000000E+00 -0.00000000000E+00 -0.45593999997E+02  0.45594000000E+02  0.51100000000E-03 0. -1.
    9900012    2    1    2    0    0  0.28615103490E+02 -0.34946842869E+01 -0.28672799298E+02  0.50528851145E+02  0.29999973541E+02 0.  0.
        -12    1    1    2    0    0 -0.28615103490E+02  0.34946842869E+01  0.28672799298E+02  0.40659148855E+02  0.00000000000E+00 0.  1.
         11    1    3    3    0    0  0.10524807610E+01 -0.29134119223E+01  0.13510727282E+01  0.33795092187E+01  0.51100000000E-03 0. -1.
        -11    1    3    3    0    0  0.70151911776E+01  0.88199119935E+01 -0.18800684750E+02  0.21919614553E+02  0.51100000000E-03 0.  1.
        -12    1    3    3    0    0  0.20547431552E+02 -0.94011843580E+01 -0.11223187275E+02  0.25229727373E+02  0.00000000000E+00 0.  1.
</event>
<event>
 7    1  0.5019004E-011  0.5052882E+02  0.7816164E-02  0.1300439E+00
        -11   -1    0    0    0    0  0.00000000000E+00  0.00000000000E+00  0.45593999997E+02  0.45594000000E+02  0.51100000000E-03 0.  1.
         11   -1    0    0    0    0 -0.00000000000E+00 -0.00000000000E+00 -0.45593999997E+02  0.45594000000E+02  0.51100000000E-03 0. -1.
    9900012    2    1    2    0    0  0.37837647596E+02  0.95183391767E+01 -0.11440380102E+02  0.50528823260E+02  0.29999888781E+02 0.  0.
        -12    1    1    2    0    0 -0.37837647596E+02 -0.95183391767E+01  0.11440380102E+02  0.40659176740E+02  0.00000000000E+00 0.  1.
         11    1    3    3    0    0  0.26226313139E+02 -0.22250527474E+00  0.11729362287E+01  0.26253471944E+02  0.51100000000E-03 0.  1.
        -11    1    3    3    0    0  0.40325156387E+01  0.12075695672E+02 -0.67269275114E+01  0.14399137556E+02  0.51100000000E-03 0. -1.
         12    1    3    3    0    0  0.75788188190E+01 -0.23348512206E+01 -0.58863888193E+01  0.98762137606E+01  0.00000000000E+00 0. -1.
</event>
<event>
 7    1  0.5019004E-011  0.5052886E+02  0.7816164E-02  0.1300439E+00
        -11   -1    0    0    0    0  0.00000000000E+00  0.00000000000E+00  0.45593999997E+02  0.45594000000E+02  0.51100000000E-03 0. -1.
         11   -1    0    0    0    0 -0.00000000000E+00 -0.00000000000E+00 -0.45593999997E+02  0.45594000000E+02  0.51100000000E-03 0.  1.
    9900012    2    1    2    0    0 -0.13956561634E+02  0.12933315353E+02  0.35932010875E+02  0.50528860016E+02  0.30000000506E+02 0.  0.
        -12    1    1    2    0    0  0.13956561634E+02 -0.12933315353E+02 -0.35932010875E+02  0.40659139984E+02  0.00000000000E+00 0.  1.
         11    1    3    3    0    0 -0.13072480446E+02  0.38994490536E+01  0.11101692127E+02  0.17588149882E+02  0.51100000000E-03 0. -1.
        -11    1    3    3    0    0  0.64296994854E+01  0.33355064605E+01  0.22127932194E+02  0.23283299214E+02  0.51100000000E-03 0.  1.
         12    1    3    3    0    0 -0.73137806736E+01  0.56983598389E+01  0.27023865535E+01  0.96574109201E+01  0.00000000000E+00 0. -1.
</event>
<event>
 7    1  0.5019004E-011  0.5052887E+02  0.7816164E-02  0.1300439E+00
        -11   -1    0    0    0    0  0.00000000000E+00  0.00000000000E+00  0.45593999997E+02  0.45594000000E+02  0.51100000000E-03 0.  1.
         11   -1    0    0    0    0 -0.00000000000E+00 -0.00000000000E+00 -0.45593999997E+02  0.45594000000E+02  0.51100000000E-03 0. -1.
    9900012    2    1    2    0    0  0.22955596091E+02 -0.29811627523E+02 -0.15410131524E+02  0.50528872106E+02  0.30000037255E+02 0.  0.
        -12    1    1    2    0    0 -0.22955596091E+02  0.29811627523E+02  0.15410131524E+02  0.40659127894E+02  0.00000000000E+00 0.  1.
         11    1    3    3    0    0 -0.30287382633E+01 -0.40032930818E+01 -0.46824451704E+01  0.68647581167E+01  0.51100000000E-03 0. -1.
        -11    1    3    3    0    0  0.20847238994E+02 -0.13113114252E+02 -0.15570796103E+02  0.29137790421E+02  0.51100000000E-03 0.  1.
        -12    1    3    3    0    0  0.51370953601E+01 -0.12695220189E+02  0.48431097490E+01  0.14526323569E+02  0.00000000000E+00 0.  1.
</event>
<event>
 7    1  0.5019004E-011  0.5052886E+02  0.7816164E-02  0.1300439E+00
        -11   -1    0    0    0    0  0.00000000000E+00  0.00000000000E+00  0.45593999997E+02  0.45594000000E+02  0.51100000000E-03 0.  1.
         11   -1    0    0    0    0 -0.00000000000E+00 -0.00000000000E+00 -0.45593999997E+02  0.45594000000E+02  0.51100000000E-03 0. -1.
    9900012    2    1    2    0    0  0.35356055154E+02 -0.19577135598E+02 -0.44554217632E+01  0.50528860100E+02  0.30000000761E+02 0.  0.
        -12    1    1    2    0    0 -0.35356055154E+02  0.19577135598E+02  0.44554217632E+01  0.40659139900E+02  0.00000000000E+00 0.  1.
         11    1    3    3    0    0 -0.27327552578E+01  0.28432387186E+00 -0.17141747586E+01  0.32383926148E+01  0.51100000000E-03 0.  1.
        -11    1    3    3    0    0  0.35115255818E+02 -0.98764788712E+01  0.15120572938E+00  0.36478060385E+02  0.51100000000E-03 0. -1.
        -12    1    3    3    0    0  0.29735545940E+01 -0.99849805989E+01 -0.28924527339E+01  0.10812407100E+02  0.00000000000E+00 0.  1.
</event>
<event>
 7    1  0.5019004E-011  0.5052886E+02  0.7816164E-02  0.1300439E+00
        -11   -1    0    0    0    0  0.00000000000E+00  0.00000000000E+00  0.45593999997E+02  0.45594000000E+02  0.51100000000E-03 0.  1.
         11   -1    0    0    0    0 -0.00000000000E+00 -0.00000000000E+00 -0.45593999997E+02  0.45594000000E+02  0.51100000000E-03 0. -1.
    9900012    2    1    2    0    0  0.13550815741E+02 -0.35532814194E+02  0.14386100967E+02  0.50528863354E+02  0.30000010650E+02 0.  0.
        -12    1    1    2    0    0 -0.13550815741E+02  0.35532814194E+02 -0.14386100967E+02  0.40659136646E+02  0.00000000000E+00 0.  1.
         11    1    3    3    0    0  0.12507841017E+01 -0.17929173363E+02  0.79758422664E+00  0.17990437994E+02  0.51100000000E-03 0. -1.
        -11    1    3    3    0    0  0.17728939736E+02 -0.16038300947E+02  0.10687666598E+02  0.26187184251E+02  0.51100000000E-03 0.  1.
        -12    1    3    3    0    0 -0.54289080966E+01 -0.15653398831E+01  0.29008501425E+01  0.63512411086E+01  0.00000000000E+00 0.  1.
</event>
<event>
 7    1  0.5019004E-011  0.5052888E+02  0.7816164E-02  0.1300439E+00
        -11   -1    0    0    0    0  0.00000000000E+00  0.00000000000E+00  0.45593999997E+02  0.45594000000E+02  0.51100000000E-03 0.  1.
         11   -1    0    0    0    0 -0.00000000000E+00 -0.00000000000E+00 -0.45593999997E+02  0.45594000000E+02  0.51100000000E-03 0. -1.
    9900012    2    1    2    0    0  0.43280479541E+01 -0.39513760048E+02  0.85495345555E+01  0.50528883269E+02  0.30000071184E+02 0.  0.
        -12    1    1    2    0    0 -0.43280479541E+01  0.39513760048E+02 -0.85495345555E+01  0.40659116731E+02  0.00000000000E+00 0.  1.
         11    1    3    3    0    0  0.45912781363E+01 -0.12432781566E+02  0.56653846324E+01  0.14413551807E+02  0.51100000000E-03 0. -1.
        -11    1    3    3    0    0 -0.11206783762E+02 -0.17262578356E+02  0.52089357230E+01  0.21230205497E+02  0.51100000000E-03 0.  1.
        -12    1    3    3    0    0  0.10943553580E+02 -0.98184001254E+01 -0.23247857999E+01  0.14885125965E+02  0.00000000000E+00 0.  1.
</event>
<event>
 7    1  0.5019004E-011  0.5052886E+02  0.7816164E-02  0.1300439E+00
        -11   -1    0    0    0    0  0.00000000000E+00  0.00000000000E+00  0.45593999997E+02  0.45594000000E+02  0.51100000000E-03 0.  1.
         11   -1    0    0    0    0 -0.00000000000E+00 -0.00000000000E+00 -0.45593999997E+02  0.45594000000E+02  0.51100000000E-03 0. -1.
    9900012    2    1    2    0    0  0.39768161021E+02  0.25105816398E+01 -0.80843043675E+01  0.50528860458E+02  0.30000001850E+02 0.  0.
        -12    1    1    2    0    0 -0.39768161021E+02 -0.25105816398E+01  0.80843043675E+01  0.40659139542E+02  0.00000000000E+00 0.  1.
         11    1    3    3    0    0  0.11927753281E+02  0.77415196945E+01 -0.37098915115E+01  0.14695772209E+02  0.51100000000E-03 0. -1.
        -11    1    3    3    0    0  0.28631228569E+02 -0.67838243198E+01  0.17398599837E+01  0.29475322471E+02  0.51100000000E-03 0.  1.
        -12    1    3    3    0    0 -0.79082082938E+00  0.15528862651E+01 -0.61142728396E+01  0.63577657785E+01  0.00000000000E+00 0.  1.
</event>
<event>
 7    1  0.5019004E-011  0.5052886E+02  0.7816164E-02  0.1300439E+00
        -11   -1    0    0    0    0  0.00000000000E+00  0.00000000000E+00  0.45593999997E+02  0.45594000000E+02  0.51100000000E-03 0. -1.
         11   -1    0    0    0    0 -0.00000000000E+00 -0.00000000000E+00 -0.45593999997E+02  0.45594000000E+02  0.51100000000E-03 0.  1.
    9900012    2    1    2    0    0  0.40588662509E+02  0.19288775301E+01  0.14162550153E+01  0.50528857473E+02  0.29999992774E+02 0.  0.
        -12    1    1    2    0    0 -0.40588662509E+02 -0.19288775301E+01 -0.14162550153E+01  0.40659142527E+02  0.00000000000E+00 0.  1.
         11    1    3    3    0    0  0.25604662217E+02 -0.18892846271E+01 -0.82502789277E+01  0.26967299203E+02  0.51100000000E-03 0. -1.
        -11    1    3    3    0    0  0.14191711697E+02  0.76696512558E+01  0.39243377869E+01  0.16602067901E+02  0.51100000000E-03 0.  1.
         12    1    3    3    0    0  0.79228859489E+00 -0.38514890986E+01  0.57421961560E+01  0.69594903684E+01  0.00000000000E+00 0. -1.
</event>
<event>
 7    1  0.5019004E-011  0.5052886E+02  0.7816164E-02  0.1300439E+00
        -11   -1    0    0    0    0  0.00000000000E+00  0.00000000000E+00  0.45593999997E+02  0.45594000000E+02  0.51100000000E-03 0.  1.
         11   -1    0    0    0    0 -0.00000000000E+00 -0.00000000000E+00 -0.45593999997E+02  0.45594000000E+02  0.51100000000E-03 0. -1.
    9900012    2    1    2    0    0 -0.10508113855E+02  0.74854536477E+01 -0.38557923444E+02  0.50528856706E+02  0.29999990444E+02 0.  0.
        -12    1    1    2    0    0  0.10508113855E+02 -0.74854536477E+01  0.38557923444E+02  0.40659143294E+02  0.00000000000E+00 0.  1.
         11    1    3    3    0    0 -0.87164680118E+01  0.17718636857E+02 -0.22152764342E+02  0.29676116237E+02  0.51100000000E-03 0. -1.
        -11    1    3    3    0    0  0.20830698699E+01 -0.82369338192E+01 -0.11354063782E+02  0.14181009253E+02  0.51100000000E-03 0.  1.
        -12    1    3    3    0    0 -0.38747157132E+01 -0.19962493897E+01 -0.50510953202E+01  0.66717312159E+01  0.00000000000E+00 0.  1.
</event>
<event>
 7    1  0.5019004E-011  0.5052886E+02  0.7816164E-02  0.1300439E+00
        -11   -1    0    0    0    0  0.00000000000E+00  0.00000000000E+00  0.45593999997E+02  0.45594000000E+02  0.51100000000E-03 0.  1.
         11   -1    0    0    0    0 -0.00000000000E+00 -0.00000000000E+00 -0.45593999997E+02  0.45594000000E+02  0.51100000000E-03 0. -1.
    9900012    2    1    2    0    0  0.82258108605E+01  0.22144711781E+02 -0.33092495423E+02  0.50528862312E+02  0.30000007485E+02 0.  0.
        -12    1    1    2    0    0 -0.82258108605E+01 -0.22144711781E+02  0.33092495423E+02  0.40659137688E+02  0.00000000000E+00 0.  1.
         11    1    3    3    0    0 -0.54797238982E+01  0.17672488440E+01 -0.21569219923E+01  0.61484026559E+01  0.51100000000E-03 0. -1.
        -11    1    3    3    0    0  0.15276018585E+02  0.11430182181E+02 -0.29575131481E+02  0.35195087880E+02  0.51100000000E-03 0.  1.
        -12    1    3    3    0    0 -0.15704838259E+01  0.89472807558E+01 -0.13604419491E+01  0.91853717762E+01  0.00000000000E+00 0.  1.
</event>
<event>
 7    1  0.5019004E-011  0.5052887E+02  0.7816164E-02  0.1300439E+00
        -11   -1    0    0    0    0  0.00000000000E+00  0.00000000000E+00  0.45593999997E+02  0.45594000000E+02  0.51100000000E-03 0.  1.
         11   -1    0    0    0    0 -0.00000000000E+00 -0.00000000000E+00 -0.45593999997E+02  0.45594000000E+02  0.51100000000E-03 0. -1.
    9900012    2    1    2    0    0 -0.23022202508E+02  0.33499794263E+02  0.95248437544E+00  0.50528865104E+02  0.30000015970E+02 0.  0.
        -12    1    1    2    0    0  0.23022202508E+02 -0.33499794263E+02 -0.95248437544E+00  0.40659134896E+02  0.00000000000E+00 0.  1.
         11    1    3    3    0    0 -0.19736386814E+02  0.18195739696E+02 -0.57447736698E+00  0.26850324617E+02  0.51100000000E-03 0. -1.
        -11    1    3    3    0    0  0.36512721187E+01  0.12096962222E+02  0.68420413220E+01  0.14369475036E+02  0.51100000000E-03 0.  1.
        -12    1    3    3    0    0 -0.69370878127E+01  0.32070923459E+01 -0.53150795795E+01  0.93090654511E+01  0.00000000000E+00 0.  1.
</event>
<event>
 7    1  0.5019004E-011  0.5052886E+02  0.7816164E-02  0.1300439E+00
        -11   -1    0    0    0    0  0.00000000000E+00  0.00000000000E+00  0.45593999997E+02  0.45594000000E+02  0.51100000000E-03 0.  1.
         11   -1    0    0    0    0 -0.00000000000E+00 -0.00000000000E+00 -0.45593999997E+02  0.45594000000E+02  0.51100000000E-03 0. -1.
    9900012    2    1    2    0    0  0.81604901637E+01 -0.26610408057E+02 -0.29638798237E+02  0.50528858622E+02  0.29999996268E+02 0.  0.
        -12    1    1    2    0    0 -0.81604901637E+01  0.26610408057E+02  0.29638798237E+02  0.40659141378E+02  0.00000000000E+00 0.  1.
         11    1    3    3    0    0  0.11894948897E+02 -0.86998413722E+01 -0.33071966892E+01  0.15103463158E+02  0.51100000000E-03 0. -1.
        -11    1    3    3    0    0 -0.57213168940E+01 -0.28666571485E+01 -0.19187839041E+01  0.66807875389E+01  0.51100000000E-03 0.  1.
         12    1    3    3    0    0  0.19868581610E+01 -0.15043909536E+02 -0.24412817644E+02  0.28744607925E+02  0.00000000000E+00 0. -1.
</event>
<event>
 7    1  0.5019004E-011  0.5052887E+02  0.7816164E-02  0.1300439E+00
        -11   -1    0    0    0    0  0.00000000000E+00  0.00000000000E+00  0.45593999997E+02  0.45594000000E+02  0.51100000000E-03 0.  1.
         11   -1    0    0    0    0 -0.00000000000E+00 -0.00000000000E+00 -0.45593999997E+02  0.45594000000E+02  0.51100000000E-03 0. -1.
    9900012    2    1    2    0    0  0.15937700050E+02  0.57410521272E+01 -0.36962072486E+02  0.50528871076E+02  0.30000034122E+02 0.  0.
        -12    1    1    2    0    0 -0.15937700050E+02 -0.57410521272E+01  0.36962072486E+02  0.40659128924E+02  0.00000000000E+00 0.  1.
         11    1    3    3    0    0  0.71121571841E+01 -0.40509226833E+01 -0.14320404351E+02  0.16494445593E+02  0.51100000000E-03 0. -1.
        -11    1    3    3    0    0 -0.51409336815E+01  0.92104807214E+01 -0.14254195917E+02  0.17732576117E+02  0.51100000000E-03 0.  1.
        -12    1    3    3    0    0  0.13966476548E+02  0.58149408916E+00 -0.83874722183E+01  0.16301849366E+02  0.00000000000E+00 0.  1.
</event>
<event>
 7    1  0.5019004E-011  0.5052886E+02  0.7816164E-02  0.1300439E+00
        -11   -1    0    0    0    0  0.00000000000E+00  0.00000000000E+00  0.45593999997E+02  0.45594000000E+02  0.51100000000E-03 0.  1.
         11   -1    0    0    0    0 -0.00000000000E+00 -0.00000000000E+00 -0.45593999997E+02  0.45594000000E+02  0.51100000000E-03 0. -1.
    9900012    2    1    2    0    0 -0.10586782520E+02 -0.16227752757E+02 -0.35745572429E+02  0.50528857461E+02  0.29999992740E+02 0.  0.
        -12    1    1    2    0    0  0.10586782520E+02  0.16227752757E+02  0.35745572429E+02  0.40659142539E+02  0.00000000000E+00 0.  1.
         11    1    3    3    0    0 -0.15388088159E+02 -0.19099041070E+02 -0.26925870043E+02  0.36422096381E+02  0.51100000000E-03 0.  1.
        -11    1    3    3    0    0  0.61208751539E-01  0.49918496559E+01 -0.16575744012E+01  0.52602150769E+01  0.51100000000E-03 0. -1.
         12    1    3    3    0    0  0.47400968871E+01 -0.21205613426E+01 -0.71621279854E+01  0.88465460032E+01  0.00000000000E+00 0. -1.
</event>
<event>
 7    1  0.5019004E-011  0.5052886E+02  0.7816164E-02  0.1300439E+00
        -11   -1    0    0    0    0  0.00000000000E+00  0.00000000000E+00  0.45593999997E+02  0.45594000000E+02  0.51100000000E-03 0.  1.
         11   -1    0    0    0    0 -0.00000000000E+00 -0.00000000000E+00 -0.45593999997E+02  0.45594000000E+02  0.51100000000E-03 0. -1.
    9900012    2    1    2    0    0  0.13489778543E+02 -0.28507479651E+02 -0.25661543853E+02  0.50528863830E+02  0.30000012097E+02 0.  0.
        -12    1    1    2    0    0 -0.13489778543E+02  0.28507479651E+02  0.25661543853E+02  0.40659136170E+02  0.00000000000E+00 0.  1.
         11    1    3    3    0    0 -0.77120858566E+01 -0.73340665098E+01 -0.80359952232E+01  0.13335742174E+02  0.51100000000E-03 0. -1.
        -11    1    3    3    0    0  0.12511330835E+02 -0.56404810838E+01 -0.27505241609E+01  0.13996921431E+02  0.51100000000E-03 0.  1.
        -12    1    3    3    0    0  0.86905335641E+01 -0.15532932058E+02 -0.14875024469E+02  0.23196200225E+02  0.00000000000E+00 0.  1.
</event>
<event>
 7    1  0.5019004E-011  0.5052887E+02  0.7816164E-02  0.1300439E+00
        -11   -1    0    0    0    0  0.00000000000E+00  0.00000000000E+00  0.45593999997E+02  0.45594000000E+02  0.51100000000E-03 0. -1.
         11   -1    0    0    0    0 -0.00000000000E+00 -0.00000000000E+00 -0.45593999997E+02  0.45594000000E+02  0.51100000000E-03 0.  1.
    9900012    2    1    2    0    0  0.38136064579E+02  0.39011916348E+01  0.13549397808E+02  0.50528869430E+02  0.30000029119E+02 0.  0.
        -12    1    1    2    0    0 -0.38136064579E+02 -0.39011916348E+01 -0.13549397808E+02  0.40659130570E+02  0.00000000000E+00 0.  1.
         11    1    3    3    0    0  0.21244372683E+01  0.57078865050E+00  0.35280447022E-01  0.22000632631E+01  0.51100000000E-03 0.  1.
        -11    1    3    3    0    0  0.34355887990E+02  0.67936074039E+01  0.20338734075E+02  0.40498694364E+02  0.51100000000E-03 0. -1.
        -12    1    3    3    0    0  0.16557393210E+01 -0.34632044196E+01 -0.68246167142E+01  0.78301118029E+01  0.00000000000E+00 0.  1.
</event>
<event>
 7    1  0.5019004E-011  0.5052887E+02  0.7816164E-02  0.1300439E+00
        -11   -1    0    0    0    0  0.00000000000E+00  0.00000000000E+00  0.45593999997E+02  0.45594000000E+02  0.51100000000E-03 0.  1.
         11   -1    0    0    0    0 -0.00000000000E+00 -0.00000000000E+00 -0.45593999997E+02  0.45594000000E+02  0.51100000000E-03 0. -1.
    9900012    2    1    2    0    0  0.27852163921E+02  0.21418829765E+02 -0.20461082575E+02  0.50528865679E+02  0.30000017718E+02 0.  0.
        -12    1    1    2    0    0 -0.27852163921E+02 -0.21418829765E+02  0.20461082575E+02  0.40659134321E+02  0.00000000000E+00 0.  1.
         11    1    3    3    0    0  0.14011037868E+02  0.19112138219E+02 -0.15041434723E+02  0.28068269777E+02  0.51100000000E-03 0. -1.
        -11    1    3    3    0    0  0.10453257007E+02 -0.14056646542E+01  0.44009384532E+01  0.11428680357E+02  0.51100000000E-03 0.  1.
        -12    1    3    3    0    0  0.33878690464E+01  0.37123562002E+01 -0.98205863048E+01  0.11031915545E+02  0.00000000000E+00 0.  1.
</event>
<event>
 7    1  0.5019004E-011  0.5052886E+02  0.7816164E-02  0.1300439E+00
        -11   -1    0    0    0    0  0.00000000000E+00  0.00000000000E+00  0.45593999997E+02  0.45594000000E+02  0.51100000000E-03 0.  1.
         11   -1    0    0    0    0 -0.00000000000E+00 -0.00000000000E+00 -0.45593999997E+02  0.45594000000E+02  0.51100000000E-03 0. -1.
    9900012    2    1    2    0    0 -0.39215973307E+02  0.20720515096E+00 -0.10734544244E+02  0.50528856668E+02  0.29999990327E+02 0.  0.
        -12    1    1    2    0    0  0.39215973307E+02 -0.20720515096E+00  0.10734544244E+02  0.40659143332E+02  0.00000000000E+00 0.  1.
         11    1    3    3    0    0 -0.10567783779E+02  0.21826752815E+01 -0.10199530258E+02  0.14848317855E+02  0.51100000000E-03 0. -1.
        -11    1    3    3    0    0 -0.50627491871E+01  0.54604210725E+01  0.65911848309E+01  0.99444127709E+01  0.51100000000E-03 0.  1.
        -12    1    3    3    0    0 -0.23585440341E+02 -0.74358912031E+01 -0.71261988172E+01  0.25736126042E+02  0.00000000000E+00 0.  1.
</event>
<event>
 7    1  0.5019004E-011  0.5052886E+02  0.7816164E-02  0.1300439E+00
        -11   -1    0    0    0    0  0.00000000000E+00  0.00000000000E+00  0.45593999997E+02  0.45594000000E+02  0.51100000000E-03 0. -1.
         11   -1    0    0    0    0 -0.00000000000E+00 -0.00000000000E+00 -0.45593999997E+02  0.45594000000E+02  0.51100000000E-03 0.  1.
    9900012    2    1    2    0    0  0.16182302715E+02 -0.36289650642E+02 -0.86232073087E+01  0.50528863644E+02  0.30000011533E+02 0.  0.
        -12    1    1    2    0    0 -0.16182302715E+02  0.36289650642E+02  0.86232073087E+01  0.40659136356E+02  0.00000000000E+00 0.  1.
         11    1    3    3    0    0  0.91785154647E+01 -0.31847020111E+02  0.13250656940E+01  0.33169769903E+02  0.51100000000E-03 0. -1.
        -11    1    3    3    0    0  0.81288871363E+01 -0.71221610395E+00 -0.18424909189E+01  0.83654546141E+01  0.51100000000E-03 0.  1.
         12    1    3    3    0    0 -0.11250998864E+01 -0.37304144273E+01 -0.81057820837E+01  0.89936391268E+01  0.00000000000E+00 0. -1.
</event>
<event>
 7    1  0.5019004E-011  0.5052885E+02  0.7816164E-02  0.1300439E+00
        -11   -1    0    0    0    0  0.00000000000E+00  0.00000000000E+00  0.45593999997E+02  0.45594000000E+02  0.51100000000E-03 0.  1.
         11   -1    0    0    0    0 -0.00000000000E+00 -0.00000000000E+00 -0.45593999997E+02  0.45594000000E+02  0.51100000000E-03 0. -1.
    9900012    2    1    2    0    0  0.30815014144E+02 -0.26424601520E+02  0.23112592137E+01  0.50528848738E+02  0.29999966223E+02 0.  0.
        -12    1    1    2    0    0 -0.30815014144E+02  0.26424601520E+02 -0.23112592137E+01  0.40659151262E+02  0.00000000000E+00 0.  1.
         11    1    3    3    0    0  0.13458372824E+00 -0.69507603319E+01 -0.63591297887E+00  0.69810864161E+01  0.51100000000E-03 0. -1.
        -11    1    3    3    0    0  0.31953292114E+02 -0.19966232041E+02 -0.26644996488E+01  0.37772514577E+02  0.51100000000E-03 0.  1.
        -12    1    3    3    0    0 -0.12728616981E+01  0.49239085267E+00  0.56116718414E+01  0.57752477445E+01  0.00000000000E+00 0.  1.
</event>
<event>
 7    1  0.5019004E-011  0.5052886E+02  0.7816164E-02  0.1300439E+00
        -11   -1    0    0    0    0  0.00000000000E+00  0.00000000000E+00  0.45593999997E+02  0.45594000000E+02  0.51100000000E-03 0. -1.
         11   -1    0    0    0    0 -0.00000000000E+00 -0.00000000000E+00 -0.45593999997E+02  0.45594000000E+02  0.51100000000E-03 0.  1.
    9900012    2    1    2    0    0  0.31080574033E+02 -0.83684372202E+01 -0.24842160483E+02  0.50528858823E+02  0.29999996879E+02 0.  0.
        -12    1    1    2    0    0 -0.31080574033E+02  0.83684372202E+01  0.24842160483E+02  0.40659141177E+02  0.00000000000E+00 0.  1.
         11    1    3    3    0    0  0.43470017540E+00  0.49483335709E+01  0.19941558391E+01  0.53527214707E+01  0.51100000000E-03 0. -1.
        -11    1    3    3    0    0  0.21913820794E+02 -0.10730029563E+02 -0.26557793940E+02  0.36064740335E+02  0.51100000000E-03 0.  1.
         12    1    3    3    0    0  0.87320530639E+01 -0.25867412285E+01 -0.27852238228E+00  0.91113970175E+01  0.00000000000E+00 0. -1.
</event>
<event>
 7    1  0.5019004E-011  0.5052886E+02  0.7816164E-02  0.1300439E+00
        -11   -1    0    0    0    0  0.00000000000E+00  0.00000000000E+00  0.45593999997E+02  0.45594000000E+02  0.51100000000E-03 0. -1.
         11   -1    0    0    0    0 -0.00000000000E+00 -0.00000000000E+00 -0.45593999997E+02  0.45594000000E+02  0.51100000000E-03 0.  1.
    9900012    2    1    2    0    0  0.33259367024E+02  0.13585656817E+02  0.19037071086E+02  0.50528860295E+02  0.30000001354E+02 0.  0.
        -12    1    1    2    0    0 -0.33259367024E+02 -0.13585656817E+02 -0.19037071086E+02  0.40659139705E+02  0.00000000000E+00 0.  1.
         11    1    3    3    0    0  0.28341421107E+02  0.94055174864E+01  0.13625233141E+02  0.32822962815E+02  0.51100000000E-03 0. -1.
        -11    1    3    3    0    0 -0.57516014602E-01  0.95416654748E+01  0.32071937634E+01  0.10066418441E+02  0.51100000000E-03 0.  1.
         12    1    3    3    0    0  0.49754619312E+01 -0.53615261444E+01  0.22046441822E+01  0.76394790396E+01  0.00000000000E+00 0. -1.
</event>
<event>
 7    1  0.5019004E-011  0.5052885E+02  0.7816164E-02  0.1300439E+00
        -11   -1    0    0    0    0  0.00000000000E+00  0.00000000000E+00  0.45593999997E+02  0.45594000000E+02  0.51100000000E-03 0. -1.
         11   -1    0    0    0    0 -0.00000000000E+00 -0.00000000000E+00 -0.45593999997E+02  0.45594000000E+02  0.51100000000E-03 0.  1.
    9900012    2    1    2    0    0 -0.16321024158E+02 -0.14456526321E+02  0.34319077801E+02  0.50528854855E+02  0.29999984817E+02 0.  0.
        -12    1    1    2    0    0  0.16321024158E+02  0.14456526321E+02 -0.34319077801E+02  0.40659145145E+02  0.00000000000E+00 0.  1.
         11    1    3    3    0    0 -0.15601863709E+02 -0.12007031687E+02  0.36757341204E+02  0.41697590983E+02  0.51100000000E-03 0. -1.
        -11    1    3    3    0    0  0.27391025889E+01 -0.32760626103E+01  0.38983402787E+00  0.42880345206E+01  0.51100000000E-03 0.  1.
         12    1    3    3    0    0 -0.34582630381E+01  0.82656797697E+00 -0.28280974311E+01  0.45432293516E+01  0.00000000000E+00 0. -1.
</event>
<event>
 7    1  0.5019004E-011  0.5052887E+02  0.7816164E-02  0.1300439E+00
        -11   -1    0    0    0    0  0.00000000000E+00  0.00000000000E+00  0.45593999997E+02  0.45594000000E+02  0.51100000000E-03 0.  1.
         11   -1    0    0    0    0 -0.00000000000E+00 -0.00000000000E+00 -0.45593999997E+02  0.45594000000E+02  0.51100000000E-03 0. -1.
    9900012    2    1    2    0    0  0.67893771456E+01 -0.21339441666E+02 -0.33936671486E+02  0.50528867149E+02  0.30000022187E+02 0.  0.
        -12    1    1    2    0    0 -0.67893771456E+01  0.21339441666E+02  0.33936671486E+02  0.40659132851E+02  0.00000000000E+00 0.  1.
         11    1    3    3    0    0  0.90645733301E+01 -0.11010991116E+00 -0.33605742527E+01  0.96680956459E+01  0.51100000000E-03 0. -1.
        -11    1    3    3    0    0  0.12878655051E+01 -0.18006537872E+02 -0.12008652748E+02  0.21681829830E+02  0.51100000000E-03 0.  1.
         12    1    3    3    0    0 -0.35630616897E+01 -0.32227938828E+01 -0.18567444485E+02  0.19178941673E+02  0.00000000000E+00 0. -1.
</event>
<event>
 7    1  0.5019004E-011  0.5052887E+02  0.7816164E-02  0.1300439E+00
        -11   -1    0    0    0    0  0.00000000000E+00  0.00000000000E+00  0.45593999997E+02  0.45594000000E+02  0.51100000000E-03 0.  1.
         11   -1    0    0    0    0 -0.00000000000E+00 -0.00000000000E+00 -0.45593999997E+02  0.45594000000E+02  0.51100000000E-03 0. -1.
    9900012    2    1    2    0    0  0.39563394930E+02  0.84327763739E+01 -0.40976238997E+01  0.50528874857E+02  0.30000045616E+02 0.  0.
        -12    1    1    2    0    0 -0.39563394930E+02 -0.84327763739E+01  0.40976238997E+01  0.40659125143E+02  0.00000000000E+00 0.  1.
         11    1    3    3    0    0  0.17928977695E+02  0.89464663478E+01 -0.22977470294E+01  0.20168469029E+02  0.51100000000E-03 0. -1.
        -11    1    3    3    0    0  0.20768820723E+02 -0.83535581800E+01 -0.70189313331E+00  0.22396841356E+02  0.51100000000E-03 0.  1.
        -12    1    3    3    0    0  0.86559651129E+00  0.78398682061E+01 -0.10979837370E+01  0.79635644718E+01  0.00000000000E+00 0.  1.
</event>
<event>
 7    1  0.5019004E-011  0.5052887E+02  0.7816164E-02  0.1300439E+00
        -11   -1    0    0    0    0  0.00000000000E+00  0.00000000000E+00  0.45593999997E+02  0.45594000000E+02  0.51100000000E-03 0.  1.
         11   -1    0    0    0    0 -0.00000000000E+00 -0.00000000000E+00 -0.45593999997E+02  0.45594000000E+02  0.51100000000E-03 0. -1.
    9900012    2    1    2    0    0  0.38717586416E+02  0.10430992129E+02 -0.67311261626E+01  0.50528866290E+02  0.30000019575E+02 0.  0.
        -12    1    1    2    0    0 -0.38717586416E+02 -0.10430992129E+02  0.67311261626E+01  0.40659133710E+02  0.00000000000E+00 0.  1.
         11    1    3    3    0    0  0.38503345858E+02  0.72307059432E+01 -0.32770943458E+01  0.39313230576E+02  0.51100000000E-03 0. -1.
        -11    1    3    3    0    0  0.16687041522E+00  0.32709473422E+01  0.31894549846E+01  0.45716042710E+01  0.51100000000E-03 0.  1.
         12    1    3    3    0    0  0.47370141901E-01 -0.70661156477E-01 -0.66434868014E+01  0.66440314426E+01  0.00000000000E+00 0. -1.
</event>
<event>
 7    1  0.5019004E-011  0.5052886E+02  0.7816164E-02  0.1300439E+00
        -11   -1    0    0    0    0  0.00000000000E+00  0.00000000000E+00  0.45593999997E+02  0.45594000000E+02  0.51100000000E-03 0.  1.
         11   -1    0    0    0    0 -0.00000000000E+00 -0.00000000000E+00 -0.45593999997E+02  0.45594000000E+02  0.51100000000E-03 0. -1.
    9900012    2    1    2    0    0 -0.76398406245E+01  0.14876598351E+01 -0.39907209743E+02  0.50528859749E+02  0.29999999692E+02 0.  0.
        -12    1    1    2    0    0  0.76398406245E+01 -0.14876598351E+01  0.39907209743E+02  0.40659140251E+02  0.00000000000E+00 0.  1.
         11    1    3    3    0    0 -0.13031682283E+02  0.95275249197E+01 -0.20612685219E+02  0.26181697164E+02  0.51100000000E-03 0.  1.
        -11    1    3    3    0    0  0.77691567339E+01 -0.57914723241E+01 -0.18642687199E+02  0.21010729028E+02  0.51100000000E-03 0. -1.
        -12    1    3    3    0    0 -0.23773150758E+01 -0.22483927605E+01 -0.65183732464E+00  0.33364335559E+01  0.00000000000E+00 0.  1.
</event>
<event>
 7    1  0.5019004E-011  0.5052887E+02  0.7816164E-02  0.1300439E+00
        -11   -1    0    0    0    0  0.00000000000E+00  0.00000000000E+00  0.45593999997E+02  0.45594000000E+02  0.51100000000E-03 0.  1.
         11   -1    0    0    0    0 -0.00000000000E+00 -0.00000000000E+00 -0.45593999997E+02  0.45594000000E+02  0.51100000000E-03 0. -1.
    9900012    2    1    2    0    0 -0.34373318619E+02 -0.21351405809E+02  0.39695798087E+01  0.50528866625E+02  0.30000020594E+02 0.  0.
        -12    1    1    2    0    0  0.34373318619E+02  0.21351405809E+02 -0.39695798087E+01  0.40659133375E+02  0.00000000000E+00 0.  1.
         11    1    3    3    0    0 -0.34590442656E+02 -0.18384655121E+02  0.46121538052E+01  0.39443202583E+02  0.51100000000E-03 0. -1.
        -11    1    3    3    0    0 -0.65839610008E+00 -0.44904624749E+01 -0.47794703674E+01  0.65909844422E+01  0.51100000000E-03 0.  1.
         12    1    3    3    0    0  0.87552013671E+00  0.15237117871E+01  0.41368963709E+01  0.44946795997E+01  0.00000000000E+00 0. -1.
</event>
<event>
 7    1  0.5019004E-011  0.5052886E+02  0.7816164E-02  0.1300439E+00
        -11   -1    0    0    0    0  0.00000000000E+00  0.00000000000E+00  0.45593999997E+02  0.45594000000E+02  0.51100000000E-03 0. -1.
         11   -1    0    0    0    0 -0.00000000000E+00 -0.00000000000E+00 -0.45593999997E+02  0.45594000000E+02  0.51100000000E-03 0.  1.
    9900012    2    1    2    0    0  0.19464454427E+02 -0.34665665072E+02 -0.85200930829E+01  0.50528864408E+02  0.30000013853E+02 0.  0.
        -12    1    1    2    0    0 -0.19464454427E+02  0.34665665072E+02  0.85200930829E+01  0.40659135592E+02  0.00000000000E+00 0.  1.
         11    1    3    3    0    0  0.17040455327E+02 -0.37744229406E+02 -0.90223475003E+01  0.42384038575E+02  0.51100000000E-03 0. -1.
        -11    1    3    3    0    0 -0.23528760881E+01  0.94610816787E+00 -0.96234659498E+00  0.27124265485E+01  0.51100000000E-03 0.  1.
         12    1    3    3    0    0  0.47768751873E+01  0.21324561667E+01  0.14646010123E+01  0.54323992843E+01  0.00000000000E+00 0. -1.
</event>
<event>
 7    1  0.5019004E-011  0.5052886E+02  0.7816164E-02  0.1300439E+00
        -11   -1    0    0    0    0  0.00000000000E+00  0.00000000000E+00  0.45593999997E+02  0.45594000000E+02  0.51100000000E-03 0. -1.
         11   -1    0    0    0    0 -0.00000000000E+00 -0.00000000000E+00 -0.45593999997E+02  0.45594000000E+02  0.51100000000E-03 0.  1.
    9900012    2    1    2    0    0  0.31255243620E+02 -0.23621618601E+02  0.10876340875E+02  0.50528856995E+02  0.29999991321E+02 0.  0.
        -12    1    1    2    0    0 -0.31255243620E+02  0.23621618601E+02 -0.10876340875E+02  0.40659143005E+02  0.00000000000E+00 0.  1.
         11    1    3    3    0    0  0.29335945750E+02 -0.21318074349E+02  0.13953596965E+02  0.38855641489E+02  0.51100000000E-03 0. -1.
        -11    1    3    3    0    0 -0.42336079782E+01 -0.20300550252E+01  0.19444263204E+00  0.46991880273E+01  0.51100000000E-03 0.  1.
         12    1    3    3    0    0  0.61529058487E+01 -0.27348922665E+00 -0.32716987223E+01  0.69740274784E+01  0.00000000000E+00 0. -1.
</event>
<event>
 7    1  0.5019004E-011  0.5052886E+02  0.7816164E-02  0.1300439E+00
        -11   -1    0    0    0    0  0.00000000000E+00  0.00000000000E+00  0.45593999997E+02  0.45594000000E+02  0.51100000000E-03 0. -1.
         11   -1    0    0    0    0 -0.00000000000E+00 -0.00000000000E+00 -0.45593999997E+02  0.45594000000E+02  0.51100000000E-03 0.  1.
    9900012    2    1    2    0    0  0.12601285734E+02  0.10214721228E+02  0.37283141091E+02  0.50528861525E+02  0.30000005092E+02 0.  0.
        -12    1    1    2    0    0 -0.12601285734E+02 -0.10214721228E+02 -0.37283141091E+02  0.40659138475E+02  0.00000000000E+00 0.  1.
         11    1    3    3    0    0  0.18532732996E+01 -0.27530644646E+01  0.15963830477E+02  0.16305148562E+02  0.51100000000E-03 0. -1.
        -11    1    3    3    0    0  0.42956145542E+01  0.17915446751E+02  0.12712621180E+02  0.22383616201E+02  0.51100000000E-03 0.  1.
        -12    1    3    3    0    0  0.64523978803E+01 -0.49476610579E+01  0.86066894333E+01  0.11840096763E+02  0.00000000000E+00 0.  1.
</event>
<event>
 7    1  0.5019004E-011  0.5052885E+02  0.7816164E-02  0.1300439E+00
        -11   -1    0    0    0    0  0.00000000000E+00  0.00000000000E+00  0.45593999997E+02  0.45594000000E+02  0.51100000000E-03 0. -1.
         11   -1    0    0    0    0 -0.00000000000E+00 -0.00000000000E+00 -0.45593999997E+02  0.45594000000E+02  0.51100000000E-03 0.  1.
    9900012    2    1    2    0    0 -0.45904906032E+01 -0.23448205436E+02  0.32897953240E+02  0.50528852573E+02  0.29999977879E+02 0.  0.
        -12    1    1    2    0    0  0.45904906032E+01  0.23448205436E+02 -0.32897953240E+02  0.40659147427E+02  0.00000000000E+00 0.  1.
         11    1    3    3    0    0 -0.14525691953E+02 -0.21573967382E+02  0.17084840932E+02  0.31117898150E+02  0.51100000000E-03 0. -1.
        -11    1    3    3    0    0  0.81685429224E+01  0.69462764061E-01  0.92439707396E+01  0.12336162849E+02  0.51100000000E-03 0.  1.
         12    1    3    3    0    0  0.17666584272E+01 -0.19437008184E+01  0.65691415679E+01  0.70747915735E+01  0.00000000000E+00 0. -1.
</event>
<event>
 7    1  0.5019004E-011  0.5052885E+02  0.7816164E-02  0.1300439E+00
        -11   -1    0    0    0    0  0.00000000000E+00  0.00000000000E+00  0.45593999997E+02  0.45594000000E+02  0.51100000000E-03 0. -1.
         11   -1    0    0    0    0 -0.00000000000E+00 -0.00000000000E+00 -0.45593999997E+02  0.45594000000E+02  0.51100000000E-03 0.  1.
    9900012    2    1    2    0    0  0.19662224213E+02 -0.31740245026E+02  0.16097223101E+02  0.50528845964E+02  0.29999957793E+02 0.  0.
        -12    1    1    2    0    0 -0.19662224213E+02  0.31740245026E+02 -0.16097223101E+02  0.40659154036E+02  0.00000000000E+00 0.  1.
         11    1    3    3    0    0  0.16523316428E+02 -0.24771532635E+02  0.34039380527E+01  0.29970579064E+02  0.51100000000E-03 0. -1.
        -11    1    3    3    0    0  0.56421148414E+01 -0.10753654462E+01  0.12932779853E+02  0.14150853886E+02  0.51100000000E-03 0.  1.
         12    1    3    3    0    0 -0.25032070566E+01 -0.58933469448E+01 -0.23949480432E+00  0.64074130148E+01  0.00000000000E+00 0. -1.
</event>
<event>
 7    1  0.5019004E-011  0.5052886E+02  0.7816164E-02  0.1300439E+00
        -11   -1    0    0    0    0  0.00000000000E+00  0.00000000000E+00  0.45593999997E+02  0.45594000000E+02  0.51100000000E-03 0.  1.
         11   -1    0    0    0    0 -0.00000000000E+00 -0.00000000000E+00 -0.45593999997E+02  0.45594000000E+02  0.51100000000E-03 0. -1.
    9900012    2    1    2    0    0  0.14428344854E+02  0.36583375702E+01 -0.37836556005E+02  0.50528861552E+02  0.30000005175E+02 0.  0.
        -12    1    1    2    0    0 -0.14428344854E+02 -0.36583375702E+01  0.37836556005E+02  0.40659138448E+02  0.00000000000E+00 0.  1.
         11    1    3    3    0    0  0.18990303734E+01 -0.17194507057E+01 -0.14826367197E+02  0.15046062329E+02  0.51100000000E-03 0. -1.
        -11    1    3    3    0    0  0.10866457065E+02  0.10821741438E+02 -0.43021103156E+01  0.15927904141E+02  0.51100000000E-03 0.  1.
        -12    1    3    3    0    0  0.16628574162E+01 -0.54439531623E+01 -0.18708078492E+02  0.19554895082E+02  0.00000000000E+00 0.  1.
</event>
<event>
 7    1  0.5019004E-011  0.5052885E+02  0.7816164E-02  0.1300439E+00
        -11   -1    0    0    0    0  0.00000000000E+00  0.00000000000E+00  0.45593999997E+02  0.45594000000E+02  0.51100000000E-03 0.  1.
         11   -1    0    0    0    0 -0.00000000000E+00 -0.00000000000E+00 -0.45593999997E+02  0.45594000000E+02  0.51100000000E-03 0. -1.
    9900012    2    1    2    0    0  0.45236272300E+01  0.35542034560E+02 -0.19221526417E+02  0.50528849716E+02  0.29999969198E+02 0.  0.
        -12    1    1    2    0    0 -0.45236272300E+01 -0.35542034560E+02  0.19221526417E+02  0.40659150284E+02  0.00000000000E+00 0.  1.
         11    1    3    3    0    0 -0.58030709451E+01  0.16096910718E+02 -0.10141836913E+01  0.17141024936E+02  0.51100000000E-03 0. -1.
        -11    1    3    3    0    0  0.67085983919E+01  0.14419506305E+02 -0.21206359149E+02  0.26507303203E+02  0.51100000000E-03 0.  1.
        -12    1    3    3    0    0  0.36180997831E+01  0.50256175370E+01  0.29990164229E+01  0.68805215772E+01  0.00000000000E+00 0.  1.
</event>
<event>
 7    1  0.5019004E-011  0.5052883E+02  0.7816164E-02  0.1300439E+00
        -11   -1    0    0    0    0  0.00000000000E+00  0.00000000000E+00  0.45593999997E+02  0.45594000000E+02  0.51100000000E-03 0.  1.
         11   -1    0    0    0    0 -0.00000000000E+00 -0.00000000000E+00 -0.45593999997E+02  0.45594000000E+02  0.51100000000E-03 0. -1.
    9900012    2    1    2    0    0 -0.32401530161E+02 -0.42374905082E+01 -0.24194058905E+02  0.50528831675E+02  0.29999914359E+02 0.  0.
        -12    1    1    2    0    0  0.32401530161E+02  0.42374905082E+01  0.24194058905E+02  0.40659168325E+02  0.00000000000E+00 0.  1.
         11    1    3    3    0    0  0.35207794053E+01 -0.30787569874E+01  0.19034183254E+01  0.50495181741E+01  0.51100000000E-03 0. -1.
        -11    1    3    3    0    0 -0.79655382700E+01 -0.20660501012E+01 -0.17893828392E+01  0.84214163986E+01  0.51100000000E-03 0.  1.
         12    1    3    3    0    0 -0.27956771297E+02  0.90731658034E+00 -0.24308094391E+02  0.37057897102E+02  0.00000000000E+00 0. -1.
</event>
<event>
 7    1  0.6695226E-011  0.5052886E+02  0.7816164E-02  0.1300439E+00
        -11   -1    0    0    0    0  0.00000000000E+00  0.00000000000E+00  0.45593999997E+02  0.45594000000E+02  0.51100000000E-03 0. -1.
         11   -1    0    0    0    0 -0.00000000000E+00 -0.00000000000E+00 -0.45593999997E+02  0.45594000000E+02  0.51100000000E-03 0.  1.
    9900012    2    1    2    0    0 -0.10051737434E+02  0.21779324653E+02  0.32829705421E+02  0.50528856307E+02  0.29999989230E+02 0.  0.
        -12    1    1    2    0    0  0.10051737434E+02 -0.21779324653E+02 -0.32829705421E+02  0.40659143693E+02  0.00000000000E+00 0.  1.
         11    1    3    3    0    0  0.39751749341E+01  0.14187792719E+02  0.22453145625E+02  0.26855897429E+02  0.51100000000E-03 0.  1.
        -11    1    3    3    0    0 -0.33294189869E+01 -0.12344318677E+01 -0.28160000229E+01  0.45319652709E+01  0.51100000000E-03 0. -1.
         12    1    3    3    0    0 -0.10697493381E+02  0.88259638018E+01  0.13192559819E+02  0.19140993607E+02  0.00000000000E+00 0. -1.
</event>
<event>
 7    1  0.5019004E-011  0.5052886E+02  0.7816164E-02  0.1300439E+00
        -11   -1    0    0    0    0  0.00000000000E+00  0.00000000000E+00  0.45593999997E+02  0.45594000000E+02  0.51100000000E-03 0.  1.
         11   -1    0    0    0    0 -0.00000000000E+00 -0.00000000000E+00 -0.45593999997E+02  0.45594000000E+02  0.51100000000E-03 0. -1.
    9900012    2    1    2    0    0 -0.33475302641E+02 -0.22029742404E+02  0.68746111973E+01  0.50528859375E+02  0.29999998555E+02 0.  0.
        -12    1    1    2    0    0  0.33475302641E+02  0.22029742404E+02 -0.68746111973E+01  0.40659140625E+02  0.00000000000E+00 0.  1.
         11    1    3    3    0    0 -0.45327712466E+01 -0.56297288826E+01 -0.27776600506E+00  0.72330503026E+01  0.51100000000E-03 0. -1.
        -11    1    3    3    0    0 -0.32794701043E+02 -0.85601596937E+01  0.46620299490E+01  0.34212618637E+02  0.51100000000E-03 0.  1.
        -12    1    3    3    0    0  0.38521696488E+01 -0.78398538275E+01  0.24903472534E+01  0.90831904353E+01  0.00000000000E+00 0.  1.
</event>
<event>
 7    1  0.5019004E-011  0.5052887E+02  0.7816164E-02  0.1300439E+00
        -11   -1    0    0    0    0  0.00000000000E+00  0.00000000000E+00  0.45593999997E+02  0.45594000000E+02  0.51100000000E-03 0.  1.
         11   -1    0    0    0    0 -0.00000000000E+00 -0.00000000000E+00 -0.45593999997E+02  0.45594000000E+02  0.51100000000E-03 0. -1.
    9900012    2    1    2    0    0 -0.19740257852E+02  0.31792377246E+02 -0.15897550968E+02  0.50528866244E+02  0.30000019434E+02 0.  0.
        -12    1    1    2    0    0  0.19740257852E+02 -0.31792377246E+02  0.15897550968E+02  0.40659133756E+02  0.00000000000E+00 0.  1.
         11    1    3    3    0    0 -0.47791293442E+01 -0.25979596145E+01  0.43838847662E+01  0.69862663384E+01  0.51100000000E-03 0.  1.
        -11    1    3    3    0    0 -0.11120295356E+02  0.31984799694E+02 -0.19018243503E+02  0.38837893435E+02  0.51100000000E-03 0. -1.
        -12    1    3    3    0    0 -0.38408331518E+01  0.24055371668E+01 -0.12631922315E+01  0.47047064706E+01  0.00000000000E+00 0.  1.
</event>
<event>
 7    1  0.5019004E-011  0.5052883E+02  0.7816164E-02  0.1300439E+00
        -11   -1    0    0    0    0  0.00000000000E+00  0.00000000000E+00  0.45593999997E+02  0.45594000000E+02  0.51100000000E-03 0.  1.
         11   -1    0    0    0    0 -0.00000000000E+00 -0.00000000000E+00 -0.45593999997E+02  0.45594000000E+02  0.51100000000E-03 0. -1.
    9900012    2    1    2    0    0  0.16931997065E+02  0.35515602442E+02 -0.10252672487E+02  0.50528833327E+02  0.29999919380E+02 0.  0.
        -12    1    1    2    0    0 -0.16931997065E+02 -0.35515602442E+02  0.10252672487E+02  0.40659166673E+02  0.00000000000E+00 0.  1.
         11    1    3    3    0    0  0.42758902878E+01  0.15728124884E+01 -0.11738521631E+02  0.12591658637E+02  0.51100000000E-03 0. -1.
        -11    1    3    3    0    0  0.19170115245E+01  0.20674534409E+02  0.20032341109E+01  0.20859632148E+02  0.51100000000E-03 0.  1.
         12    1    3    3    0    0  0.10739095253E+02  0.13268255545E+02 -0.51738496682E+00  0.17077542542E+02  0.00000000000E+00 0. -1.
</event>
<event>
 7    1  0.5019004E-011  0.5052885E+02  0.7816164E-02  0.1300439E+00
        -11   -1    0    0    0    0  0.00000000000E+00  0.00000000000E+00  0.45593999997E+02  0.45594000000E+02  0.51100000000E-03 0.  1.
         11   -1    0    0    0    0 -0.00000000000E+00 -0.00000000000E+00 -0.45593999997E+02  0.45594000000E+02  0.51100000000E-03 0. -1.
    9900012    2    1    2    0    0 -0.24797759540E+02  0.11733165557E+02 -0.30009501595E+02  0.50528852958E+02  0.29999979052E+02 0.  0.
        -12    1    1    2    0    0  0.24797759540E+02 -0.11733165557E+02  0.30009501595E+02  0.40659147042E+02  0.00000000000E+00 0.  1.
         11    1    3    3    0    0 -0.59354851327E+01  0.14091941691E+02 -0.99922644336E+01  0.18266311974E+02  0.51100000000E-03 0. -1.
        -11    1    3    3    0    0 -0.72531197712E+01 -0.90502363616E+01 -0.68169266969E+01  0.13453067103E+02  0.51100000000E-03 0.  1.
        -12    1    3    3    0    0 -0.11609154636E+02  0.66914602277E+01 -0.13200310464E+02  0.18809473881E+02  0.00000000000E+00 0.  1.
</event>
<event>
 7    1  0.5019004E-011  0.5052887E+02  0.7816164E-02  0.1300439E+00
        -11   -1    0    0    0    0  0.00000000000E+00  0.00000000000E+00  0.45593999997E+02  0.45594000000E+02  0.51100000000E-03 0.  1.
         11   -1    0    0    0    0 -0.00000000000E+00 -0.00000000000E+00 -0.45593999997E+02  0.45594000000E+02  0.51100000000E-03 0. -1.
    9900012    2    1    2    0    0 -0.37544075061E+02  0.83277440143E+01 -0.13200615709E+02  0.50528866369E+02  0.30000019815E+02 0.  0.
        -12    1    1    2    0    0  0.37544075061E+02 -0.83277440143E+01  0.13200615709E+02  0.40659133631E+02  0.00000000000E+00 0.  1.
         11    1    3    3    0    0 -0.49402273929E+01 -0.12958882332E+00 -0.11564998511E+02  0.12576638294E+02  0.51100000000E-03 0. -1.
        -11    1    3    3    0    0 -0.31343042767E+02  0.10700186708E+02  0.23563814348E+01  0.33202904379E+02  0.51100000000E-03 0.  1.
        -12    1    3    3    0    0 -0.12608049010E+01 -0.22428538705E+01 -0.39919986328E+01  0.47493236958E+01  0.00000000000E+00 0.  1.
</event>
<event>
 7    1  0.5019004E-011  0.5052887E+02  0.7816164E-02  0.1300439E+00
        -11   -1    0    0    0    0  0.00000000000E+00  0.00000000000E+00  0.45593999997E+02  0.45594000000E+02  0.51100000000E-03 0.  1.
         11   -1    0    0    0    0 -0.00000000000E+00 -0.00000000000E+00 -0.45593999997E+02  0.45594000000E+02  0.51100000000E-03 0. -1.
    9900012    2    1    2    0    0 -0.25299476507E+02 -0.10755694120E+02 -0.29956904755E+02  0.50528872980E+02  0.30000039910E+02 0.  0.
        -12    1    1    2    0    0  0.25299476507E+02  0.10755694120E+02  0.29956904755E+02  0.40659127020E+02  0.00000000000E+00 0.  1.
         11    1    3    3    0    0 -0.19064104535E+02 -0.16517454877E+02 -0.26861553843E+02  0.36848466351E+02  0.51100000000E-03 0. -1.
        -11    1    3    3    0    0  0.17266011087E+01  0.18072041832E+01  0.22026413830E+01  0.33314813029E+01  0.51100000000E-03 0.  1.
        -12    1    3    3    0    0 -0.79619730806E+01  0.39545565742E+01 -0.52979922956E+01  0.10348925326E+02  0.00000000000E+00 0.  1.
</event>
<event>
 7    1  0.5019004E-011  0.5052884E+02  0.7816164E-02  0.1300439E+00
        -11   -1    0    0    0    0  0.00000000000E+00  0.00000000000E+00  0.45593999997E+02  0.45594000000E+02  0.51100000000E-03 0. -1.
         11   -1    0    0    0    0 -0.00000000000E+00 -0.00000000000E+00 -0.45593999997E+02  0.45594000000E+02  0.51100000000E-03 0.  1.
    9900012    2    1    2    0    0 -0.32600328811E+02  0.73296325914E+01  0.23165977927E+02  0.50528837615E+02  0.29999932416E+02 0.  0.
        -12    1    1    2    0    0  0.32600328811E+02 -0.73296325914E+01 -0.23165977927E+02  0.40659162385E+02  0.00000000000E+00 0.  1.
         11    1    3    3    0    0 -0.16319282944E+01 -0.92291035491E+00 -0.52984868481E+01  0.56204018203E+01  0.51100000000E-03 0. -1.
        -11    1    3    3    0    0 -0.11372254115E+02 -0.26070897015E+01  0.57616010694E+01  0.13012345196E+02  0.51100000000E-03 0.  1.
         12    1    3    3    0    0 -0.19596146402E+02  0.10859632648E+02  0.22702863706E+02  0.31896090599E+02  0.00000000000E+00 0. -1.
</event>
<event>
 7    1  0.5019004E-011  0.5052885E+02  0.7816164E-02  0.1300439E+00
        -11   -1    0    0    0    0  0.00000000000E+00  0.00000000000E+00  0.45593999997E+02  0.45594000000E+02  0.51100000000E-03 0.  1.
         11   -1    0    0    0    0 -0.00000000000E+00 -0.00000000000E+00 -0.45593999997E+02  0.45594000000E+02  0.51100000000E-03 0. -1.
    9900012    2    1    2    0    0 -0.25231704623E+02  0.64313252979E+01 -0.31227637893E+02  0.50528853038E+02  0.29999979295E+02 0.  0.
        -12    1    1    2    0    0  0.25231704623E+02 -0.64313252979E+01  0.31227637893E+02  0.40659146962E+02  0.00000000000E+00 0.  1.
         11    1    3    3    0    0 -0.41102717731E+00  0.97314176443E+00 -0.92757509550E+01  0.93357112356E+01  0.51100000000E-03 0. -1.
        -11    1    3    3    0    0 -0.13990205026E+02 -0.10802121957E+01  0.19333136690E+01  0.14164405990E+02  0.51100000000E-03 0.  1.
        -12    1    3    3    0    0 -0.10830472419E+02  0.65383957291E+01 -0.23885200607E+02  0.27028735812E+02  0.00000000000E+00 0.  1.
</event>
<event>
 7    1  0.5019004E-011  0.5052886E+02  0.7816164E-02  0.1300439E+00
        -11   -1    0    0    0    0  0.00000000000E+00  0.00000000000E+00  0.45593999997E+02  0.45594000000E+02  0.51100000000E-03 0.  1.
         11   -1    0    0    0    0 -0.00000000000E+00 -0.00000000000E+00 -0.45593999997E+02  0.45594000000E+02  0.51100000000E-03 0. -1.
    9900012    2    1    2    0    0  0.96377433832E+01 -0.20868580870E+02 -0.33537763422E+02  0.50528863998E+02  0.30000012609E+02 0.  0.
        -12    1    1    2    0    0 -0.96377433832E+01  0.20868580870E+02  0.33537763422E+02  0.40659136002E+02  0.00000000000E+00 0.  1.
         11    1    3    3    0    0 -0.17528026943E+01 -0.14022932165E+00 -0.18354761798E+02  0.18438797750E+02  0.51100000000E-03 0. -1.
        -11    1    3    3    0    0  0.56551152023E+00 -0.15295269759E+02 -0.45359481995E+01  0.15963705917E+02  0.51100000000E-03 0.  1.
         12    1    3    3    0    0  0.10825034557E+02 -0.54330817897E+01 -0.10647053425E+02  0.16126360331E+02  0.00000000000E+00 0. -1.
</event>
<event>
 7    1  0.5019004E-011  0.5052885E+02  0.7816164E-02  0.1300439E+00
        -11   -1    0    0    0    0  0.00000000000E+00  0.00000000000E+00  0.45593999997E+02  0.45594000000E+02  0.51100000000E-03 0.  1.
         11   -1    0    0    0    0 -0.00000000000E+00 -0.00000000000E+00 -0.45593999997E+02  0.45594000000E+02  0.51100000000E-03 0. -1.
    9900012    2    1    2    0    0  0.13154368172E+02  0.18154104895E+02 -0.33919863796E+02  0.50528854823E+02  0.29999984721E+02 0.  0.
        -12    1    1    2    0    0 -0.13154368172E+02 -0.18154104895E+02  0.33919863796E+02  0.40659145177E+02  0.00000000000E+00 0.  1.
         11    1    3    3    0    0  0.16828811585E+02  0.12021413105E+02 -0.19712656989E+02  0.28571176353E+02  0.51100000000E-03 0. -1.
        -11    1    3    3    0    0  0.96310977774E+00  0.44610289806E+01  0.20253901595E+01  0.49930517290E+01  0.51100000000E-03 0.  1.
         12    1    3    3    0    0 -0.46375531913E+01  0.16716628101E+01 -0.16232596967E+02  0.16964626741E+02  0.00000000000E+00 0. -1.
</event>
<event>
 7    1  0.5019004E-011  0.5052886E+02  0.7816164E-02  0.1300439E+00
        -11   -1    0    0    0    0  0.00000000000E+00  0.00000000000E+00  0.45593999997E+02  0.45594000000E+02  0.51100000000E-03 0.  1.
         11   -1    0    0    0    0 -0.00000000000E+00 -0.00000000000E+00 -0.45593999997E+02  0.45594000000E+02  0.51100000000E-03 0. -1.
    9900012    2    1    2    0    0 -0.22320315372E+01 -0.40365997039E+02  0.43323979219E+01  0.50528863837E+02  0.30000012120E+02 0.  0.
        -12    1    1    2    0    0  0.22320315372E+01  0.40365997039E+02 -0.43323979219E+01  0.40659136163E+02  0.00000000000E+00 0.  1.
         11    1    3    3    0    0  0.14429760804E+01 -0.14270882307E+02 -0.11074813065E+02  0.18121582340E+02  0.51100000000E-03 0. -1.
        -11    1    3    3    0    0 -0.40991162546E+01 -0.33001556559E+01  0.52986438633E+01  0.74678918359E+01  0.51100000000E-03 0.  1.
         12    1    3    3    0    0  0.42410863698E+00 -0.22794959076E+02  0.10108567124E+02  0.24939389662E+02  0.00000000000E+00 0. -1.
</event>
<event>
 7    1  0.5019004E-011  0.5052871E+02  0.7816164E-02  0.1300439E+00
        -11   -1    0    0    0    0  0.00000000000E+00  0.00000000000E+00  0.45593999997E+02  0.45594000000E+02  0.51100000000E-03 0. -1.
         11   -1    0    0    0    0 -0.00000000000E+00 -0.00000000000E+00 -0.45593999997E+02  0.45594000000E+02  0.51100000000E-03 0.  1.
    9900012    2    1    2    0    0  0.29882050961E+02 -0.26851903444E+02 -0.62622636458E+01  0.50528712817E+02  0.29999553076E+02 0.  0.
        -12    1    1    2    0    0 -0.29882050961E+02  0.26851903444E+02  0.62622636458E+01  0.40659287183E+02  0.00000000000E+00 0.  1.
         11    1    3    3    0    0  0.45918918929E+01  0.27868598692E+01  0.36400724473E+01  0.64886197893E+01  0.51100000000E-03 0. -1.
        -11    1    3    3    0    0  0.26775340643E+02 -0.23070546514E+02 -0.49664290918E+01  0.35690816762E+02  0.51100000000E-03 0.  1.
        -12    1    3    3    0    0 -0.14851815743E+01 -0.65682167994E+01 -0.49359070013E+01  0.83492762656E+01  0.00000000000E+00 0.  1.
</event>
<event>
 7    1  0.5019004E-011  0.5052879E+02  0.7816164E-02  0.1300439E+00
        -11   -1    0    0    0    0  0.00000000000E+00  0.00000000000E+00  0.45593999997E+02  0.45594000000E+02  0.51100000000E-03 0. -1.
         11   -1    0    0    0    0 -0.00000000000E+00 -0.00000000000E+00 -0.45593999997E+02  0.45594000000E+02  0.51100000000E-03 0.  1.
    9900012    2    1    2    0    0  0.80122829301E+01  0.39852786467E+02 -0.85451534866E+00  0.50528788702E+02  0.29999783737E+02 0.  0.
        -12    1    1    2    0    0 -0.80122829301E+01 -0.39852786467E+02  0.85451534866E+00  0.40659211298E+02  0.00000000000E+00 0.  1.
         11    1    3    3    0    0  0.71975998888E+01  0.36965950819E+02 -0.96060183068E+01  0.38865956210E+02  0.51100000000E-03 0. -1.
        -11    1    3    3    0    0  0.10617624582E+01  0.48034626489E+01  0.83464762572E+01  0.96883568839E+01  0.51100000000E-03 0.  1.
         12    1    3    3    0    0 -0.24707941699E+00 -0.19166270010E+01  0.40502670100E+00  0.19744756083E+01  0.00000000000E+00 0. -1.
</event>
<event>
 7    1  0.5019004E-011  0.5052889E+02  0.7816164E-02  0.1300439E+00
        -11   -1    0    0    0    0  0.00000000000E+00  0.00000000000E+00  0.45593999997E+02  0.45594000000E+02  0.51100000000E-03 0.  1.
         11   -1    0    0    0    0 -0.00000000000E+00 -0.00000000000E+00 -0.45593999997E+02  0.45594000000E+02  0.51100000000E-03 0. -1.
    9900012    2    1    2    0    0  0.39485886064E+02  0.95617597381E+01 -0.16126251208E+01  0.50528892689E+02  0.30000099818E+02 0.  0.
        -12    1    1    2    0    0 -0.39485886064E+02 -0.95617597381E+01  0.16126251208E+01  0.40659107311E+02  0.00000000000E+00 0.  1.
         11    1    3    3    0    0 -0.22042327142E+01  0.39223476089E+00 -0.57195427532E+01  0.61421217453E+01  0.51100000000E-03 0.  1.
        -11    1    3    3    0    0  0.22375166799E+02  0.57834957077E+01 -0.34596885765E+01  0.23368062761E+02  0.51100000000E-03 0. -1.
        -12    1    3    3    0    0  0.19314951979E+02  0.33860292695E+01  0.75666062090E+01  0.21018708183E+02  0.00000000000E+00 0.  1.
</event>
<event>
 7    1  0.5019004E-011  0.5052885E+02  0.7816164E-02  0.1300439E+00
        -11   -1    0    0    0    0  0.00000000000E+00  0.00000000000E+00  0.45593999997E+02  0.45594000000E+02  0.51100000000E-03 0. -1.
         11   -1    0    0    0    0 -0.00000000000E+00 -0.00000000000E+00 -0.45593999997E+02  0.45594000000E+02  0.51100000000E-03 0.  1.
    9900012    2    1    2    0    0  0.16522324178E+02  0.37149368224E+02 -0.32223369866E+00  0.50528848628E+02  0.29999965890E+02 0.  0.
        -12    1    1    2    0    0 -0.16522324178E+02 -0.37149368224E+02  0.32223369866E+00  0.40659151372E+02  0.00000000000E+00 0.  1.
         11    1    3    3    0    0  0.16007510455E+02  0.20217065354E+02 -0.87337150620E+01  0.27225868242E+02  0.51100000000E-03 0. -1.
        -11    1    3    3    0    0 -0.55351729677E+01  0.54657482566E+01  0.66210089410E+01  0.10215199628E+02  0.51100000000E-03 0.  1.
         12    1    3    3    0    0  0.60499866909E+01  0.11466554614E+02  0.17904724224E+01  0.13087780758E+02  0.00000000000E+00 0. -1.
</event>
<event>
 7    1  0.5019004E-011  0.5052886E+02  0.7816164E-02  0.1300439E+00
        -11   -1    0    0    0    0  0.00000000000E+00  0.00000000000E+00  0.45593999997E+02  0.45594000000E+02  0.51100000000E-03 0.  1.
         11   -1    0    0    0    0 -0.00000000000E+00 -0.00000000000E+00 -0.45593999997E+02  0.45594000000E+02  0.51100000000E-03 0. -1.
    9900012    2    1    2    0    0  0.26715209953E+02 -0.33849671221E+01 -0.30463180093E+02  0.50528858511E+02  0.29999995930E+02 0.  0.
        -12    1    1    2    0    0 -0.26715209953E+02  0.33849671221E+01  0.30463180093E+02  0.40659141489E+02  0.00000000000E+00 0.  1.
         11    1    3    3    0    0  0.11529380451E+02  0.73647277898E+01 -0.27692678023E+01  0.13958319147E+02  0.51100000000E-03 0. -1.
        -11    1    3    3    0    0 -0.16160391361E+00 -0.71659893616E+01 -0.13843526715E+02  0.15589122859E+02  0.51100000000E-03 0.  1.
         12    1    3    3    0    0  0.15347433416E+02 -0.35837055503E+01 -0.13850385576E+02  0.20981416504E+02  0.00000000000E+00 0. -1.
</event>
<event>
 7    1  0.5019004E-011  0.5052886E+02  0.7816164E-02  0.1300439E+00
        -11   -1    0    0    0    0  0.00000000000E+00  0.00000000000E+00  0.45593999997E+02  0.45594000000E+02  0.51100000000E-03 0. -1.
         11   -1    0    0    0    0 -0.00000000000E+00 -0.00000000000E+00 -0.45593999997E+02  0.45594000000E+02  0.51100000000E-03 0.  1.
    9900012    2    1    2    0    0  0.32426176202E+02 -0.24200318093E+02  0.40066516008E+01  0.50528861348E+02  0.30000004554E+02 0.  0.
        -12    1    1    2    0    0 -0.32426176202E+02  0.24200318093E+02 -0.40066516008E+01  0.40659138652E+02  0.00000000000E+00 0.  1.
         11    1    3    3    0    0  0.12919896790E+02 -0.13322415708E+02 -0.93176210756E+01  0.20766043343E+02  0.51100000000E-03 0. -1.
        -11    1    3    3    0    0  0.65982938653E+01 -0.19073955189E+01  0.12203914949E+02  0.14003970149E+02  0.51100000000E-03 0.  1.
         12    1    3    3    0    0  0.12907985546E+02 -0.89705068658E+01  0.11203577272E+01  0.15758847855E+02  0.00000000000E+00 0. -1.
</event>
<event>
 7    1  0.5019004E-011  0.5052885E+02  0.7816164E-02  0.1300439E+00
        -11   -1    0    0    0    0  0.00000000000E+00  0.00000000000E+00  0.45593999997E+02  0.45594000000E+02  0.51100000000E-03 0.  1.
         11   -1    0    0    0    0 -0.00000000000E+00 -0.00000000000E+00 -0.45593999997E+02  0.45594000000E+02  0.51100000000E-03 0. -1.
    9900012    2    1    2    0    0  0.55717466858E+01 -0.24027570497E+02  0.32323332429E+02  0.50528851897E+02  0.29999975827E+02 0.  0.
        -12    1    1    2    0    0 -0.55717466858E+01  0.24027570497E+02 -0.32323332429E+02  0.40659148103E+02  0.00000000000E+00 0.  1.
         11    1    3    3    0    0  0.12957120656E+02 -0.25634651500E+02  0.25521773399E+02  0.38423732912E+02  0.51100000000E-03 0. -1.
        -11    1    3    3    0    0 -0.16378999458E+01  0.32429760354E+01  0.42934774570E+01  0.56243718523E+01  0.51100000000E-03 0.  1.
         12    1    3    3    0    0 -0.57474740246E+01 -0.16358950327E+01  0.25080815726E+01  0.64807471326E+01  0.00000000000E+00 0. -1.
</event>
<event>
 7    1  0.5019004E-011  0.5052888E+02  0.7816164E-02  0.1300439E+00
        -11   -1    0    0    0    0  0.00000000000E+00  0.00000000000E+00  0.45593999997E+02  0.45594000000E+02  0.51100000000E-03 0. -1.
         11   -1    0    0    0    0 -0.00000000000E+00 -0.00000000000E+00 -0.45593999997E+02  0.45594000000E+02  0.51100000000E-03 0.  1.
    9900012    2    1    2    0    0  0.15056452052E+02  0.13965809090E+02  0.35091643963E+02  0.50528879892E+02  0.30000060920E+02 0.  0.
        -12    1    1    2    0    0 -0.15056452052E+02 -0.13965809090E+02 -0.35091643963E+02  0.40659120108E+02  0.00000000000E+00 0.  1.
         11    1    3    3    0    0  0.53066368037E+01 -0.75629895620E+00  0.78608687360E+01  0.95144962989E+01  0.51100000000E-03 0. -1.
        -11    1    3    3    0    0 -0.99592593617E+00  0.19057062203E+02  0.16931516692E+02  0.25511561027E+02  0.51100000000E-03 0.  1.
        -12    1    3    3    0    0  0.10745741185E+02 -0.43349541569E+01  0.10299258535E+02  0.15502822566E+02  0.00000000000E+00 0.  1.
</event>
<event>
 7    1  0.5019004E-011  0.5052886E+02  0.7816164E-02  0.1300439E+00
        -11   -1    0    0    0    0  0.00000000000E+00  0.00000000000E+00  0.45593999997E+02  0.45594000000E+02  0.51100000000E-03 0. -1.
         11   -1    0    0    0    0 -0.00000000000E+00 -0.00000000000E+00 -0.45593999997E+02  0.45594000000E+02  0.51100000000E-03 0.  1.
    9900012    2    1    2    0    0 -0.31148080664E+01 -0.28297793460E+02  0.29029269710E+02  0.50528860267E+02  0.30000001266E+02 0.  0.
        -12    1    1    2    0    0  0.31148080664E+01  0.28297793460E+02 -0.29029269710E+02  0.40659139733E+02  0.00000000000E+00 0.  1.
         11    1    3    3    0    0 -0.15253517242E+01 -0.15297110021E+01  0.10065786351E+02  0.10294987555E+02  0.51100000000E-03 0. -1.
        -11    1    3    3    0    0 -0.16567522277E+01 -0.30097363639E+02  0.20613738283E+02  0.36517425049E+02  0.51100000000E-03 0.  1.
        -12    1    3    3    0    0  0.67295885429E-01  0.33292811808E+01 -0.16502549241E+01  0.37164476630E+01  0.00000000000E+00 0.  1.
</event>
<event>
 7    1  0.5019004E-011  0.5052886E+02  0.7816164E-02  0.1300439E+00
        -11   -1    0    0    0    0  0.00000000000E+00  0.00000000000E+00  0.45593999997E+02  0.45594000000E+02  0.51100000000E-03 0.  1.
         11   -1    0    0    0    0 -0.00000000000E+00 -0.00000000000E+00 -0.45593999997E+02  0.45594000000E+02  0.51100000000E-03 0. -1.
    9900012    2    1    2    0    0 -0.15252119557E+02 -0.20842575236E+01 -0.37632356488E+02  0.50528861602E+02  0.30000005326E+02 0.  0.
        -12    1    1    2    0    0  0.15252119557E+02  0.20842575236E+01  0.37632356488E+02  0.40659138398E+02  0.00000000000E+00 0.  1.
         11    1    3    3    0    0  0.26976245376E+01  0.44818463349E+01  0.18878675655E+00  0.52344785238E+01  0.51100000000E-03 0. -1.
        -11    1    3    3    0    0 -0.58936887690E+01  0.37100430060E+01 -0.21282562732E+02  0.22393022643E+02  0.51100000000E-03 0.  1.
         12    1    3    3    0    0 -0.12056055326E+02 -0.10276146864E+02 -0.16538580513E+02  0.22901360435E+02  0.00000000000E+00 0. -1.
</event>
<event>
 7    1  0.5019004E-011  0.5052886E+02  0.7816164E-02  0.1300439E+00
        -11   -1    0    0    0    0  0.00000000000E+00  0.00000000000E+00  0.45593999997E+02  0.45594000000E+02  0.51100000000E-03 0. -1.
         11   -1    0    0    0    0 -0.00000000000E+00 -0.00000000000E+00 -0.45593999997E+02  0.45594000000E+02  0.51100000000E-03 0.  1.
    9900012    2    1    2    0    0  0.11525008182E+02 -0.20642583677E+02  0.33079052096E+02  0.50528858814E+02  0.29999996851E+02 0.  0.
        -12    1    1    2    0    0 -0.11525008182E+02  0.20642583677E+02 -0.33079052096E+02  0.40659141186E+02  0.00000000000E+00 0.  1.
         11    1    3    3    0    0 -0.67093334600E+01 -0.11109949370E+02  0.76376922857E+01  0.15059232191E+02  0.51100000000E-03 0. -1.
        -11    1    3    3    0    0  0.19196301621E+02 -0.72226619298E+01  0.16920256836E+02  0.26588718151E+02  0.51100000000E-03 0.  1.
        -12    1    3    3    0    0 -0.96195997886E+00 -0.23099723770E+01  0.85211029737E+01  0.88809084711E+01  0.00000000000E+00 0.  1.
</event>
<event>
 7    1  0.5019004E-011  0.5052886E+02  0.7816164E-02  0.1300439E+00
        -11   -1    0    0    0    0  0.00000000000E+00  0.00000000000E+00  0.45593999997E+02  0.45594000000E+02  0.51100000000E-03 0. -1.
         11   -1    0    0    0    0 -0.00000000000E+00 -0.00000000000E+00 -0.45593999997E+02  0.45594000000E+02  0.51100000000E-03 0.  1.
    9900012    2    1    2    0    0 -0.34704004639E+02  0.11307418473E+02  0.17914800552E+02  0.50528859216E+02  0.29999998072E+02 0.  0.
        -12    1    1    2    0    0  0.34704004639E+02 -0.11307418473E+02 -0.17914800552E+02  0.40659140784E+02  0.00000000000E+00 0.  1.
         11    1    3    3    0    0 -0.19933052576E+02  0.18548126590E+00  0.13872519448E+02  0.24285958585E+02  0.51100000000E-03 0. -1.
        -11    1    3    3    0    0 -0.86368397544E+01  0.11876284388E+02 -0.48048904831E+01  0.15450828607E+02  0.51100000000E-03 0.  1.
         12    1    3    3    0    0 -0.61341123090E+01 -0.75434718107E+00  0.88471715865E+01  0.10792072024E+02  0.00000000000E+00 0. -1.
</event>
<event>
 7    1  0.5019004E-011  0.5052887E+02  0.7816164E-02  0.1300439E+00
        -11   -1    0    0    0    0  0.00000000000E+00  0.00000000000E+00  0.45593999997E+02  0.45594000000E+02  0.51100000000E-03 0.  1.
         11   -1    0    0    0    0 -0.00000000000E+00 -0.00000000000E+00 -0.45593999997E+02  0.45594000000E+02  0.51100000000E-03 0. -1.
    9900012    2    1    2    0    0 -0.34782508567E+02  0.16397888042E+02 -0.13207990712E+02  0.50528872450E+02  0.30000038300E+02 0.  0.
        -12    1    1    2    0    0  0.34782508567E+02 -0.16397888042E+02  0.13207990712E+02  0.40659127550E+02  0.00000000000E+00 0.  1.
         11    1    3    3    0    0  0.19650385007E+00  0.50423755137E+01  0.32771066091E-01  0.50463094226E+01  0.51100000000E-03 0. -1.
        -11    1    3    3    0    0 -0.21444659659E+02  0.97718550307E+01 -0.19404205827E+02  0.30526804331E+02  0.51100000000E-03 0.  1.
        -12    1    3    3    0    0 -0.13534352758E+02  0.15836574980E+01  0.61634440491E+01  0.14955758696E+02  0.00000000000E+00 0.  1.
</event>
<event>
 7    1  0.5019004E-011  0.5052886E+02  0.7816164E-02  0.1300439E+00
        -11   -1    0    0    0    0  0.00000000000E+00  0.00000000000E+00  0.45593999997E+02  0.45594000000E+02  0.51100000000E-03 0.  1.
         11   -1    0    0    0    0 -0.00000000000E+00 -0.00000000000E+00 -0.45593999997E+02  0.45594000000E+02  0.51100000000E-03 0. -1.
    9900012    2    1    2    0    0  0.33159658344E+02  0.39461314035E+01 -0.23195490875E+02  0.50528859681E+02  0.29999999486E+02 0.  0.
        -12    1    1    2    0    0 -0.33159658344E+02 -0.39461314035E+01  0.23195490875E+02  0.40659140319E+02  0.00000000000E+00 0.  1.
         11    1    3    3    0    0  0.21582903592E+02  0.52801582851E+01 -0.29257554756E+02  0.36738349304E+02  0.51100000000E-03 0. -1.
        -11    1    3    3    0    0  0.74055540744E+01 -0.18991873249E+01  0.57565760554E+01  0.95701260068E+01  0.51100000000E-03 0.  1.
         12    1    3    3    0    0  0.41712006781E+01  0.56516044326E+00  0.30548782637E+00  0.42203843706E+01  0.00000000000E+00 0. -1.
</event>
<event>
 7    1  0.5019004E-011  0.5052886E+02  0.7816164E-02  0.1300439E+00
        -11   -1    0    0    0    0  0.00000000000E+00  0.00000000000E+00  0.45593999997E+02  0.45594000000E+02  0.51100000000E-03 0. -1.
         11   -1    0    0    0    0 -0.00000000000E+00 -0.00000000000E+00 -0.45593999997E+02  0.45594000000E+02  0.51100000000E-03 0.  1.
    9900012    2    1    2    0    0  0.17069294787E+02  0.27221065031E+02  0.24916222198E+02  0.50528864070E+02  0.30000012827E+02 0.  0.
        -12    1    1    2    0    0 -0.17069294787E+02 -0.27221065031E+02 -0.24916222198E+02  0.40659135930E+02  0.00000000000E+00 0.  1.
         11    1    3    3    0    0 -0.12564297026E+01  0.22659566682E+02  0.14438811579E+02  0.26898212912E+02  0.51100000000E-03 0. -1.
        -11    1    3    3    0    0  0.12219280298E+02  0.44373400856E+01  0.11597211596E+02  0.17421139891E+02  0.51100000000E-03 0.  1.
         12    1    3    3    0    0  0.61064441914E+01  0.12415826372E+00 -0.11198009771E+01  0.62095112662E+01  0.00000000000E+00 0. -1.
</event>
<event>
 7    1  0.5019004E-011  0.5052886E+02  0.7816164E-02  0.1300439E+00
        -11   -1    0    0    0    0  0.00000000000E+00  0.00000000000E+00  0.45593999997E+02  0.45594000000E+02  0.51100000000E-03 0. -1.
         11   -1    0    0    0    0 -0.00000000000E+00 -0.00000000000E+00 -0.45593999997E+02  0.45594000000E+02  0.51100000000E-03 0.  1.
    9900012    2    1    2    0    0 -0.22786889076E+02 -0.77115851383E+01  0.32778872597E+02  0.50528863907E+02  0.30000012332E+02 0.  0.
        -12    1    1    2    0    0  0.22786889076E+02  0.77115851383E+01 -0.32778872597E+02  0.40659136093E+02  0.00000000000E+00 0.  1.
         11    1    3    3    0    0 -0.53321575902E+01  0.71373765000E+01  0.10630382926E+02  0.13870078921E+02  0.51100000000E-03 0. -1.
        -11    1    3    3    0    0 -0.13641481171E+02 -0.78743533586E+01  0.31479848651E+01  0.16062542088E+02  0.51100000000E-03 0.  1.
         12    1    3    3    0    0 -0.38132503145E+01 -0.69746082797E+01  0.19000504806E+02  0.20596242898E+02  0.00000000000E+00 0. -1.
</event>
<event>
 7    1  0.5019004E-011  0.5052886E+02  0.7816164E-02  0.1300439E+00
        -11   -1    0    0    0    0  0.00000000000E+00  0.00000000000E+00  0.45593999997E+02  0.45594000000E+02  0.51100000000E-03 0.  1.
         11   -1    0    0    0    0 -0.00000000000E+00 -0.00000000000E+00 -0.45593999997E+02  0.45594000000E+02  0.51100000000E-03 0. -1.
    9900012    2    1    2    0    0 -0.17231146202E+02 -0.20080257586E+02 -0.30871290019E+02  0.50528859679E+02  0.29999999482E+02 0.  0.
        -12    1    1    2    0    0  0.17231146202E+02  0.20080257586E+02  0.30871290019E+02  0.40659140321E+02  0.00000000000E+00 0.  1.
         11    1    3    3    0    0  0.40899879494E+01 -0.15657396550E+02 -0.18381486167E+02  0.24490020460E+02  0.51100000000E-03 0. -1.
        -11    1    3    3    0    0 -0.11625869322E+02 -0.13162193212E+00 -0.35107898950E+01  0.12145114564E+02  0.51100000000E-03 0.  1.
         12    1    3    3    0    0 -0.96952648294E+01 -0.42912391038E+01 -0.89790139571E+01  0.13893724655E+02  0.00000000000E+00 0. -1.
</event>
<event>
 7    1  0.5019004E-011  0.5052892E+02  0.7816164E-02  0.1300439E+00
        -11   -1    0    0    0    0  0.00000000000E+00  0.00000000000E+00  0.45593999997E+02  0.45594000000E+02  0.51100000000E-03 0. -1.
         11   -1    0    0    0    0 -0.00000000000E+00 -0.00000000000E+00 -0.45593999997E+02  0.45594000000E+02  0.51100000000E-03 0.  1.
    9900012    2    1    2    0    0  0.33389443765E+02 -0.21011963002E+02 -0.98388710954E+01  0.50528918252E+02  0.30000177519E+02 0.  0.
        -12    1    1    2    0    0 -0.33389443765E+02  0.21011963002E+02  0.98388710954E+01  0.40659081748E+02  0.00000000000E+00 0.  1.
         11    1    3    3    0    0  0.45820719719E+01 -0.13715861701E+02  0.52711108214E+01  0.15391713852E+02  0.51100000000E-03 0. -1.
        -11    1    3    3    0    0  0.19243385535E+02 -0.72878947034E+01 -0.15183983895E+02  0.25572928328E+02  0.51100000000E-03 0.  1.
         12    1    3    3    0    0  0.95639862583E+01 -0.82065974548E-02  0.74001978352E-01  0.95642760724E+01  0.00000000000E+00 0. -1.
</event>
<event>
 7    1  0.5019004E-011  0.5052886E+02  0.7816164E-02  0.1300439E+00
        -11   -1    0    0    0    0  0.00000000000E+00  0.00000000000E+00  0.45593999997E+02  0.45594000000E+02  0.51100000000E-03 0. -1.
         11   -1    0    0    0    0 -0.00000000000E+00 -0.00000000000E+00 -0.45593999997E+02  0.45594000000E+02  0.51100000000E-03 0.  1.
    9900012    2    1    2    0    0 -0.14463350363E+02 -0.37978320789E+02  0.12744792664E+01  0.50528860178E+02  0.30000000998E+02 0.  0.
        -12    1    1    2    0    0  0.14463350363E+02  0.37978320789E+02 -0.12744792664E+01  0.40659139822E+02  0.00000000000E+00 0.  1.
         11    1    3    3    0    0 -0.14393793968E+02 -0.12906616755E+02  0.94340017623E+00  0.19355931003E+02  0.51100000000E-03 0. -1.
        -11    1    3    3    0    0  0.12670316780E+01  0.28710221966E+01  0.60976818453E+00  0.31968664699E+01  0.51100000000E-03 0.  1.
        -12    1    3    3    0    0 -0.13365880728E+01 -0.27942726231E+02 -0.27868909433E+00  0.27976062705E+02  0.00000000000E+00 0.  1.
</event>
<event>
 7    1  0.5019004E-011  0.5052886E+02  0.7816164E-02  0.1300439E+00
        -11   -1    0    0    0    0  0.00000000000E+00  0.00000000000E+00  0.45593999997E+02  0.45594000000E+02  0.51100000000E-03 0.  1.
         11   -1    0    0    0    0 -0.00000000000E+00 -0.00000000000E+00 -0.45593999997E+02  0.45594000000E+02  0.51100000000E-03 0. -1.
    9900012    2    1    2    0    0 -0.28484334756E+02 -0.17065247258E+02 -0.23464563860E+02  0.50528858990E+02  0.29999997387E+02 0.  0.
        -12    1    1    2    0    0  0.28484334756E+02  0.17065247258E+02  0.23464563860E+02  0.40659141010E+02  0.00000000000E+00 0.  1.
         11    1    3    3    0    0 -0.19075986985E+02 -0.48525563923E+01 -0.51925432269E+01  0.20356892896E+02  0.51100000000E-03 0. -1.
        -11    1    3    3    0    0 -0.48201816579E+01 -0.24337212165E+01 -0.18597190881E+02  0.19365243585E+02  0.51100000000E-03 0.  1.
        -12    1    3    3    0    0 -0.45881661140E+01 -0.97789696494E+01  0.32517024775E+00  0.10806722509E+02  0.00000000000E+00 0.  1.
</event>
<event>
 7    1  0.5019004E-011  0.5052887E+02  0.7816164E-02  0.1300439E+00
        -11   -1    0    0    0    0  0.00000000000E+00  0.00000000000E+00  0.45593999997E+02  0.45594000000E+02  0.51100000000E-03 0. -1.
         11   -1    0    0    0    0 -0.00000000000E+00 -0.00000000000E+00 -0.45593999997E+02  0.45594000000E+02  0.51100000000E-03 0.  1.
    9900012    2    1    2    0    0  0.69422298434E+01 -0.17349248024E+02  0.36110583386E+02  0.50528865790E+02  0.30000018055E+02 0.  0.
        -12    1    1    2    0    0 -0.69422298434E+01  0.17349248024E+02 -0.36110583386E+02  0.40659134210E+02  0.00000000000E+00 0.  1.
         11    1    3    3    0    0 -0.31063212863E+00 -0.19396648218E+02  0.35710088089E+02  0.40639104887E+02  0.51100000000E-03 0. -1.
        -11    1    3    3    0    0  0.48110244642E+01 -0.15037566450E+01 -0.13811140127E+01  0.52263483064E+01  0.51100000000E-03 0.  1.
         12    1    3    3    0    0  0.24418375079E+01  0.35511568392E+01  0.17816093099E+01  0.46634125964E+01  0.00000000000E+00 0. -1.
</event>
<event>
 7    1  0.5019004E-011  0.5052872E+02  0.7816164E-02  0.1300439E+00
        -11   -1    0    0    0    0  0.00000000000E+00  0.00000000000E+00  0.45593999997E+02  0.45594000000E+02  0.51100000000E-03 0. -1.
         11   -1    0    0    0    0 -0.00000000000E+00 -0.00000000000E+00 -0.45593999997E+02  0.45594000000E+02  0.51100000000E-03 0.  1.
    9900012    2    1    2    0    0 -0.64026704474E+00 -0.38668751661E+02  0.12549692540E+02  0.50528719636E+02  0.29999573801E+02 0.  0.
        -12    1    1    2    0    0  0.64026704474E+00  0.38668751661E+02 -0.12549692540E+02  0.40659280364E+02  0.00000000000E+00 0.  1.
         11    1    3    3    0    0 -0.13286969274E+02 -0.12305270115E+02  0.10308693882E+01  0.18139071559E+02  0.51100000000E-03 0. -1.
        -11    1    3    3    0    0  0.92328075872E+01 -0.10899460438E+02  0.38497178260E+01  0.14794029248E+02  0.51100000000E-03 0.  1.
         12    1    3    3    0    0  0.34138946420E+01 -0.15464021108E+02  0.76691053255E+01  0.17595618829E+02  0.00000000000E+00 0. -1.
</event>
<event>
 7    1  0.5019004E-011  0.5052886E+02  0.7816164E-02  0.1300439E+00
        -11   -1    0    0    0    0  0.00000000000E+00  0.00000000000E+00  0.45593999997E+02  0.45594000000E+02  0.51100000000E-03 0.  1.
         11   -1    0    0    0    0 -0.00000000000E+00 -0.00000000000E+00 -0.45593999997E+02  0.45594000000E+02  0.51100000000E-03 0. -1.
    9900012    2    1    2    0    0  0.19233889937E+02 -0.34882478053E+02 -0.81508120061E+01  0.50528861623E+02  0.30000005388E+02 0.  0.
        -12    1    1    2    0    0 -0.19233889937E+02  0.34882478053E+02  0.81508120061E+01  0.40659138377E+02  0.00000000000E+00 0.  1.
         11    1    3    3    0    0  0.94715093682E+01 -0.17992186927E+02 -0.34765558780E+01  0.20628008173E+02  0.51100000000E-03 0. -1.
        -11    1    3    3    0    0  0.11775304374E+02 -0.15033863487E+01 -0.76194678873E+01  0.14105823435E+02  0.51100000000E-03 0.  1.
        -12    1    3    3    0    0 -0.20129238057E+01 -0.15386904777E+02  0.29452117592E+01  0.15795030015E+02  0.00000000000E+00 0.  1.
</event>
<event>
 7    1  0.5019004E-011  0.5052887E+02  0.7816164E-02  0.1300439E+00
        -11   -1    0    0    0    0  0.00000000000E+00  0.00000000000E+00  0.45593999997E+02  0.45594000000E+02  0.51100000000E-03 0.  1.
         11   -1    0    0    0    0 -0.00000000000E+00 -0.00000000000E+00 -0.45593999997E+02  0.45594000000E+02  0.51100000000E-03 0. -1.
    9900012    2    1    2    0    0 -0.18445657087E+02 -0.17431238972E+02 -0.31765939249E+02  0.50528865063E+02  0.30000015846E+02 0.  0.
        -12    1    1    2    0    0  0.18445657087E+02  0.17431238972E+02  0.31765939249E+02  0.40659134937E+02  0.00000000000E+00 0.  1.
         11    1    3    3    0    0 -0.22809324203E+02 -0.19788978610E+02 -0.22659448080E+02  0.37753404252E+02  0.51100000000E-03 0. -1.
        -11    1    3    3    0    0 -0.20703548103E+00  0.34106944464E+01 -0.66598510155E+01  0.74852732821E+01  0.51100000000E-03 0.  1.
         12    1    3    3    0    0  0.45707025968E+01 -0.10529548075E+01 -0.24466401528E+01  0.52901875290E+01  0.00000000000E+00 0. -1.
</event>
<event>
 7    1  0.5019004E-011  0.5052886E+02  0.7816164E-02  0.1300439E+00
        -11   -1    0    0    0    0  0.00000000000E+00  0.00000000000E+00  0.45593999997E+02  0.45594000000E+02  0.51100000000E-03 0.  1.
         11   -1    0    0    0    0 -0.00000000000E+00 -0.00000000000E+00 -0.45593999997E+02  0.45594000000E+02  0.51100000000E-03 0. -1.
    9900012    2    1    2    0    0  0.28842951776E+02  0.87751047949E+01 -0.27280900066E+02  0.50528857858E+02  0.29999993945E+02 0.  0.
        -12    1    1    2    0    0 -0.28842951776E+02 -0.87751047949E+01  0.27280900066E+02  0.40659142142E+02  0.00000000000E+00 0.  1.
         11    1    3    3    0    0  0.22233119072E+02  0.18340447202E+02 -0.14963272495E+02  0.32474345433E+02  0.51100000000E-03 0. -1.
        -11    1    3    3    0    0  0.42437071925E+01 -0.73348700640E+01 -0.45158144401E+01  0.96021846426E+01  0.51100000000E-03 0.  1.
         12    1    3    3    0    0  0.23661255108E+01 -0.22304723436E+01 -0.78018131315E+01  0.84523277827E+01  0.00000000000E+00 0. -1.
</event>
<event>
 7    1  0.5019004E-011  0.5052879E+02  0.7816164E-02  0.1300439E+00
        -11   -1    0    0    0    0  0.00000000000E+00  0.00000000000E+00  0.45593999997E+02  0.45594000000E+02  0.51100000000E-03 0.  1.
         11   -1    0    0    0    0 -0.00000000000E+00 -0.00000000000E+00 -0.45593999997E+02  0.45594000000E+02  0.51100000000E-03 0. -1.
    9900012    2    1    2    0    0  0.18687245569E+01  0.34823686724E+02 -0.20904303060E+02  0.50528792249E+02  0.29999794520E+02 0.  0.
        -12    1    1    2    0    0 -0.18687245569E+01 -0.34823686724E+02  0.20904303060E+02  0.40659207751E+02  0.00000000000E+00 0.  1.
         11    1    3    3    0    0  0.41470552151E+01  0.21102410296E+02 -0.40815122670E+01  0.21889918453E+02  0.51100000000E-03 0.  1.
        -11    1    3    3    0    0 -0.45657186774E+01  0.16251358527E+02 -0.18322290159E+02  0.24913023862E+02  0.51100000000E-03 0. -1.
        -12    1    3    3    0    0  0.22873880192E+01 -0.25300820991E+01  0.14994993663E+01  0.37258499336E+01  0.00000000000E+00 0.  1.
</event>
<event>
 7    1  0.5019004E-011  0.5052887E+02  0.7816164E-02  0.1300439E+00
        -11   -1    0    0    0    0  0.00000000000E+00  0.00000000000E+00  0.45593999997E+02  0.45594000000E+02  0.51100000000E-03 0.  1.
         11   -1    0    0    0    0 -0.00000000000E+00 -0.00000000000E+00 -0.45593999997E+02  0.45594000000E+02  0.51100000000E-03 0. -1.
    9900012    2    1    2    0    0  0.20187640836E+02  0.35223129433E+02  0.22260916645E+01  0.50528866049E+02  0.30000018841E+02 0.  0.
        -12    1    1    2    0    0 -0.20187640836E+02 -0.35223129433E+02 -0.22260916645E+01  0.40659133951E+02  0.00000000000E+00 0.  1.
         11    1    3    3    0    0  0.22783630172E+02  0.39247833152E+02  0.49565715101E+00  0.45384269160E+02  0.51100000000E-03 0. -1.
        -11    1    3    3    0    0 -0.11993266789E+01 -0.15794731974E+01  0.37090533441E+00  0.20175953737E+01  0.51100000000E-03 0.  1.
         12    1    3    3    0    0 -0.13966626568E+01 -0.24452305219E+01  0.13595291791E+01  0.31270015144E+01  0.00000000000E+00 0. -1.
</event>
<event>
 7    1  0.5019004E-011  0.5052888E+02  0.7816164E-02  0.1300439E+00
        -11   -1    0    0    0    0  0.00000000000E+00  0.00000000000E+00  0.45593999997E+02  0.45594000000E+02  0.51100000000E-03 0. -1.
         11   -1    0    0    0    0 -0.00000000000E+00 -0.00000000000E+00 -0.45593999997E+02  0.45594000000E+02  0.51100000000E-03 0.  1.
    9900012    2    1    2    0    0 -0.79434856804E+01  0.38177983318E+02 -0.11511170498E+02  0.50528875302E+02  0.30000046968E+02 0.  0.
        -12    1    1    2    0    0  0.79434856804E+01 -0.38177983318E+02  0.11511170498E+02  0.40659124698E+02  0.00000000000E+00 0.  1.
         11    1    3    3    0    0 -0.41203893265E+01  0.72461882626E+01 -0.54085977541E+01  0.99366887073E+01  0.51100000000E-03 0. -1.
        -11    1    3    3    0    0  0.23490046926E+01  0.56959842669E+01  0.87233469454E+01  0.10679833426E+02  0.51100000000E-03 0.  1.
        -12    1    3    3    0    0 -0.61721010466E+01  0.25235810788E+02 -0.14825919689E+02  0.29912353169E+02  0.00000000000E+00 0.  1.
</event>
<event>
 7    1  0.5019004E-011  0.5052886E+02  0.7816164E-02  0.1300439E+00
        -11   -1    0    0    0    0  0.00000000000E+00  0.00000000000E+00  0.45593999997E+02  0.45594000000E+02  0.51100000000E-03 0.  1.
         11   -1    0    0    0    0 -0.00000000000E+00 -0.00000000000E+00 -0.45593999997E+02  0.45594000000E+02  0.51100000000E-03 0. -1.
    9900012    2    1    2    0    0  0.30673198271E+02 -0.26663816637E+02 -0.11668645739E+01  0.50528858559E+02  0.29999996076E+02 0.  0.
        -12    1    1    2    0    0 -0.30673198271E+02  0.26663816637E+02  0.11668645739E+01  0.40659141441E+02  0.00000000000E+00 0.  1.
         11    1    3    3    0    0  0.19608692742E+02 -0.96230932783E+01  0.11287687412E+02  0.24586920154E+02  0.51100000000E-03 0.  1.
        -11    1    3    3    0    0  0.11432351420E+02 -0.17717161014E+02 -0.99377442229E+01  0.23309980993E+02  0.51100000000E-03 0. -1.
        -12    1    3    3    0    0 -0.36784589127E+00  0.67643765617E+00 -0.25168077628E+01  0.26319574118E+01  0.00000000000E+00 0.  1.
</event>
<event>
 7    1  0.5019004E-011  0.5052887E+02  0.7816164E-02  0.1300439E+00
        -11   -1    0    0    0    0  0.00000000000E+00  0.00000000000E+00  0.45593999997E+02  0.45594000000E+02  0.51100000000E-03 0. -1.
         11   -1    0    0    0    0 -0.00000000000E+00 -0.00000000000E+00 -0.45593999997E+02  0.45594000000E+02  0.51100000000E-03 0.  1.
    9900012    2    1    2    0    0 -0.37074534311E+02  0.65707029471E+01  0.15345017231E+02  0.50528870823E+02  0.30000033353E+02 0.  0.
        -12    1    1    2    0    0  0.37074534311E+02 -0.65707029471E+01 -0.15345017231E+02  0.40659129177E+02  0.00000000000E+00 0.  1.
         11    1    3    3    0    0 -0.27678360368E+02  0.46557934981E+01  0.22340704991E+02  0.35873042045E+02  0.51100000000E-03 0. -1.
        -11    1    3    3    0    0 -0.46469935740E+01 -0.31051534052E+01 -0.13943221904E+01  0.57602657559E+01  0.51100000000E-03 0.  1.
         12    1    3    3    0    0 -0.47491803689E+01  0.50200628542E+01 -0.56013655694E+01  0.88955630220E+01  0.00000000000E+00 0. -1.
</event>
<event>
 7    1  0.5019004E-011  0.5052887E+02  0.7816164E-02  0.1300439E+00
        -11   -1    0    0    0    0  0.00000000000E+00  0.00000000000E+00  0.45593999997E+02  0.45594000000E+02  0.51100000000E-03 0.  1.
         11   -1    0    0    0    0 -0.00000000000E+00 -0.00000000000E+00 -0.45593999997E+02  0.45594000000E+02  0.51100000000E-03 0. -1.
    9900012    2    1    2    0    0 -0.12682202229E+02  0.32336766765E+02 -0.21134344433E+02  0.50528865075E+02  0.30000015883E+02 0.  0.
        -12    1    1    2    0    0  0.12682202229E+02 -0.32336766765E+02  0.21134344433E+02  0.40659134925E+02  0.00000000000E+00 0.  1.
         11    1    3    3    0    0 -0.70759232026E+01  0.26385847288E+02 -0.93501123183E+01  0.28873971443E+02  0.51100000000E-03 0. -1.
        -11    1    3    3    0    0 -0.43893077788E+01  0.26897817873E+01 -0.15637011744E+02  0.16462596557E+02  0.51100000000E-03 0.  1.
        -12    1    3    3    0    0 -0.12169712479E+01  0.32611376899E+01  0.38527796290E+01  0.51922970755E+01  0.00000000000E+00 0.  1.
</event>
<event>
 7    1  0.5019004E-011  0.5052888E+02  0.7816164E-02  0.1300439E+00
        -11   -1    0    0    0    0  0.00000000000E+00  0.00000000000E+00  0.45593999997E+02  0.45594000000E+02  0.51100000000E-03 0.  1.
         11   -1    0    0    0    0 -0.00000000000E+00 -0.00000000000E+00 -0.45593999997E+02  0.45594000000E+02  0.51100000000E-03 0. -1.
    9900012    2    1    2    0    0  0.22330651718E+01 -0.37461350887E+02 -0.15646882833E+02  0.50528876391E+02  0.30000050277E+02 0.  0.
        -12    1    1    2    0    0 -0.22330651718E+01  0.37461350887E+02  0.15646882833E+02  0.40659123609E+02  0.00000000000E+00 0.  1.
         11    1    3    3    0    0  0.64464153895E+01 -0.99342540460E+01 -0.15268505941E+02  0.19322860780E+02  0.51100000000E-03 0. -1.
        -11    1    3    3    0    0 -0.59905583805E+01 -0.28272763953E+02 -0.15648546021E+01  0.28942783927E+02  0.51100000000E-03 0.  1.
        -12    1    3    3    0    0  0.17772081628E+01  0.74566711232E+00  0.11864777098E+01  0.22632316833E+01  0.00000000000E+00 0.  1.
</event>
<event>
 7    1  0.5019004E-011  0.5052886E+02  0.7816164E-02  0.1300439E+00
        -11   -1    0    0    0    0  0.00000000000E+00  0.00000000000E+00  0.45593999997E+02  0.45594000000E+02  0.51100000000E-03 0.  1.
         11   -1    0    0    0    0 -0.00000000000E+00 -0.00000000000E+00 -0.45593999997E+02  0.45594000000E+02  0.51100000000E-03 0. -1.
    9900012    2    1    2    0    0 -0.32124350114E+02 -0.13825565492E+02 -0.20737534753E+02  0.50528862293E+02  0.30000007427E+02 0.  0.
        -12    1    1    2    0    0  0.32124350114E+02  0.13825565492E+02  0.20737534753E+02  0.40659137707E+02  0.00000000000E+00 0.  1.
         11    1    3    3    0    0 -0.28583457114E+02 -0.11567110307E+02 -0.64774843152E+01  0.31508250741E+02  0.51100000000E-03 0. -1.
        -11    1    3    3    0    0 -0.67465920643E+01 -0.25087833974E+01 -0.14064288714E+02  0.15799199850E+02  0.51100000000E-03 0.  1.
         12    1    3    3    0    0  0.32056990643E+01  0.25032821189E+00 -0.19576172389E+00  0.32214117025E+01  0.00000000000E+00 0. -1.
</event>
<event>
 7    1  0.5019004E-011  0.5052885E+02  0.7816164E-02  0.1300439E+00
        -11   -1    0    0    0    0  0.00000000000E+00  0.00000000000E+00  0.45593999997E+02  0.45594000000E+02  0.51100000000E-03 0. -1.
         11   -1    0    0    0    0 -0.00000000000E+00 -0.00000000000E+00 -0.45593999997E+02  0.45594000000E+02  0.51100000000E-03 0.  1.
    9900012    2    1    2    0    0  0.65736500964E+01 -0.25127760610E+02  0.31281765694E+02  0.50528854733E+02  0.29999984448E+02 0.  0.
        -12    1    1    2    0    0 -0.65736500964E+01  0.25127760610E+02 -0.31281765694E+02  0.40659145267E+02  0.00000000000E+00 0.  1.
         11    1    3    3    0    0 -0.75034946194E+01 -0.18103449806E+01  0.61378805246E+01  0.98617117199E+01  0.51100000000E-03 0. -1.
        -11    1    3    3    0    0  0.11646631990E+02 -0.14166841617E+02  0.59765055662E+01  0.19288910212E+02  0.51100000000E-03 0.  1.
         12    1    3    3    0    0  0.24305127258E+01 -0.91505740124E+01  0.19167379603E+02  0.21378232802E+02  0.00000000000E+00 0. -1.
</event>
<event>
 7    1  0.5019004E-011  0.5052887E+02  0.7816164E-02  0.1300439E+00
        -11   -1    0    0    0    0  0.00000000000E+00  0.00000000000E+00  0.45593999997E+02  0.45594000000E+02  0.51100000000E-03 0. -1.
         11   -1    0    0    0    0 -0.00000000000E+00 -0.00000000000E+00 -0.45593999997E+02  0.45594000000E+02  0.51100000000E-03 0.  1.
    9900012    2    1    2    0    0  0.13262479811E+02  0.36872165363E+02  0.10849649781E+02  0.50528870033E+02  0.30000030953E+02 0.  0.
        -12    1    1    2    0    0 -0.13262479811E+02 -0.36872165363E+02 -0.10849649781E+02  0.40659129967E+02  0.00000000000E+00 0.  1.
         11    1    3    3    0    0  0.19089840645E+02  0.32731371830E+02  0.12557134913E+02  0.39917995381E+02  0.51100000000E-03 0. -1.
        -11    1    3    3    0    0 -0.41325535964E+01  0.57683417893E+01 -0.32451347022E+01  0.78027345028E+01  0.51100000000E-03 0.  1.
        -12    1    3    3    0    0 -0.16948072369E+01 -0.16275482570E+01  0.15376495701E+01  0.28081401496E+01  0.00000000000E+00 0.  1.
</event>
<event>
 7    1  0.5019004E-011  0.5052887E+02  0.7816164E-02  0.1300439E+00
        -11   -1    0    0    0    0  0.00000000000E+00  0.00000000000E+00  0.45593999997E+02  0.45594000000E+02  0.51100000000E-03 0.  1.
         11   -1    0    0    0    0 -0.00000000000E+00 -0.00000000000E+00 -0.45593999997E+02  0.45594000000E+02  0.51100000000E-03 0. -1.
    9900012    2    1    2    0    0  0.72162607678E-01  0.34880456070E+02 -0.20892912363E+02  0.50528865601E+02  0.30000017481E+02 0.  0.
        -12    1    1    2    0    0 -0.72162607678E-01 -0.34880456070E+02  0.20892912363E+02  0.40659134399E+02  0.00000000000E+00 0.  1.
         11    1    3    3    0    0 -0.91788417426E+01  0.62624805841E+00 -0.59968475401E+01  0.10982053681E+02  0.51100000000E-03 0. -1.
        -11    1    3    3    0    0  0.44187562623E+01  0.39425362022E+01 -0.28676114568E+01  0.65796804132E+01  0.51100000000E-03 0.  1.
         12    1    3    3    0    0  0.48322480880E+01  0.30311671809E+02 -0.12028453366E+02  0.32967131507E+02  0.00000000000E+00 0. -1.
</event>
<event>
 7    1  0.5019004E-011  0.5052885E+02  0.7816164E-02  0.1300439E+00
        -11   -1    0    0    0    0  0.00000000000E+00  0.00000000000E+00  0.45593999997E+02  0.45594000000E+02  0.51100000000E-03 0. -1.
         11   -1    0    0    0    0 -0.00000000000E+00 -0.00000000000E+00 -0.45593999997E+02  0.45594000000E+02  0.51100000000E-03 0.  1.
    9900012    2    1    2    0    0 -0.42109032481E+01  0.37478560897E+02 -0.15191845659E+02  0.50528850874E+02  0.29999972718E+02 0.  0.
        -12    1    1    2    0    0  0.42109032481E+01 -0.37478560897E+02  0.15191845659E+02  0.40659149126E+02  0.00000000000E+00 0.  1.
         11    1    3    3    0    0  0.12533713588E+02  0.21204740477E+02 -0.59092791813E+01  0.25330901597E+02  0.51100000000E-03 0. -1.
        -11    1    3    3    0    0 -0.65207196266E+01  0.53023323651E+01 -0.27815310684E+01  0.88527638794E+01  0.51100000000E-03 0.  1.
         12    1    3    3    0    0 -0.10223897210E+02  0.10971488055E+02 -0.65010354094E+01  0.16345185398E+02  0.00000000000E+00 0. -1.
</event>
<event>
 7    1  0.5019004E-011  0.5052887E+02  0.7816164E-02  0.1300439E+00
        -11   -1    0    0    0    0  0.00000000000E+00  0.00000000000E+00  0.45593999997E+02  0.45594000000E+02  0.51100000000E-03 0.  1.
         11   -1    0    0    0    0 -0.00000000000E+00 -0.00000000000E+00 -0.45593999997E+02  0.45594000000E+02  0.51100000000E-03 0. -1.
    9900012    2    1    2    0    0  0.36127328017E+02  0.15145795979E+02 -0.10889726481E+02  0.50528866852E+02  0.30000021285E+02 0.  0.
        -12    1    1    2    0    0 -0.36127328017E+02 -0.15145795979E+02  0.10889726481E+02  0.40659133148E+02  0.00000000000E+00 0.  1.
         11    1    3    3    0    0  0.28441562400E+02 -0.15025347500E+01 -0.41098659561E+01  0.28776224229E+02  0.51100000000E-03 0. -1.
        -11    1    3    3    0    0  0.84741703545E+01  0.74185637634E+01 -0.24440029679E+01  0.11524747385E+02  0.51100000000E-03 0.  1.
         12    1    3    3    0    0 -0.78840473768E+00  0.92297669651E+01 -0.43358575572E+01  0.10227895239E+02  0.00000000000E+00 0. -1.
</event>
<event>
 7    1  0.5019004E-011  0.5052885E+02  0.7816164E-02  0.1300439E+00
        -11   -1    0    0    0    0  0.00000000000E+00  0.00000000000E+00  0.45593999997E+02  0.45594000000E+02  0.51100000000E-03 0.  1.
         11   -1    0    0    0    0 -0.00000000000E+00 -0.00000000000E+00 -0.45593999997E+02  0.45594000000E+02  0.51100000000E-03 0. -1.
    9900012    2    1    2    0    0  0.20894619142E+02  0.10800095387E+02 -0.33165330412E+02  0.50528852065E+02  0.29999976336E+02 0.  0.
        -12    1    1    2    0    0 -0.20894619142E+02 -0.10800095387E+02  0.33165330412E+02  0.40659147935E+02  0.00000000000E+00 0.  1.
         11    1    3    3    0    0  0.71096506054E+01  0.27368368357E+01 -0.25197729692E+02  0.26324190197E+02  0.51100000000E-03 0. -1.
        -11    1    3    3    0    0  0.58070852083E+01  0.32249651639E+01  0.49398853033E+01  0.82779892484E+01  0.51100000000E-03 0.  1.
        -12    1    3    3    0    0  0.79778833281E+01  0.48382933876E+01 -0.12907486023E+02  0.15926672620E+02  0.00000000000E+00 0.  1.
</event>
<event>
 7    1  0.5019004E-011  0.5052887E+02  0.7816164E-02  0.1300439E+00
        -11   -1    0    0    0    0  0.00000000000E+00  0.00000000000E+00  0.45593999997E+02  0.45594000000E+02  0.51100000000E-03 0. -1.
         11   -1    0    0    0    0 -0.00000000000E+00 -0.00000000000E+00 -0.45593999997E+02  0.45594000000E+02  0.51100000000E-03 0.  1.
    9900012    2    1    2    0    0 -0.10781849284E+02  0.36570143091E+02  0.14125901076E+02  0.50528871616E+02  0.30000035765E+02 0.  0.
        -12    1    1    2    0    0  0.10781849284E+02 -0.36570143091E+02 -0.14125901076E+02  0.40659128384E+02  0.00000000000E+00 0.  1.
         11    1    3    3    0    0  0.80438520714E+01  0.61875877123E+01  0.64596741590E+01  0.12029845732E+02  0.51100000000E-03 0. -1.
        -11    1    3    3    0    0 -0.61990103766E+01  0.17599642319E+01  0.13357993056E+01  0.65810002122E+01  0.51100000000E-03 0.  1.
         12    1    3    3    0    0 -0.12626690979E+02  0.28622591147E+02  0.63304276117E+01  0.31918025672E+02  0.00000000000E+00 0. -1.
</event>
<event>
 7    1  0.5019004E-011  0.5052886E+02  0.7816164E-02  0.1300439E+00
        -11   -1    0    0    0    0  0.00000000000E+00  0.00000000000E+00  0.45593999997E+02  0.45594000000E+02  0.51100000000E-03 0.  1.
         11   -1    0    0    0    0 -0.00000000000E+00 -0.00000000000E+00 -0.45593999997E+02  0.45594000000E+02  0.51100000000E-03 0. -1.
    9900012    2    1    2    0    0  0.36415254785E+02 -0.10771531847E+02 -0.14528224118E+02  0.50528856189E+02  0.29999988872E+02 0.  0.
        -12    1    1    2    0    0 -0.36415254785E+02  0.10771531847E+02  0.14528224118E+02  0.40659143811E+02  0.00000000000E+00 0.  1.
         11    1    3    3    0    0  0.11438449340E+02 -0.14622652958E+01 -0.18328148683E+02  0.21654038364E+02  0.51100000000E-03 0. -1.
        -11    1    3    3    0    0  0.24498760309E+02 -0.59700945322E+01  0.28882221300E+01  0.25380565651E+02  0.51100000000E-03 0.  1.
        -12    1    3    3    0    0  0.47804513645E+00 -0.33391720189E+01  0.91170243446E+00  0.34942521737E+01  0.00000000000E+00 0.  1.
</event>
<event>
 7    1  0.5019004E-011  0.5052885E+02  0.7816164E-02  0.1300439E+00
        -11   -1    0    0    0    0  0.00000000000E+00  0.00000000000E+00  0.45593999997E+02  0.45594000000E+02  0.51100000000E-03 0. -1.
         11   -1    0    0    0    0 -0.00000000000E+00 -0.00000000000E+00 -0.45593999997E+02  0.45594000000E+02  0.51100000000E-03 0.  1.
    9900012    2    1    2    0    0  0.24903421275E+02  0.77402219151E+01  0.31194149839E+02  0.50528850837E+02  0.29999972605E+02 0.  0.
        -12    1    1    2    0    0 -0.24903421275E+02 -0.77402219151E+01 -0.31194149839E+02  0.40659149163E+02  0.00000000000E+00 0.  1.
         11    1    3    3    0    0  0.22311390695E+02 -0.19577676828E+01  0.13840533713E+02  0.26328527926E+02  0.51100000000E-03 0. -1.
        -11    1    3    3    0    0  0.34437328028E+01  0.85347726160E+01  0.19529927367E+02  0.21589805521E+02  0.51100000000E-03 0.  1.
        -12    1    3    3    0    0 -0.85170222337E+00  0.11632169818E+01 -0.21763112410E+01  0.26105173897E+01  0.00000000000E+00 0.  1.
</event>
<event>
 7    1  0.5019004E-011  0.5052886E+02  0.7816164E-02  0.1300439E+00
        -11   -1    0    0    0    0  0.00000000000E+00  0.00000000000E+00  0.45593999997E+02  0.45594000000E+02  0.51100000000E-03 0.  1.
         11   -1    0    0    0    0 -0.00000000000E+00 -0.00000000000E+00 -0.45593999997E+02  0.45594000000E+02  0.51100000000E-03 0. -1.
    9900012    2    1    2    0    0  0.11196418396E+02 -0.24342118199E+01 -0.39011290254E+02  0.50528856632E+02  0.29999990220E+02 0.  0.
        -12    1    1    2    0    0 -0.11196418396E+02  0.24342118199E+01  0.39011290254E+02  0.40659143368E+02  0.00000000000E+00 0.  1.
         11    1    3    3    0    0  0.11560261171E+02 -0.15773450250E+01 -0.33254849274E+02  0.35242199934E+02  0.51100000000E-03 0. -1.
        -11    1    3    3    0    0 -0.19614753508E+01  0.64124118452E+01 -0.30546469757E+01  0.73686687828E+01  0.51100000000E-03 0.  1.
         12    1    3    3    0    0  0.15976325749E+01 -0.72692786401E+01 -0.27017940051E+01  0.79179879160E+01  0.00000000000E+00 0. -1.
</event>
<event>
 7    1  0.5019004E-011  0.5052887E+02  0.7816164E-02  0.1300439E+00
        -11   -1    0    0    0    0  0.00000000000E+00  0.00000000000E+00  0.45593999997E+02  0.45594000000E+02  0.51100000000E-03 0.  1.
         11   -1    0    0    0    0 -0.00000000000E+00 -0.00000000000E+00 -0.45593999997E+02  0.45594000000E+02  0.51100000000E-03 0. -1.
    9900012    2    1    2    0    0 -0.23755253308E+02  0.28041387334E+01 -0.32878410048E+02  0.50528866942E+02  0.30000021556E+02 0.  0.
        -12    1    1    2    0    0  0.23755253308E+02 -0.28041387334E+01  0.32878410048E+02  0.40659133058E+02  0.00000000000E+00 0.  1.
         11    1    3    3    0    0 -0.15839807242E+02  0.78519130334E+01 -0.14195812027E+02  0.22673180436E+02  0.51100000000E-03 0. -1.
        -11    1    3    3    0    0  0.22651493835E+00 -0.69392407007E+01  0.46969750571E+00  0.69588064011E+01  0.51100000000E-03 0.  1.
         12    1    3    3    0    0 -0.81419610047E+01  0.18914664008E+01 -0.19152295527E+02  0.20896880104E+02  0.00000000000E+00 0. -1.
</event>
<event>
 7    1  0.5019004E-011  0.5052884E+02  0.7816164E-02  0.1300439E+00
        -11   -1    0    0    0    0  0.00000000000E+00  0.00000000000E+00  0.45593999997E+02  0.45594000000E+02  0.51100000000E-03 0.  1.
         11   -1    0    0    0    0 -0.00000000000E+00 -0.00000000000E+00 -0.45593999997E+02  0.45594000000E+02  0.51100000000E-03 0. -1.
    9900012    2    1    2    0    0  0.95231158984E+01  0.23143584791E+02 -0.32044537378E+02  0.50528835853E+02  0.29999927058E+02 0.  0.
        -12    1    1    2    0    0 -0.95231158984E+01 -0.23143584791E+02  0.32044537378E+02  0.40659164147E+02  0.00000000000E+00 0.  1.
         11    1    3    3    0    0  0.11296076916E+02  0.75046465402E+01 -0.18666530909E+02  0.23072937607E+02  0.51100000000E-03 0. -1.
        -11    1    3    3    0    0 -0.76865756516E+01  0.13887018761E+02 -0.14119710776E+02  0.21243798342E+02  0.51100000000E-03 0.  1.
        -12    1    3    3    0    0  0.59136146342E+01  0.17519194897E+01  0.74170430696E+00  0.62120999041E+01  0.00000000000E+00 0.  1.
</event>
<event>
 7    1  0.5019004E-011  0.5052886E+02  0.7816164E-02  0.1300439E+00
        -11   -1    0    0    0    0  0.00000000000E+00  0.00000000000E+00  0.45593999997E+02  0.45594000000E+02  0.51100000000E-03 0. -1.
         11   -1    0    0    0    0 -0.00000000000E+00 -0.00000000000E+00 -0.45593999997E+02  0.45594000000E+02  0.51100000000E-03 0.  1.
    9900012    2    1    2    0    0  0.24041972379E+02  0.32097466578E+02  0.67008721694E+01  0.50528862227E+02  0.30000007225E+02 0.  0.
        -12    1    1    2    0    0 -0.24041972379E+02 -0.32097466578E+02 -0.67008721694E+01  0.40659137773E+02  0.00000000000E+00 0.  1.
         11    1    3    3    0    0  0.19516086595E+02  0.32165380911E+02  0.12979525654E+02  0.39798962946E+02  0.51100000000E-03 0. -1.
        -11    1    3    3    0    0 -0.19692902284E+01 -0.73583245694E+00 -0.97257648605E+00  0.23163459782E+01  0.51100000000E-03 0.  1.
         12    1    3    3    0    0  0.64951760130E+01  0.66791812364E+00 -0.53060769981E+01  0.84135533022E+01  0.00000000000E+00 0. -1.
</event>
<event>
 7    1  0.5019004E-011  0.5052884E+02  0.7816164E-02  0.1300439E+00
        -11   -1    0    0    0    0  0.00000000000E+00  0.00000000000E+00  0.45593999997E+02  0.45594000000E+02  0.51100000000E-03 0.  1.
         11   -1    0    0    0    0 -0.00000000000E+00 -0.00000000000E+00 -0.45593999997E+02  0.45594000000E+02  0.51100000000E-03 0. -1.
    9900012    2    1    2    0    0  0.24794242886E+02  0.26661935473E+02 -0.18098443274E+02  0.50528844421E+02  0.29999953101E+02 0.  0.
        -12    1    1    2    0    0 -0.24794242886E+02 -0.26661935473E+02  0.18098443274E+02  0.40659155579E+02  0.00000000000E+00 0.  1.
         11    1    3    3    0    0  0.90440156947E+01  0.76378799716E+01  0.18753893463E+01  0.11985345878E+02  0.51100000000E-03 0. -1.
        -11    1    3    3    0    0  0.55069130839E+00 -0.40378508057E+01 -0.68344574486E+01  0.79572174109E+01  0.51100000000E-03 0.  1.
         12    1    3    3    0    0  0.15199535883E+02  0.23061906307E+02 -0.13139375171E+02  0.30586281132E+02  0.00000000000E+00 0. -1.
</event>
<event>
 7    1  0.5019004E-011  0.5052886E+02  0.7816164E-02  0.1300439E+00
        -11   -1    0    0    0    0  0.00000000000E+00  0.00000000000E+00  0.45593999997E+02  0.45594000000E+02  0.51100000000E-03 0.  1.
         11   -1    0    0    0    0 -0.00000000000E+00 -0.00000000000E+00 -0.45593999997E+02  0.45594000000E+02  0.51100000000E-03 0. -1.
    9900012    2    1    2    0    0 -0.39209444695E+02 -0.69674706712E+01  0.81999802545E+01  0.50528857399E+02  0.29999992551E+02 0.  0.
        -12    1    1    2    0    0  0.39209444695E+02  0.69674706712E+01 -0.81999802545E+01  0.40659142601E+02  0.00000000000E+00 0.  1.
         11    1    3    3    0    0 -0.35829813804E+02  0.28591313641E+01  0.34153145691E+01  0.36105602935E+02  0.51100000000E-03 0. -1.
        -11    1    3    3    0    0 -0.11816621780E+01 -0.42324203437E+01  0.67892944200E+01  0.80872879540E+01  0.51100000000E-03 0.  1.
         12    1    3    3    0    0 -0.21979687129E+01 -0.55941816916E+01 -0.20046287346E+01  0.63359665107E+01  0.00000000000E+00 0. -1.
</event>
<event>
 7    1  0.5019004E-011  0.5052886E+02  0.7816164E-02  0.1300439E+00
        -11   -1    0    0    0    0  0.00000000000E+00  0.00000000000E+00  0.45593999997E+02  0.45594000000E+02  0.51100000000E-03 0. -1.
         11   -1    0    0    0    0 -0.00000000000E+00 -0.00000000000E+00 -0.45593999997E+02  0.45594000000E+02  0.51100000000E-03 0.  1.
    9900012    2    1    2    0    0  0.53507994008E+00  0.34884985976E+02  0.20878626891E+02  0.50528860585E+02  0.30000002235E+02 0.  0.
        -12    1    1    2    0    0 -0.53507994008E+00 -0.34884985976E+02 -0.20878626891E+02  0.40659139415E+02  0.00000000000E+00 0.  1.
         11    1    3    3    0    0  0.53375064524E+00 -0.17474212130E+01  0.12254529873E+01  0.22000240753E+01  0.51100000000E-03 0. -1.
        -11    1    3    3    0    0 -0.12100953015E+02  0.22016627125E+02  0.12369619183E+02  0.28003078631E+02  0.51100000000E-03 0.  1.
        -12    1    3    3    0    0  0.12102282310E+02  0.14615780064E+02  0.72835547206E+01  0.20325757879E+02  0.00000000000E+00 0.  1.
</event>
<event>
 7    1  0.5019004E-011  0.5052887E+02  0.7816164E-02  0.1300439E+00
        -11   -1    0    0    0    0  0.00000000000E+00  0.00000000000E+00  0.45593999997E+02  0.45594000000E+02  0.51100000000E-03 0.  1.
         11   -1    0    0    0    0 -0.00000000000E+00 -0.00000000000E+00 -0.45593999997E+02  0.45594000000E+02  0.51100000000E-03 0. -1.
    9900012    2    1    2    0    0  0.39559749611E+02 -0.93256473730E+01 -0.11062388358E+01  0.50528865078E+02  0.30000015892E+02 0.  0.
        -12    1    1    2    0    0 -0.39559749611E+02  0.93256473730E+01  0.11062388358E+01  0.40659134922E+02  0.00000000000E+00 0.  1.
         11    1    3    3    0    0  0.18991677662E+02  0.45524044457E+01 -0.74105442922E+01  0.20888378913E+02  0.51100000000E-03 0. -1.
        -11    1    3    3    0    0  0.20463857296E+02 -0.85740087925E+01  0.86837225786E+01  0.23826248557E+02  0.51100000000E-03 0.  1.
        -12    1    3    3    0    0  0.10421465228E+00 -0.53040430263E+01 -0.23794171221E+01  0.58142376077E+01  0.00000000000E+00 0.  1.
</event>
<event>
 7    1  0.5019004E-011  0.5052886E+02  0.7816164E-02  0.1300439E+00
        -11   -1    0    0    0    0  0.00000000000E+00  0.00000000000E+00  0.45593999997E+02  0.45594000000E+02  0.51100000000E-03 0.  1.
         11   -1    0    0    0    0 -0.00000000000E+00 -0.00000000000E+00 -0.45593999997E+02  0.45594000000E+02  0.51100000000E-03 0. -1.
    9900012    2    1    2    0    0 -0.25784598687E+02  0.98913427359E+00 -0.31421993360E+02  0.50528861018E+02  0.30000003549E+02 0.  0.
        -12    1    1    2    0    0  0.25784598687E+02 -0.98913427359E+00  0.31421993360E+02  0.40659138982E+02  0.00000000000E+00 0.  1.
         11    1    3    3    0    0 -0.11198004756E+02  0.37922960412E+01 -0.99987639839E+00  0.11864930377E+02  0.51100000000E-03 0. -1.
        -11    1    3    3    0    0 -0.80645157857E+01 -0.10674748034E+02 -0.20026824970E+02  0.24084442678E+02  0.51100000000E-03 0.  1.
        -12    1    3    3    0    0 -0.65220781460E+01  0.78715862662E+01 -0.10395291991E+02  0.14579487963E+02  0.00000000000E+00 0.  1.
</event>
<event>
 7    1  0.5019004E-011  0.5052886E+02  0.7816164E-02  0.1300439E+00
        -11   -1    0    0    0    0  0.00000000000E+00  0.00000000000E+00  0.45593999997E+02  0.45594000000E+02  0.51100000000E-03 0.  1.
         11   -1    0    0    0    0 -0.00000000000E+00 -0.00000000000E+00 -0.45593999997E+02  0.45594000000E+02  0.51100000000E-03 0. -1.
    9900012    2    1    2    0    0 -0.13436452797E+02 -0.97894408611E+01 -0.37105182319E+02  0.50528856242E+02  0.29999989034E+02 0.  0.
        -12    1    1    2    0    0  0.13436452797E+02  0.97894408611E+01  0.37105182319E+02  0.40659143758E+02  0.00000000000E+00 0.  1.
         11    1    3    3    0    0 -0.15685064334E+02  0.65429051295E+01 -0.18185467136E+02  0.24890601959E+02  0.51100000000E-03 0. -1.
        -11    1    3    3    0    0  0.28704137757E+01 -0.84543035163E+01 -0.12971836947E+02  0.15747478440E+02  0.51100000000E-03 0.  1.
        -12    1    3    3    0    0 -0.62180223879E+00 -0.78780424743E+01 -0.59478782368E+01  0.98907758427E+01  0.00000000000E+00 0.  1.
</event>
<event>
 7    1  0.5019004E-011  0.5052886E+02  0.7816164E-02  0.1300439E+00
        -11   -1    0    0    0    0  0.00000000000E+00  0.00000000000E+00  0.45593999997E+02  0.45594000000E+02  0.51100000000E-03 0. -1.
         11   -1    0    0    0    0 -0.00000000000E+00 -0.00000000000E+00 -0.45593999997E+02  0.45594000000E+02  0.51100000000E-03 0.  1.
    9900012    2    1    2    0    0 -0.38040489296E+02 -0.14224156834E+02 -0.19391788579E+01  0.50528857386E+02  0.29999992510E+02 0.  0.
        -12    1    1    2    0    0  0.38040489296E+02  0.14224156834E+02  0.19391788579E+01  0.40659142614E+02  0.00000000000E+00 0.  1.
         11    1    3    3    0    0 -0.28057830415E+02 -0.12055365303E+02 -0.30169014792E+01  0.30686729624E+02  0.51100000000E-03 0. -1.
        -11    1    3    3    0    0 -0.30650265079E+01 -0.61431789428E+01  0.70771831119E+01  0.98599977727E+01  0.51100000000E-03 0.  1.
         12    1    3    3    0    0 -0.69176323725E+01  0.39743874127E+01 -0.59994604907E+01  0.99821299895E+01  0.00000000000E+00 0. -1.
</event>
<event>
 7    1  0.5019004E-011  0.5052886E+02  0.7816164E-02  0.1300439E+00
        -11   -1    0    0    0    0  0.00000000000E+00  0.00000000000E+00  0.45593999997E+02  0.45594000000E+02  0.51100000000E-03 0. -1.
         11   -1    0    0    0    0 -0.00000000000E+00 -0.00000000000E+00 -0.45593999997E+02  0.45594000000E+02  0.51100000000E-03 0.  1.
    9900012    2    1    2    0    0 -0.16843705985E+02  0.17372343730E+02  0.32675015772E+02  0.50528863097E+02  0.30000009870E+02 0.  0.
        -12    1    1    2    0    0  0.16843705985E+02 -0.17372343730E+02 -0.32675015772E+02  0.40659136903E+02  0.00000000000E+00 0.  1.
         11    1    3    3    0    0 -0.18845560842E+00  0.79281816483E+00  0.50640166964E+01  0.51291657725E+01  0.51100000000E-03 0. -1.
        -11    1    3    3    0    0  0.44342371217E+01 -0.12587296128E+01 -0.18935960004E+01  0.49832283876E+01  0.51100000000E-03 0.  1.
        -12    1    3    3    0    0 -0.21089487499E+02  0.17838255178E+02  0.29504595076E+02  0.40416468937E+02  0.00000000000E+00 0.  1.
</event>
<event>
 7    1  0.5019004E-011  0.5052891E+02  0.7816164E-02  0.1300439E+00
        -11   -1    0    0    0    0  0.00000000000E+00  0.00000000000E+00  0.45593999997E+02  0.45594000000E+02  0.51100000000E-03 0. -1.
         11   -1    0    0    0    0 -0.00000000000E+00 -0.00000000000E+00 -0.45593999997E+02  0.45594000000E+02  0.51100000000E-03 0.  1.
    9900012    2    1    2    0    0  0.31900032823E+02  0.20202174686E+02  0.15080510995E+02  0.50528907929E+02  0.30000146140E+02 0.  0.
        -12    1    1    2    0    0 -0.31900032823E+02 -0.20202174686E+02 -0.15080510995E+02  0.40659092071E+02  0.00000000000E+00 0.  1.
         11    1    3    3    0    0  0.39983781171E+01  0.11877038848E+02 -0.50943580842E+01  0.13527880984E+02  0.51100000000E-03 0.  1.
        -11    1    3    3    0    0  0.20942670198E+02  0.19779399439E+01  0.17048429564E+02  0.27076865260E+02  0.51100000000E-03 0. -1.
         12    1    3    3    0    0  0.69589845082E+01  0.63471958938E+01  0.31264395155E+01  0.99241616847E+01  0.00000000000E+00 0. -1.
</event>
<event>
 7    1  0.5019004E-011  0.5052885E+02  0.7816164E-02  0.1300439E+00
        -11   -1    0    0    0    0  0.00000000000E+00  0.00000000000E+00  0.45593999997E+02  0.45594000000E+02  0.51100000000E-03 0.  1.
         11   -1    0    0    0    0 -0.00000000000E+00 -0.00000000000E+00 -0.45593999997E+02  0.45594000000E+02  0.51100000000E-03 0. -1.
    9900012    2    1    2    0    0  0.15189437695E+02 -0.33135530893E+02 -0.18013450019E+02  0.50528845967E+02  0.29999957802E+02 0.  0.
        -12    1    1    2    0    0 -0.15189437695E+02  0.33135530893E+02  0.18013450019E+02  0.40659154033E+02  0.00000000000E+00 0.  1.
         11    1    3    3    0    0  0.14105348412E+02 -0.50878848219E+01  0.21725788016E+01  0.15151485890E+02  0.51100000000E-03 0. -1.
        -11    1    3    3    0    0 -0.21154236299E+01 -0.24234884584E+01 -0.25764165237E+01  0.41214361339E+01  0.51100000000E-03 0.  1.
         12    1    3    3    0    0  0.31995129132E+01 -0.25624157613E+02 -0.17609612297E+02  0.31255923943E+02  0.00000000000E+00 0. -1.
</event>
<event>
 7    1  0.5019004E-011  0.5052884E+02  0.7816164E-02  0.1300439E+00
        -11   -1    0    0    0    0  0.00000000000E+00  0.00000000000E+00  0.45593999997E+02  0.45594000000E+02  0.51100000000E-03 0. -1.
         11   -1    0    0    0    0 -0.00000000000E+00 -0.00000000000E+00 -0.45593999997E+02  0.45594000000E+02  0.51100000000E-03 0.  1.
    9900012    2    1    2    0    0  0.77659756044E+01 -0.17353191798E+02  0.35940551987E+02  0.50528844576E+02  0.29999953574E+02 0.  0.
        -12    1    1    2    0    0 -0.77659756044E+01  0.17353191798E+02 -0.35940551987E+02  0.40659155424E+02  0.00000000000E+00 0.  1.
         11    1    3    3    0    0  0.14045953165E+02 -0.72822640756E+01  0.22623376487E+02  0.27606834920E+02  0.51100000000E-03 0. -1.
        -11    1    3    3    0    0 -0.71815730455E-01 -0.26702365311E+01 -0.29645002088E+01  0.39904363646E+01  0.51100000000E-03 0.  1.
        -12    1    3    3    0    0 -0.62081618296E+01 -0.74006911916E+01  0.16281675708E+02  0.18931573291E+02  0.00000000000E+00 0.  1.
</event>
<event>
 7    1  0.5019004E-011  0.5052886E+02  0.7816164E-02  0.1300439E+00
        -11   -1    0    0    0    0  0.00000000000E+00  0.00000000000E+00  0.45593999997E+02  0.45594000000E+02  0.51100000000E-03 0.  1.
         11   -1    0    0    0    0 -0.00000000000E+00 -0.00000000000E+00 -0.45593999997E+02  0.45594000000E+02  0.51100000000E-03 0. -1.
    9900012    2    1    2    0    0  0.25045364116E+02  0.19480006367E+01 -0.31970309830E+02  0.50528859812E+02  0.29999999884E+02 0.  0.
        -12    1    1    2    0    0 -0.25045364116E+02 -0.19480006367E+01  0.31970309830E+02  0.40659140188E+02  0.00000000000E+00 0.  1.
         11    1    3    3    0    0  0.28858197529E+02  0.53689219432E+01 -0.18804289946E+02  0.34860037408E+02  0.51100000000E-03 0. -1.
        -11    1    3    3    0    0 -0.13852085996E+01 -0.17882459094E+01 -0.83882760679E-01  0.22635509439E+01  0.51100000000E-03 0.  1.
         12    1    3    3    0    0 -0.24276248132E+01 -0.16326753971E+01 -0.13082137124E+02  0.13405271460E+02  0.00000000000E+00 0. -1.
</event>
<event>
 7    1  0.5019004E-011  0.5052883E+02  0.7816164E-02  0.1300439E+00
        -11   -1    0    0    0    0  0.00000000000E+00  0.00000000000E+00  0.45593999997E+02  0.45594000000E+02  0.51100000000E-03 0.  1.
         11   -1    0    0    0    0 -0.00000000000E+00 -0.00000000000E+00 -0.45593999997E+02  0.45594000000E+02  0.51100000000E-03 0. -1.
    9900012    2    1    2    0    0 -0.28341404334E+02 -0.64379550652E+01 -0.28433883062E+02  0.50528829189E+02  0.29999906802E+02 0.  0.
        -12    1    1    2    0    0  0.28341404334E+02  0.64379550652E+01  0.28433883062E+02  0.40659170811E+02  0.00000000000E+00 0.  1.
         11    1    3    3    0    0 -0.22521406188E+01 -0.19004439362E+01 -0.11728748329E+02  0.12093277560E+02  0.51100000000E-03 0. -1.
        -11    1    3    3    0    0 -0.25874225657E+02 -0.49687165712E+01 -0.51193315060E+01  0.26839732731E+02  0.51100000000E-03 0.  1.
        -12    1    3    3    0    0 -0.21503805828E+00  0.43120544226E+00 -0.11585803227E+02  0.11595818898E+02  0.00000000000E+00 0.  1.
</event>
<event>
 7    1  0.5019004E-011  0.5052884E+02  0.7816164E-02  0.1300439E+00
        -11   -1    0    0    0    0  0.00000000000E+00  0.00000000000E+00  0.45593999997E+02  0.45594000000E+02  0.51100000000E-03 0. -1.
         11   -1    0    0    0    0 -0.00000000000E+00 -0.00000000000E+00 -0.45593999997E+02  0.45594000000E+02  0.51100000000E-03 0.  1.
    9900012    2    1    2    0    0 -0.38657992595E+02  0.12103116484E+02  0.34987417039E+01  0.50528843422E+02  0.29999950066E+02 0.  0.
        -12    1    1    2    0    0  0.38657992595E+02 -0.12103116484E+02 -0.34987417039E+01  0.40659156578E+02  0.00000000000E+00 0.  1.
         11    1    3    3    0    0 -0.31249725148E+02  0.25918403238E+00 -0.41814711935E+01  0.31529306999E+02  0.51100000000E-03 0. -1.
        -11    1    3    3    0    0 -0.79944888467E+01  0.13447992017E+02  0.66085659017E+01  0.16983329613E+02  0.51100000000E-03 0.  1.
        -12    1    3    3    0    0  0.58622140011E+00 -0.16040595654E+01  0.10716469957E+01  0.20162068105E+01  0.00000000000E+00 0.  1.
</event>
<event>
 7    1  0.5019004E-011  0.5052886E+02  0.7816164E-02  0.1300439E+00
        -11   -1    0    0    0    0  0.00000000000E+00  0.00000000000E+00  0.45593999997E+02  0.45594000000E+02  0.51100000000E-03 0.  1.
         11   -1    0    0    0    0 -0.00000000000E+00 -0.00000000000E+00 -0.45593999997E+02  0.45594000000E+02  0.51100000000E-03 0. -1.
    9900012    2    1    2    0    0  0.33597817450E+02 -0.21143586566E+02 -0.87921042685E+01  0.50528859727E+02  0.29999999627E+02 0.  0.
        -12    1    1    2    0    0 -0.33597817450E+02  0.21143586566E+02  0.87921042685E+01  0.40659140273E+02  0.00000000000E+00 0.  1.
         11    1    3    3    0    0 -0.23978012261E+01 -0.25033567470E+01 -0.59064767048E+01  0.68485555446E+01  0.51100000000E-03 0. -1.
        -11    1    3    3    0    0  0.11305724444E+02 -0.12442267747E+02  0.40578311378E+01  0.17294375551E+02  0.51100000000E-03 0.  1.
        -12    1    3    3    0    0  0.24689894232E+02 -0.61979620721E+01 -0.69434587015E+01  0.26385928632E+02  0.00000000000E+00 0.  1.
</event>
<event>
 7    1  0.5019004E-011  0.5052886E+02  0.7816164E-02  0.1300439E+00
        -11   -1    0    0    0    0  0.00000000000E+00  0.00000000000E+00  0.45593999997E+02  0.45594000000E+02  0.51100000000E-03 0.  1.
         11   -1    0    0    0    0 -0.00000000000E+00 -0.00000000000E+00 -0.45593999997E+02  0.45594000000E+02  0.51100000000E-03 0. -1.
    9900012    2    1    2    0    0  0.29924048998E+02  0.27523883487E+02  0.39088662363E+00  0.50528860031E+02  0.30000000551E+02 0.  0.
        -12    1    1    2    0    0 -0.29924048998E+02 -0.27523883487E+02 -0.39088662363E+00  0.40659139969E+02  0.00000000000E+00 0.  1.
         11    1    3    3    0    0  0.11475177588E+02  0.22693327363E+02  0.32001543955E+01  0.25630212561E+02  0.51100000000E-03 0. -1.
        -11    1    3    3    0    0  0.89148745546E+01  0.23049406408E+01 -0.93034330781E+01  0.13089751983E+02  0.51100000000E-03 0.  1.
         12    1    3    3    0    0  0.95339968554E+01  0.25256154830E+01  0.64941653063E+01  0.11808895487E+02  0.00000000000E+00 0. -1.
</event>
<event>
 7    1  0.5019004E-011  0.5052885E+02  0.7816164E-02  0.1300439E+00
        -11   -1    0    0    0    0  0.00000000000E+00  0.00000000000E+00  0.45593999997E+02  0.45594000000E+02  0.51100000000E-03 0.  1.
         11   -1    0    0    0    0 -0.00000000000E+00 -0.00000000000E+00 -0.45593999997E+02  0.45594000000E+02  0.51100000000E-03 0. -1.
    9900012    2    1    2    0    0  0.24210259788E+02 -0.30867923201E+02 -0.10686477933E+02  0.50528853767E+02  0.29999981511E+02 0.  0.
        -12    1    1    2    0    0 -0.24210259788E+02  0.30867923201E+02  0.10686477933E+02  0.40659146233E+02  0.00000000000E+00 0.  1.
         11    1    3    3    0    0  0.13616289577E+02 -0.92456321814E+01 -0.13509419703E+02  0.21292944307E+02  0.51100000000E-03 0. -1.
        -11    1    3    3    0    0 -0.29139081783E+01 -0.11511791618E+02  0.34045903885E+01  0.12353276614E+02  0.51100000000E-03 0.  1.
         12    1    3    3    0    0  0.13507878389E+02 -0.10110499402E+02 -0.58164861894E+00  0.16882632847E+02  0.00000000000E+00 0. -1.
</event>
<event>
 7    1  0.5019004E-011  0.5052886E+02  0.7816164E-02  0.1300439E+00
        -11   -1    0    0    0    0  0.00000000000E+00  0.00000000000E+00  0.45593999997E+02  0.45594000000E+02  0.51100000000E-03 0.  1.
         11   -1    0    0    0    0 -0.00000000000E+00 -0.00000000000E+00 -0.45593999997E+02  0.45594000000E+02  0.51100000000E-03 0. -1.
    9900012    2    1    2    0    0  0.38742183345E+02  0.24275908935E+01 -0.12096109684E+02  0.50528857887E+02  0.29999994033E+02 0.  0.
        -12    1    1    2    0    0 -0.38742183345E+02 -0.24275908935E+01  0.12096109684E+02  0.40659142113E+02  0.00000000000E+00 0.  1.
         11    1    3    3    0    0  0.10412732616E+02  0.64821494502E+01 -0.14485840029E+02  0.18981117555E+02  0.51100000000E-03 0.  1.
        -11    1    3    3    0    0  0.12943619055E+02 -0.84398466484E+01  0.14919998584E+01  0.15523992706E+02  0.51100000000E-03 0. -1.
         12    1    3    3    0    0  0.15385831674E+02  0.43852880916E+01  0.89773048721E+00  0.16023747626E+02  0.00000000000E+00 0. -1.
</event>
<event>
 7    1  0.5019004E-011  0.5052886E+02  0.7816164E-02  0.1300439E+00
        -11   -1    0    0    0    0  0.00000000000E+00  0.00000000000E+00  0.45593999997E+02  0.45594000000E+02  0.51100000000E-03 0.  1.
         11   -1    0    0    0    0 -0.00000000000E+00 -0.00000000000E+00 -0.45593999997E+02  0.45594000000E+02  0.51100000000E-03 0. -1.
    9900012    2    1    2    0    0  0.23380493741E+02 -0.22439086071E+02 -0.24556170102E+02  0.50528861281E+02  0.30000004351E+02 0.  0.
        -12    1    1    2    0    0 -0.23380493741E+02  0.22439086071E+02  0.24556170102E+02  0.40659138719E+02  0.00000000000E+00 0.  1.
         11    1    3    3    0    0  0.18762717770E+01 -0.14179226113E+01 -0.29628167991E+01  0.37827482019E+01  0.51100000000E-03 0. -1.
        -11    1    3    3    0    0  0.17884899328E+02 -0.25891801606E+02 -0.24629456892E+02  0.39960795305E+02  0.51100000000E-03 0.  1.
        -12    1    3    3    0    0  0.36193226364E+01  0.48706381456E+01  0.30361035897E+01  0.67853177744E+01  0.00000000000E+00 0.  1.
</event>
<event>
 7    1  0.5019004E-011  0.5052888E+02  0.7816164E-02  0.1300439E+00
        -11   -1    0    0    0    0  0.00000000000E+00  0.00000000000E+00  0.45593999997E+02  0.45594000000E+02  0.51100000000E-03 0.  1.
         11   -1    0    0    0    0 -0.00000000000E+00 -0.00000000000E+00 -0.45593999997E+02  0.45594000000E+02  0.51100000000E-03 0. -1.
    9900012    2    1    2    0    0 -0.23699186111E+02 -0.80412293867E+01 -0.32044521468E+02  0.50528878656E+02  0.30000057162E+02 0.  0.
        -12    1    1    2    0    0  0.23699186111E+02  0.80412293867E+01  0.32044521468E+02  0.40659121344E+02  0.00000000000E+00 0.  1.
         11    1    3    3    0    0 -0.21826025701E+02 -0.33432804794E+01 -0.80233037376E+01  0.23493112296E+02  0.51100000000E-03 0. -1.
        -11    1    3    3    0    0  0.21010554041E+01  0.18102042259E+01 -0.12882915801E+01  0.30579353504E+01  0.51100000000E-03 0.  1.
         12    1    3    3    0    0 -0.39742158145E+01 -0.65081531332E+01 -0.22732926150E+02  0.23977831009E+02  0.00000000000E+00 0. -1.
</event>
<event>
 7    1  0.5019004E-011  0.5052885E+02  0.7816164E-02  0.1300439E+00
        -11   -1    0    0    0    0  0.00000000000E+00  0.00000000000E+00  0.45593999997E+02  0.45594000000E+02  0.51100000000E-03 0.  1.
         11   -1    0    0    0    0 -0.00000000000E+00 -0.00000000000E+00 -0.45593999997E+02  0.45594000000E+02  0.51100000000E-03 0. -1.
    9900012    2    1    2    0    0 -0.32053872047E+02  0.17241292927E+02 -0.18123279332E+02  0.50528854058E+02  0.29999982395E+02 0.  0.
        -12    1    1    2    0    0  0.32053872047E+02 -0.17241292927E+02  0.18123279332E+02  0.40659145942E+02  0.00000000000E+00 0.  1.
         11    1    3    3    0    0 -0.13302972989E+02  0.41754454851E+01 -0.43778064509E+01  0.14613987305E+02  0.51100000000E-03 0. -1.
        -11    1    3    3    0    0  0.25279781102E+01  0.58403860504E+01 -0.11739283673E+02  0.13353335313E+02  0.51100000000E-03 0.  1.
        -12    1    3    3    0    0 -0.21278877167E+02  0.72254613915E+01 -0.20061892080E+01  0.22561531441E+02  0.00000000000E+00 0.  1.
</event>
<event>
 7    1  0.5019004E-011  0.5052885E+02  0.7816164E-02  0.1300439E+00
        -11   -1    0    0    0    0  0.00000000000E+00  0.00000000000E+00  0.45593999997E+02  0.45594000000E+02  0.51100000000E-03 0. -1.
         11   -1    0    0    0    0 -0.00000000000E+00 -0.00000000000E+00 -0.45593999997E+02  0.45594000000E+02  0.51100000000E-03 0.  1.
    9900012    2    1    2    0    0 -0.15036685495E+02  0.36370157354E+02  0.10211555186E+02  0.50528854462E+02  0.29999983622E+02 0.  0.
        -12    1    1    2    0    0  0.15036685495E+02 -0.36370157354E+02 -0.10211555186E+02  0.40659145538E+02  0.00000000000E+00 0.  1.
         11    1    3    3    0    0 -0.11842620573E+02  0.22928202374E+02  0.27436299813E+00  0.25807467939E+02  0.51100000000E-03 0. -1.
        -11    1    3    3    0    0  0.74135001962E+01  0.58799321939E+01  0.28026158010E+01  0.98685481888E+01  0.51100000000E-03 0.  1.
         12    1    3    3    0    0 -0.10607565118E+02  0.75620227863E+01  0.71345763864E+01  0.14852838334E+02  0.00000000000E+00 0. -1.
</event>
<event>
 7    1  0.5019004E-011  0.5052885E+02  0.7816164E-02  0.1300439E+00
        -11   -1    0    0    0    0  0.00000000000E+00  0.00000000000E+00  0.45593999997E+02  0.45594000000E+02  0.51100000000E-03 0.  1.
         11   -1    0    0    0    0 -0.00000000000E+00 -0.00000000000E+00 -0.45593999997E+02  0.45594000000E+02  0.51100000000E-03 0. -1.
    9900012    2    1    2    0    0  0.37573368301E+02 -0.12791966510E+02 -0.88189588953E+01  0.50528850370E+02  0.29999971183E+02 0.  0.
        -12    1    1    2    0    0 -0.37573368301E+02  0.12791966510E+02  0.88189588953E+01  0.40659149630E+02  0.00000000000E+00 0.  1.
         11    1    3    3    0    0 -0.22631348726E+01  0.21406078929E+00 -0.43544071870E+01  0.49120732572E+01  0.51100000000E-03 0. -1.
        -11    1    3    3    0    0  0.32479472291E+02 -0.10144883865E+02 -0.10577141500E+02  0.35633000316E+02  0.51100000000E-03 0.  1.
        -12    1    3    3    0    0  0.73570308820E+01 -0.28611434343E+01  0.61125897916E+01  0.99837767960E+01  0.00000000000E+00 0.  1.
</event>
<event>
 7    1  0.5019004E-011  0.5052886E+02  0.7816164E-02  0.1300439E+00
        -11   -1    0    0    0    0  0.00000000000E+00  0.00000000000E+00  0.45593999997E+02  0.45594000000E+02  0.51100000000E-03 0.  1.
         11   -1    0    0    0    0 -0.00000000000E+00 -0.00000000000E+00 -0.45593999997E+02  0.45594000000E+02  0.51100000000E-03 0. -1.
    9900012    2    1    2    0    0 -0.40951558049E+01 -0.84225207858E+01 -0.39565851969E+02  0.50528858352E+02  0.29999995448E+02 0.  0.
        -12    1    1    2    0    0  0.40951558049E+01  0.84225207858E+01  0.39565851969E+02  0.40659141648E+02  0.00000000000E+00 0.  1.
         11    1    3    3    0    0 -0.53107829739E+01 -0.22147253304E+01 -0.19158195640E+02  0.20003646781E+02  0.51100000000E-03 0. -1.
        -11    1    3    3    0    0  0.57981536485E+01 -0.12292916426E+02 -0.74639218200E+01  0.15506273220E+02  0.51100000000E-03 0.  1.
        -12    1    3    3    0    0 -0.45825264796E+01  0.60851209703E+01 -0.12943734510E+02  0.15018938352E+02  0.00000000000E+00 0.  1.
</event>
<event>
 7    1  0.5019004E-011  0.5052896E+02  0.7816164E-02  0.1300438E+00
        -11   -1    0    0    0    0  0.00000000000E+00  0.00000000000E+00  0.45593999997E+02  0.45594000000E+02  0.51100000000E-03 0.  1.
         11   -1    0    0    0    0 -0.00000000000E+00 -0.00000000000E+00 -0.45593999997E+02  0.45594000000E+02  0.51100000000E-03 0. -1.
    9900012    2    1    2    0    0 -0.93771694035E+01 -0.55830886094E+01 -0.39167018502E+02  0.50528960135E+02  0.30000304824E+02 0.  0.
        -12    1    1    2    0    0  0.93771694035E+01  0.55830886094E+01  0.39167018502E+02  0.40659039865E+02  0.00000000000E+00 0.  1.
         11    1    3    3    0    0 -0.31875125101E+01 -0.10787555915E+02 -0.32411980287E+01  0.11706278808E+02  0.51100000000E-03 0. -1.
        -11    1    3    3    0    0 -0.37619361405E+01  0.89746227943E+01 -0.28836772773E+02  0.30434445651E+02  0.51100000000E-03 0.  1.
         12    1    3    3    0    0 -0.24277207529E+01 -0.37701554890E+01 -0.70890477000E+01  0.83882356761E+01  0.00000000000E+00 0. -1.
</event>
<event>
 7    1  0.5019004E-011  0.5052886E+02  0.7816164E-02  0.1300439E+00
        -11   -1    0    0    0    0  0.00000000000E+00  0.00000000000E+00  0.45593999997E+02  0.45594000000E+02  0.51100000000E-03 0.  1.
         11   -1    0    0    0    0 -0.00000000000E+00 -0.00000000000E+00 -0.45593999997E+02  0.45594000000E+02  0.51100000000E-03 0. -1.
    9900012    2    1    2    0    0 -0.19239974215E+01  0.21318656433E+02 -0.34568464030E+02  0.50528861008E+02  0.30000003521E+02 0.  0.
        -12    1    1    2    0    0  0.19239974215E+01 -0.21318656433E+02  0.34568464030E+02  0.40659138992E+02  0.00000000000E+00 0.  1.
         11    1    3    3    0    0 -0.51145577402E+01  0.80523941631E+01 -0.35097440036E+02  0.36370730677E+02  0.51100000000E-03 0. -1.
        -11    1    3    3    0    0  0.23915512917E+01  0.38045392213E+01 -0.81814824287E+00  0.45676474334E+01  0.51100000000E-03 0.  1.
         12    1    3    3    0    0  0.79900902700E+00  0.94617230487E+01  0.13471242492E+01  0.95904828980E+01  0.00000000000E+00 0. -1.
</event>
<event>
 7    1  0.5019004E-011  0.5052882E+02  0.7816164E-02  0.1300439E+00
        -11   -1    0    0    0    0  0.00000000000E+00  0.00000000000E+00  0.45593999997E+02  0.45594000000E+02  0.51100000000E-03 0. -1.
         11   -1    0    0    0    0 -0.00000000000E+00 -0.00000000000E+00 -0.45593999997E+02  0.45594000000E+02  0.51100000000E-03 0.  1.
    9900012    2    1    2    0    0 -0.20485695211E+02 -0.34813723684E+02  0.46378523296E+01  0.50528822202E+02  0.29999885565E+02 0.  0.
        -12    1    1    2    0    0  0.20485695211E+02  0.34813723684E+02 -0.46378523296E+01  0.40659177798E+02  0.00000000000E+00 0.  1.
         11    1    3    3    0    0  0.14621797549E+01  0.72322233007E+00 -0.67893186882E-01  0.16326756935E+01  0.51100000000E-03 0. -1.
        -11    1    3    3    0    0 -0.19201089357E+02 -0.11152008210E+02  0.90450540750E+01  0.23976282512E+02  0.51100000000E-03 0.  1.
        -12    1    3    3    0    0 -0.27467856089E+01 -0.24384937803E+02 -0.43393085585E+01  0.24919863997E+02  0.00000000000E+00 0.  1.
</event>
<event>
 7    1  0.5019004E-011  0.5052886E+02  0.7816164E-02  0.1300439E+00
        -11   -1    0    0    0    0  0.00000000000E+00  0.00000000000E+00  0.45593999997E+02  0.45594000000E+02  0.51100000000E-03 0.  1.
         11   -1    0    0    0    0 -0.00000000000E+00 -0.00000000000E+00 -0.45593999997E+02  0.45594000000E+02  0.51100000000E-03 0. -1.
    9900012    2    1    2    0    0 -0.31631079102E+02  0.15223759448E+02 -0.20515293223E+02  0.50528864828E+02  0.30000015131E+02 0.  0.
        -12    1    1    2    0    0  0.31631079102E+02 -0.15223759448E+02  0.20515293223E+02  0.40659135172E+02  0.00000000000E+00 0.  1.
         11    1    3    3    0    0 -0.14494278788E+02  0.27595131641E+01 -0.12442634708E+02  0.19300730277E+02  0.51100000000E-03 0. -1.
        -11    1    3    3    0    0 -0.49962350147E+01  0.13221683730E+02  0.33671675801E+01  0.14529731682E+02  0.51100000000E-03 0.  1.
        -12    1    3    3    0    0 -0.12140565300E+02 -0.75743744620E+00 -0.11439826095E+02  0.16698402869E+02  0.00000000000E+00 0.  1.
</event>
<event>
 7    1  0.5019004E-011  0.5052891E+02  0.7816164E-02  0.1300439E+00
        -11   -1    0    0    0    0  0.00000000000E+00  0.00000000000E+00  0.45593999997E+02  0.45594000000E+02  0.51100000000E-03 0. -1.
         11   -1    0    0    0    0 -0.00000000000E+00 -0.00000000000E+00 -0.45593999997E+02  0.45594000000E+02  0.51100000000E-03 0.  1.
    9900012    2    1    2    0    0  0.13677582044E+02 -0.21305606307E+02  0.31814407972E+02  0.50528909192E+02  0.30000149980E+02 0.  0.
        -12    1    1    2    0    0 -0.13677582044E+02  0.21305606307E+02 -0.31814407972E+02  0.40659090808E+02  0.00000000000E+00 0.  1.
         11    1    3    3    0    0  0.13213120489E+02 -0.24858570181E+02  0.18918673598E+02  0.33918302957E+02  0.51100000000E-03 0. -1.
        -11    1    3    3    0    0  0.40056208325E+00  0.25011415242E+01 -0.96445872085E+00  0.27104132143E+01  0.51100000000E-03 0.  1.
         12    1    3    3    0    0  0.63899472415E-01  0.10518223499E+01  0.13860193095E+02  0.13900193021E+02  0.00000000000E+00 0. -1.
</event>
<event>
 7    1  0.5019004E-011  0.5052886E+02  0.7816164E-02  0.1300439E+00
        -11   -1    0    0    0    0  0.00000000000E+00  0.00000000000E+00  0.45593999997E+02  0.45594000000E+02  0.51100000000E-03 0.  1.
         11   -1    0    0    0    0 -0.00000000000E+00 -0.00000000000E+00 -0.45593999997E+02  0.45594000000E+02  0.51100000000E-03 0. -1.
    9900012    2    1    2    0    0 -0.13254234412E+02 -0.30712586463E+02  0.23113364820E+02  0.50528864122E+02  0.30000012984E+02 0.  0.
        -12    1    1    2    0    0  0.13254234412E+02  0.30712586463E+02 -0.23113364820E+02  0.40659135878E+02  0.00000000000E+00 0.  1.
         11    1    3    3    0    0 -0.18943408033E+02 -0.10522132484E+02  0.62890226082E+01  0.22563682890E+02  0.51100000000E-03 0. -1.
        -11    1    3    3    0    0  0.54172914847E+01 -0.11073297556E+02  0.57053964123E+01  0.13583685592E+02  0.51100000000E-03 0.  1.
         12    1    3    3    0    0  0.27188213630E+00 -0.91171564227E+01  0.11118945800E+02  0.14381495639E+02  0.00000000000E+00 0. -1.
</event>
<event>
 7    1  0.5019004E-011  0.5052887E+02  0.7816164E-02  0.1300439E+00
        -11   -1    0    0    0    0  0.00000000000E+00  0.00000000000E+00  0.45593999997E+02  0.45594000000E+02  0.51100000000E-03 0.  1.
         11   -1    0    0    0    0 -0.00000000000E+00 -0.00000000000E+00 -0.45593999997E+02  0.45594000000E+02  0.51100000000E-03 0. -1.
    9900012    2    1    2    0    0  0.28719395985E+02 -0.89081145214E+01 -0.27367986094E+02  0.50528869747E+02  0.30000030084E+02 0.  0.
        -12    1    1    2    0    0 -0.28719395985E+02  0.89081145214E+01  0.27367986094E+02  0.40659130253E+02  0.00000000000E+00 0.  1.
         11    1    3    3    0    0  0.36440157990E+01 -0.62648507025E+01 -0.22822865288E+02  0.23945988927E+02  0.51100000000E-03 0. -1.
        -11    1    3    3    0    0  0.12991319963E+02 -0.47255884728E+01 -0.35954144510E+01  0.14283997554E+02  0.51100000000E-03 0.  1.
         12    1    3    3    0    0  0.12084060224E+02  0.20823246538E+01 -0.94970635485E+00  0.12298883267E+02  0.00000000000E+00 0. -1.
</event>
<event>
 7    1  0.5019004E-011  0.5052894E+02  0.7816164E-02  0.1300438E+00
        -11   -1    0    0    0    0  0.00000000000E+00  0.00000000000E+00  0.45593999997E+02  0.45594000000E+02  0.51100000000E-03 0.  1.
         11   -1    0    0    0    0 -0.00000000000E+00 -0.00000000000E+00 -0.45593999997E+02  0.45594000000E+02  0.51100000000E-03 0. -1.
    9900012    2    1    2    0    0 -0.77639501254E+01 -0.79964314955E+01 -0.39101624137E+02  0.50528943834E+02  0.30000255275E+02 0.  0.
        -12    1    1    2    0    0  0.77639501254E+01  0.79964314955E+01  0.39101624137E+02  0.40659056166E+02  0.00000000000E+00 0.  1.
         11    1    3    3    0    0 -0.71236113556E+01 -0.25641670616E+01 -0.14781773827E+02  0.16607878528E+02  0.51100000000E-03 0. -1.
        -11    1    3    3    0    0  0.75480717026E+01  0.37844470463E+01 -0.18399647054E+02  0.20244565638E+02  0.51100000000E-03 0.  1.
        -12    1    3    3    0    0 -0.81884104724E+01 -0.92167114802E+01 -0.59202032549E+01  0.13676499667E+02  0.00000000000E+00 0.  1.
</event>
<event>
 7    1  0.5019004E-011  0.5052887E+02  0.7816164E-02  0.1300439E+00
        -11   -1    0    0    0    0  0.00000000000E+00  0.00000000000E+00  0.45593999997E+02  0.45594000000E+02  0.51100000000E-03 0.  1.
         11   -1    0    0    0    0 -0.00000000000E+00 -0.00000000000E+00 -0.45593999997E+02  0.45594000000E+02  0.51100000000E-03 0. -1.
    9900012    2    1    2    0    0  0.18339549562E+02  0.36287771229E+02  0.15314745004E+00  0.50528869745E+02  0.30000030077E+02 0.  0.
        -12    1    1    2    0    0 -0.18339549562E+02 -0.36287771229E+02 -0.15314745004E+00  0.40659130255E+02  0.00000000000E+00 0.  1.
         11    1    3    3    0    0  0.79450874023E+01  0.13728548012E+02 -0.97708356674E+01  0.18629725555E+02  0.51100000000E-03 0. -1.
        -11    1    3    3    0    0  0.10395689186E+02  0.25365498044E+02  0.97204626673E+01  0.29085498782E+02  0.51100000000E-03 0.  1.
        -12    1    3    3    0    0 -0.12270268631E-02 -0.28062748267E+01  0.20352045015E+00  0.28136454080E+01  0.00000000000E+00 0.  1.
</event>
<event>
 7    1  0.5019004E-011  0.5052886E+02  0.7816164E-02  0.1300439E+00
        -11   -1    0    0    0    0  0.00000000000E+00  0.00000000000E+00  0.45593999997E+02  0.45594000000E+02  0.51100000000E-03 0.  1.
         11   -1    0    0    0    0 -0.00000000000E+00 -0.00000000000E+00 -0.45593999997E+02  0.45594000000E+02  0.51100000000E-03 0. -1.
    9900012    2    1    2    0    0 -0.63195371860E+01  0.26129358058E+02 -0.30503868994E+02  0.50528856793E+02  0.29999990707E+02 0.  0.
        -12    1    1    2    0    0  0.63195371860E+01 -0.26129358058E+02  0.30503868994E+02  0.40659143207E+02  0.00000000000E+00 0.  1.
         11    1    3    3    0    0 -0.38250154763E+01  0.15345334990E+02 -0.10157023494E+01  0.15847450926E+02  0.51100000000E-03 0. -1.
        -11    1    3    3    0    0  0.29525630230E+01 -0.24099433095E+00 -0.16621000128E+02  0.16882930794E+02  0.51100000000E-03 0.  1.
         12    1    3    3    0    0 -0.54470847327E+01  0.11025017400E+02 -0.12867166516E+02  0.17798475072E+02  0.00000000000E+00 0. -1.
</event>
<event>
 7    1  0.5019004E-011  0.5052884E+02  0.7816164E-02  0.1300439E+00
        -11   -1    0    0    0    0  0.00000000000E+00  0.00000000000E+00  0.45593999997E+02  0.45594000000E+02  0.51100000000E-03 0.  1.
         11   -1    0    0    0    0 -0.00000000000E+00 -0.00000000000E+00 -0.45593999997E+02  0.45594000000E+02  0.51100000000E-03 0. -1.
    9900012    2    1    2    0    0  0.97829529314E+01 -0.83819868763E+01 -0.38564274290E+02  0.50528842071E+02  0.29999945958E+02 0.  0.
        -12    1    1    2    0    0 -0.97829529314E+01  0.83819868763E+01  0.38564274290E+02  0.40659157929E+02  0.00000000000E+00 0.  1.
         11    1    3    3    0    0 -0.46658804600E+01 -0.74147507262E+01 -0.75004537109E+01  0.11532812967E+02  0.51100000000E-03 0. -1.
        -11    1    3    3    0    0  0.63560886184E+01  0.65959116278E+01 -0.24415607394E+02  0.26077342606E+02  0.51100000000E-03 0.  1.
        -12    1    3    3    0    0  0.80927447730E+01 -0.75631477778E+01 -0.66482131847E+01  0.12918686497E+02  0.00000000000E+00 0.  1.
</event>
<event>
 7    1  0.5019004E-011  0.5052886E+02  0.7816164E-02  0.1300439E+00
        -11   -1    0    0    0    0  0.00000000000E+00  0.00000000000E+00  0.45593999997E+02  0.45594000000E+02  0.51100000000E-03 0. -1.
         11   -1    0    0    0    0 -0.00000000000E+00 -0.00000000000E+00 -0.45593999997E+02  0.45594000000E+02  0.51100000000E-03 0.  1.
    9900012    2    1    2    0    0  0.37805105384E+01 -0.32545102179E+02 -0.24076745571E+02  0.50528860645E+02  0.30000002417E+02 0.  0.
        -12    1    1    2    0    0 -0.37805105384E+01  0.32545102179E+02  0.24076745571E+02  0.40659139355E+02  0.00000000000E+00 0.  1.
         11    1    3    3    0    0 -0.22906265864E+01 -0.16907876858E+02 -0.58222597653E+01  0.18028365956E+02  0.51100000000E-03 0. -1.
        -11    1    3    3    0    0  0.16112095617E+01  0.22450537082E+01 -0.13064592355E+02  0.13353645048E+02  0.51100000000E-03 0.  1.
        -12    1    3    3    0    0  0.44599275631E+01 -0.17882279029E+02 -0.51898934506E+01  0.19146849641E+02  0.00000000000E+00 0.  1.
</event>
<event>
 7    1  0.5019004E-011  0.5052886E+02  0.7816164E-02  0.1300439E+00
        -11   -1    0    0    0    0  0.00000000000E+00  0.00000000000E+00  0.45593999997E+02  0.45594000000E+02  0.51100000000E-03 0.  1.
         11   -1    0    0    0    0 -0.00000000000E+00 -0.00000000000E+00 -0.45593999997E+02  0.45594000000E+02  0.51100000000E-03 0. -1.
    9900012    2    1    2    0    0 -0.33763476944E+01 -0.22915014419E+01 -0.40453859274E+02  0.50528862862E+02  0.30000009155E+02 0.  0.
        -12    1    1    2    0    0  0.33763476944E+01  0.22915014419E+01  0.40453859274E+02  0.40659137138E+02  0.00000000000E+00 0.  1.
         11    1    3    3    0    0 -0.12401032879E+02 -0.63899135635E+01 -0.88520714459E+01  0.16521978724E+02  0.51100000000E-03 0. -1.
        -11    1    3    3    0    0  0.65523429162E+01  0.28492385769E+01 -0.10358224042E+02  0.12583487741E+02  0.51100000000E-03 0.  1.
         12    1    3    3    0    0  0.24723422682E+01  0.12491735447E+01 -0.21243563786E+02  0.21423396397E+02  0.00000000000E+00 0. -1.
</event>
<event>
 7    1  0.5019004E-011  0.5052886E+02  0.7816164E-02  0.1300439E+00
        -11   -1    0    0    0    0  0.00000000000E+00  0.00000000000E+00  0.45593999997E+02  0.45594000000E+02  0.51100000000E-03 0.  1.
         11   -1    0    0    0    0 -0.00000000000E+00 -0.00000000000E+00 -0.45593999997E+02  0.45594000000E+02  0.51100000000E-03 0. -1.
    9900012    2    1    2    0    0  0.22211722148E+02  0.15864369011E+02 -0.30135147566E+02  0.50528856825E+02  0.29999990805E+02 0.  0.
        -12    1    1    2    0    0 -0.22211722148E+02 -0.15864369011E+02  0.30135147566E+02  0.40659143175E+02  0.00000000000E+00 0.  1.
         11    1    3    3    0    0  0.13310605549E+02  0.20161715108E+02 -0.26089245429E+02  0.35557217319E+02  0.51100000000E-03 0. -1.
        -11    1    3    3    0    0  0.85316456045E+01 -0.28678126587E+01 -0.71757050240E+01  0.11511041179E+02  0.51100000000E-03 0.  1.
         12    1    3    3    0    0  0.36947099501E+00 -0.14295334385E+01  0.31298028870E+01  0.34605983268E+01  0.00000000000E+00 0. -1.
</event>
<event>
 7    1  0.5019004E-011  0.5052886E+02  0.7816164E-02  0.1300439E+00
        -11   -1    0    0    0    0  0.00000000000E+00  0.00000000000E+00  0.45593999997E+02  0.45594000000E+02  0.51100000000E-03 0. -1.
         11   -1    0    0    0    0 -0.00000000000E+00 -0.00000000000E+00 -0.45593999997E+02  0.45594000000E+02  0.51100000000E-03 0.  1.
    9900012    2    1    2    0    0  0.34767878246E+02  0.62183740571E+01  0.20141793025E+02  0.50528863758E+02  0.30000011880E+02 0.  0.
        -12    1    1    2    0    0 -0.34767878246E+02 -0.62183740571E+01 -0.20141793025E+02  0.40659136242E+02  0.00000000000E+00 0.  1.
         11    1    3    3    0    0  0.18480791445E+02 -0.51932806087E+00 -0.31174224224E+01  0.18749071361E+02  0.51100000000E-03 0. -1.
        -11    1    3    3    0    0  0.14796580300E+02  0.95099930674E+01  0.15643578332E+02  0.23539335165E+02  0.51100000000E-03 0.  1.
        -12    1    3    3    0    0  0.14905065019E+01 -0.27722909495E+01  0.76156371153E+01  0.82404572332E+01  0.00000000000E+00 0.  1.
</event>
<event>
 7    1  0.5019004E-011  0.5052885E+02  0.7816164E-02  0.1300439E+00
        -11   -1    0    0    0    0  0.00000000000E+00  0.00000000000E+00  0.45593999997E+02  0.45594000000E+02  0.51100000000E-03 0.  1.
         11   -1    0    0    0    0 -0.00000000000E+00 -0.00000000000E+00 -0.45593999997E+02  0.45594000000E+02  0.51100000000E-03 0. -1.
    9900012    2    1    2    0    0 -0.11064257563E+02  0.28127192933E+02 -0.27195765485E+02  0.50528850500E+02  0.29999971581E+02 0.  0.
        -12    1    1    2    0    0  0.11064257563E+02 -0.28127192933E+02  0.27195765485E+02  0.40659149500E+02  0.00000000000E+00 0.  1.
         11    1    3    3    0    0 -0.34876859246E+01  0.10153846163E+02 -0.94472039743E+01  0.14300846415E+02  0.51100000000E-03 0. -1.
        -11    1    3    3    0    0 -0.14456229265E+02  0.33508330808E+01 -0.11971375364E+02  0.19066317821E+02  0.51100000000E-03 0.  1.
        -12    1    3    3    0    0  0.68796576259E+01  0.14622513690E+02 -0.57771861467E+01  0.17161686264E+02  0.00000000000E+00 0.  1.
</event>
<event>
 7    1  0.5019004E-011  0.5052885E+02  0.7816164E-02  0.1300439E+00
        -11   -1    0    0    0    0  0.00000000000E+00  0.00000000000E+00  0.45593999997E+02  0.45594000000E+02  0.51100000000E-03 0.  1.
         11   -1    0    0    0    0 -0.00000000000E+00 -0.00000000000E+00 -0.45593999997E+02  0.45594000000E+02  0.51100000000E-03 0. -1.
    9900012    2    1    2    0    0  0.22260989451E+02  0.21812390689E+01 -0.33953751459E+02  0.50528847360E+02  0.29999962037E+02 0.  0.
        -12    1    1    2    0    0 -0.22260989451E+02 -0.21812390689E+01  0.33953751459E+02  0.40659152640E+02  0.00000000000E+00 0.  1.
         11    1    3    3    0    0  0.91368979748E+01  0.46208334981E+01 -0.83651133778E+01  0.13221578155E+02  0.51100000000E-03 0. -1.
        -11    1    3    3    0    0  0.12376759525E+01 -0.11768971149E+02 -0.13530175890E+02  0.17975154619E+02  0.51100000000E-03 0.  1.
        -12    1    3    3    0    0  0.11886415524E+02  0.93293767202E+01 -0.12058462191E+02  0.19332114587E+02  0.00000000000E+00 0.  1.
</event>
<event>
 7    1  0.5019004E-011  0.5052885E+02  0.7816164E-02  0.1300439E+00
        -11   -1    0    0    0    0  0.00000000000E+00  0.00000000000E+00  0.45593999997E+02  0.45594000000E+02  0.51100000000E-03 0.  1.
         11   -1    0    0    0    0 -0.00000000000E+00 -0.00000000000E+00 -0.45593999997E+02  0.45594000000E+02  0.51100000000E-03 0. -1.
    9900012    2    1    2    0    0  0.10793436623E+02 -0.27539489124E+02 -0.27897033626E+02  0.50528853176E+02  0.29999979713E+02 0.  0.
        -12    1    1    2    0    0 -0.10793436623E+02  0.27539489124E+02  0.27897033626E+02  0.40659146824E+02  0.00000000000E+00 0.  1.
         11    1    3    3    0    0  0.64833794637E+01  0.35263045919E+00 -0.19926617457E+02  0.20957782351E+02  0.51100000000E-03 0. -1.
        -11    1    3    3    0    0  0.20552094877E+01 -0.18112903284E+02 -0.33997355558E+01  0.18543445028E+02  0.51100000000E-03 0.  1.
         12    1    3    3    0    0  0.22548476714E+01 -0.97792162993E+01 -0.45706806133E+01  0.11027625797E+02  0.00000000000E+00 0. -1.
</event>
<event>
 7    1  0.5019004E-011  0.5052886E+02  0.7816164E-02  0.1300439E+00
        -11   -1    0    0    0    0  0.00000000000E+00  0.00000000000E+00  0.45593999997E+02  0.45594000000E+02  0.51100000000E-03 0. -1.
         11   -1    0    0    0    0 -0.00000000000E+00 -0.00000000000E+00 -0.45593999997E+02  0.45594000000E+02  0.51100000000E-03 0.  1.
    9900012    2    1    2    0    0 -0.39103064123E+02 -0.46016149826E+01  0.10146005938E+02  0.50528856862E+02  0.29999990917E+02 0.  0.
        -12    1    1    2    0    0  0.39103064123E+02  0.46016149826E+01 -0.10146005938E+02  0.40659143138E+02  0.00000000000E+00 0.  1.
         11    1    3    3    0    0 -0.27823688282E+02  0.26187019415E+01  0.18706130171E+02  0.33629370135E+02  0.51100000000E-03 0. -1.
        -11    1    3    3    0    0 -0.60925079728E+01 -0.19586788065E+01 -0.67316933549E+01  0.92882060566E+01  0.51100000000E-03 0.  1.
         12    1    3    3    0    0 -0.51868678685E+01 -0.52616381177E+01 -0.18284308779E+01  0.76112806703E+01  0.00000000000E+00 0. -1.
</event>
<event>
 7    1  0.5019004E-011  0.5052891E+02  0.7816164E-02  0.1300439E+00
        -11   -1    0    0    0    0  0.00000000000E+00  0.00000000000E+00  0.45593999997E+02  0.45594000000E+02  0.51100000000E-03 0. -1.
         11   -1    0    0    0    0 -0.00000000000E+00 -0.00000000000E+00 -0.45593999997E+02  0.45594000000E+02  0.51100000000E-03 0.  1.
    9900012    2    1    2    0    0 -0.35576359982E+02  0.10390828256E+02  0.16718699875E+02  0.50528909664E+02  0.30000151416E+02 0.  0.
        -12    1    1    2    0    0  0.35576359982E+02 -0.10390828256E+02 -0.16718699875E+02  0.40659090336E+02  0.00000000000E+00 0.  1.
         11    1    3    3    0    0 -0.32015225189E+02  0.14009269575E+01  0.65559174117E+01  0.32709590239E+02  0.51100000000E-03 0. -1.
        -11    1    3    3    0    0 -0.49456349942E+01  0.99976829663E+01  0.11208557284E+02  0.15812802625E+02  0.51100000000E-03 0.  1.
         12    1    3    3    0    0  0.13845002010E+01 -0.10077816675E+01 -0.10457748211E+01  0.20065168009E+01  0.00000000000E+00 0. -1.
</event>
<event>
 7    1  0.5019004E-011  0.5052886E+02  0.7816164E-02  0.1300439E+00
        -11   -1    0    0    0    0  0.00000000000E+00  0.00000000000E+00  0.45593999997E+02  0.45594000000E+02  0.51100000000E-03 0.  1.
         11   -1    0    0    0    0 -0.00000000000E+00 -0.00000000000E+00 -0.45593999997E+02  0.45594000000E+02  0.51100000000E-03 0. -1.
    9900012    2    1    2    0    0 -0.28286626404E+02 -0.76556452524E+01 -0.28185522432E+02  0.50528858195E+02  0.29999994969E+02 0.  0.
        -12    1    1    2    0    0  0.28286626404E+02  0.76556452524E+01  0.28185522432E+02  0.40659141805E+02  0.00000000000E+00 0.  1.
         11    1    3    3    0    0 -0.22153460758E+02 -0.34202149159E+01 -0.23416653684E+02  0.32416251536E+02  0.51100000000E-03 0. -1.
        -11    1    3    3    0    0 -0.42368127940E+01 -0.90129260674E+01  0.14285083335E+01  0.10061016612E+02  0.51100000000E-03 0.  1.
        -12    1    3    3    0    0 -0.18963528526E+01  0.47774957309E+01 -0.61973770814E+01  0.80515900473E+01  0.00000000000E+00 0.  1.
</event>
<event>
 7    1  0.5019004E-011  0.5052886E+02  0.7816164E-02  0.1300439E+00
        -11   -1    0    0    0    0  0.00000000000E+00  0.00000000000E+00  0.45593999997E+02  0.45594000000E+02  0.51100000000E-03 0.  1.
         11   -1    0    0    0    0 -0.00000000000E+00 -0.00000000000E+00 -0.45593999997E+02  0.45594000000E+02  0.51100000000E-03 0. -1.
    9900012    2    1    2    0    0  0.17865165507E+02 -0.28704390574E+02 -0.22584490081E+02  0.50528863646E+02  0.30000011539E+02 0.  0.
        -12    1    1    2    0    0 -0.17865165507E+02  0.28704390574E+02  0.22584490081E+02  0.40659136354E+02  0.00000000000E+00 0.  1.
         11    1    3    3    0    0  0.14674594012E+01 -0.15429374103E+02 -0.22817890503E+02  0.27583965443E+02  0.51100000000E-03 0. -1.
        -11    1    3    3    0    0  0.66927763151E+00 -0.39451730480E+01  0.21754477691E+01  0.45546565385E+01  0.51100000000E-03 0.  1.
         12    1    3    3    0    0  0.15728428475E+02 -0.93298434232E+01 -0.19420473469E+01  0.18390241665E+02  0.00000000000E+00 0. -1.
</event>
<event>
 7    1  0.5019004E-011  0.5052886E+02  0.7816164E-02  0.1300439E+00
        -11   -1    0    0    0    0  0.00000000000E+00  0.00000000000E+00  0.45593999997E+02  0.45594000000E+02  0.51100000000E-03 0.  1.
         11   -1    0    0    0    0 -0.00000000000E+00 -0.00000000000E+00 -0.45593999997E+02  0.45594000000E+02  0.51100000000E-03 0. -1.
    9900012    2    1    2    0    0  0.30019687047E+02 -0.22093387318E+02 -0.16243961159E+02  0.50528860220E+02  0.30000001123E+02 0.  0.
        -12    1    1    2    0    0 -0.30019687047E+02  0.22093387318E+02  0.16243961159E+02  0.40659139780E+02  0.00000000000E+00 0.  1.
         11    1    3    3    0    0  0.11038073632E+02 -0.14119053147E+02 -0.10294616384E+02  0.20667991146E+02  0.51100000000E-03 0. -1.
        -11    1    3    3    0    0  0.10148209928E+01  0.55406158439E+00  0.63648536239E+01  0.64690190757E+01  0.51100000000E-03 0.  1.
        -12    1    3    3    0    0  0.17966792422E+02 -0.85283957550E+01 -0.12314198399E+02  0.23391849997E+02  0.00000000000E+00 0.  1.
</event>
<event>
 7    1  0.5019004E-011  0.5052882E+02  0.7816164E-02  0.1300439E+00
        -11   -1    0    0    0    0  0.00000000000E+00  0.00000000000E+00  0.45593999997E+02  0.45594000000E+02  0.51100000000E-03 0.  1.
         11   -1    0    0    0    0 -0.00000000000E+00 -0.00000000000E+00 -0.45593999997E+02  0.45594000000E+02  0.51100000000E-03 0. -1.
    9900012    2    1    2    0    0 -0.22584744921E+02 -0.28433839240E+02 -0.18292483822E+02  0.50528820453E+02  0.29999880248E+02 0.  0.
        -12    1    1    2    0    0  0.22584744921E+02  0.28433839240E+02  0.18292483822E+02  0.40659179547E+02  0.00000000000E+00 0.  1.
         11    1    3    3    0    0 -0.15623332761E+02 -0.33545556464E+02 -0.14863822889E+02  0.39878893116E+02  0.51100000000E-03 0. -1.
        -11    1    3    3    0    0 -0.38125965498E+01  0.46107606534E+01 -0.20599471419E-01  0.59829282842E+01  0.51100000000E-03 0.  1.
         12    1    3    3    0    0 -0.31488156097E+01  0.50095657030E+00 -0.34080614614E+01  0.46669990523E+01  0.00000000000E+00 0. -1.
</event>
<event>
 7    1  0.5019004E-011  0.5052887E+02  0.7816164E-02  0.1300439E+00
        -11   -1    0    0    0    0  0.00000000000E+00  0.00000000000E+00  0.45593999997E+02  0.45594000000E+02  0.51100000000E-03 0.  1.
         11   -1    0    0    0    0 -0.00000000000E+00 -0.00000000000E+00 -0.45593999997E+02  0.45594000000E+02  0.51100000000E-03 0. -1.
    9900012    2    1    2    0    0 -0.35492700638E+02  0.15701000584E+02 -0.12120705195E+02  0.50528871722E+02  0.30000036085E+02 0.  0.
        -12    1    1    2    0    0  0.35492700638E+02 -0.15701000584E+02  0.12120705195E+02  0.40659128278E+02  0.00000000000E+00 0.  1.
         11    1    3    3    0    0 -0.28637784852E+02  0.14138034276E+02  0.24265843652E+01  0.32029596412E+02  0.51100000000E-03 0. -1.
        -11    1    3    3    0    0 -0.37022964041E+01 -0.35382748448E+01 -0.88650760755E+01  0.10237966674E+02  0.51100000000E-03 0.  1.
         12    1    3    3    0    0 -0.31526193824E+01  0.51012411531E+01 -0.56822134849E+01  0.82613086349E+01  0.00000000000E+00 0. -1.
</event>
<event>
 7    1  0.5019004E-011  0.5052883E+02  0.7816164E-02  0.1300439E+00
        -11   -1    0    0    0    0  0.00000000000E+00  0.00000000000E+00  0.45593999997E+02  0.45594000000E+02  0.51100000000E-03 0.  1.
         11   -1    0    0    0    0 -0.00000000000E+00 -0.00000000000E+00 -0.45593999997E+02  0.45594000000E+02  0.51100000000E-03 0. -1.
    9900012    2    1    2    0    0 -0.12319227385E+02  0.25328928838E+01 -0.38665085649E+02  0.50528834269E+02  0.29999922243E+02 0.  0.
        -12    1    1    2    0    0  0.12319227385E+02 -0.25328928838E+01  0.38665085649E+02  0.40659165731E+02  0.00000000000E+00 0.  1.
         11    1    3    3    0    0  0.21024181960E+01  0.10228903791E+00  0.42693169085E-01  0.21053380455E+01  0.51100000000E-03 0. -1.
        -11    1    3    3    0    0 -0.45054294251E+01 -0.13081559523E+01 -0.37460030510E+02  0.37752669474E+02  0.51100000000E-03 0.  1.
        -12    1    3    3    0    0 -0.99162161559E+01  0.37387597981E+01 -0.12477483075E+01  0.10670826750E+02  0.00000000000E+00 0.  1.
</event>
<event>
 7    1  0.5019004E-011  0.5052888E+02  0.7816164E-02  0.1300439E+00
        -11   -1    0    0    0    0  0.00000000000E+00  0.00000000000E+00  0.45593999997E+02  0.45594000000E+02  0.51100000000E-03 0. -1.
         11   -1    0    0    0    0 -0.00000000000E+00 -0.00000000000E+00 -0.45593999997E+02  0.45594000000E+02  0.51100000000E-03 0.  1.
    9900012    2    1    2    0    0 -0.11709671269E+02  0.28670400820E+02  0.26344940647E+02  0.50528878242E+02  0.30000055905E+02 0.  0.
        -12    1    1    2    0    0  0.11709671269E+02 -0.28670400820E+02 -0.26344940647E+02  0.40659121758E+02  0.00000000000E+00 0.  1.
         11    1    3    3    0    0  0.23070198773E+01  0.24915372144E+02  0.11149707306E+02  0.27393686919E+02  0.51100000000E-03 0. -1.
        -11    1    3    3    0    0 -0.68730009833E+01  0.43297018439E+01  0.13524185024E+02  0.15776185895E+02  0.51100000000E-03 0.  1.
         12    1    3    3    0    0 -0.71436901634E+01 -0.57467316778E+00  0.16710483172E+01  0.73590054273E+01  0.00000000000E+00 0. -1.
</event>
<event>
 7    1  0.5019004E-011  0.5052886E+02  0.7816164E-02  0.1300439E+00
        -11   -1    0    0    0    0  0.00000000000E+00  0.00000000000E+00  0.45593999997E+02  0.45594000000E+02  0.51100000000E-03 0. -1.
         11   -1    0    0    0    0 -0.00000000000E+00 -0.00000000000E+00 -0.45593999997E+02  0.45594000000E+02  0.51100000000E-03 0.  1.
    9900012    2    1    2    0    0  0.36019558130E+02 -0.92124511880E+01  0.16458668227E+02  0.50528860995E+02  0.30000003481E+02 0.  0.
        -12    1    1    2    0    0 -0.36019558130E+02  0.92124511880E+01 -0.16458668227E+02  0.40659139005E+02  0.00000000000E+00 0.  1.
         11    1    3    3    0    0  0.41604589697E+01 -0.56103692741E+01  0.13686631646E+02  0.15365856576E+02  0.51100000000E-03 0. -1.
        -11    1    3    3    0    0  0.10538783472E+02  0.22467420196E+01 -0.47970816388E+01  0.11795159994E+02  0.51100000000E-03 0.  1.
         12    1    3    3    0    0  0.21320315689E+02 -0.58488239335E+01  0.75691182199E+01  0.23367844426E+02  0.00000000000E+00 0. -1.
</event>
<event>
 7    1  0.5019004E-011  0.5052886E+02  0.7816164E-02  0.1300439E+00
        -11   -1    0    0    0    0  0.00000000000E+00  0.00000000000E+00  0.45593999997E+02  0.45594000000E+02  0.51100000000E-03 0.  1.
         11   -1    0    0    0    0 -0.00000000000E+00 -0.00000000000E+00 -0.45593999997E+02  0.45594000000E+02  0.51100000000E-03 0. -1.
    9900012    2    1    2    0    0  0.73891753110E+01  0.28905058028E+02 -0.27623601145E+02  0.50528860417E+02  0.30000001723E+02 0.  0.
        -12    1    1    2    0    0 -0.73891753110E+01 -0.28905058028E+02  0.27623601145E+02  0.40659139583E+02  0.00000000000E+00 0.  1.
         11    1    3    3    0    0 -0.14284285950E+01  0.18970777393E+02 -0.25226938276E+02  0.31596348178E+02  0.51100000000E-03 0. -1.
        -11    1    3    3    0    0  0.41389905776E+01  0.11822293922E+02  0.14202537517E+01  0.12606149197E+02  0.51100000000E-03 0.  1.
         12    1    3    3    0    0  0.46786133283E+01 -0.18880132870E+01 -0.38169166206E+01  0.63263630418E+01  0.00000000000E+00 0. -1.
</event>
<event>
 7    1  0.5019004E-011  0.5052886E+02  0.7816164E-02  0.1300439E+00
        -11   -1    0    0    0    0  0.00000000000E+00  0.00000000000E+00  0.45593999997E+02  0.45594000000E+02  0.51100000000E-03 0.  1.
         11   -1    0    0    0    0 -0.00000000000E+00 -0.00000000000E+00 -0.45593999997E+02  0.45594000000E+02  0.51100000000E-03 0. -1.
    9900012    2    1    2    0    0  0.15300847971E+02 -0.31641418730E+02 -0.20441875777E+02  0.50528860644E+02  0.30000002414E+02 0.  0.
        -12    1    1    2    0    0 -0.15300847971E+02  0.31641418730E+02  0.20441875777E+02  0.40659139356E+02  0.00000000000E+00 0.  1.
         11    1    3    3    0    0  0.98356084212E+01 -0.33584769016E+02 -0.16051338213E+02  0.38500926762E+02  0.51100000000E-03 0. -1.
        -11    1    3    3    0    0  0.72247171545E+01  0.34364442402E+01 -0.11992564438E+01  0.80897406175E+01  0.51100000000E-03 0.  1.
        -12    1    3    3    0    0 -0.17594776052E+01 -0.14930939543E+01 -0.31912811202E+01  0.39381932644E+01  0.00000000000E+00 0.  1.
</event>
<event>
 7    1  0.5019004E-011  0.5052885E+02  0.7816164E-02  0.1300439E+00
        -11   -1    0    0    0    0  0.00000000000E+00  0.00000000000E+00  0.45593999997E+02  0.45594000000E+02  0.51100000000E-03 0.  1.
         11   -1    0    0    0    0 -0.00000000000E+00 -0.00000000000E+00 -0.45593999997E+02  0.45594000000E+02  0.51100000000E-03 0. -1.
    9900012    2    1    2    0    0 -0.16849636657E+02 -0.28054411205E+02 -0.24128957405E+02  0.50528845692E+02  0.29999956967E+02 0.  0.
        -12    1    1    2    0    0  0.16849636657E+02  0.28054411205E+02  0.24128957405E+02  0.40659154308E+02  0.00000000000E+00 0.  1.
         11    1    3    3    0    0 -0.23989714844E+02 -0.27338124520E+02 -0.16805177897E+02  0.40066113799E+02  0.51100000000E-03 0. -1.
        -11    1    3    3    0    0  0.38711058890E+01 -0.49448546839E-01 -0.25393441245E+01  0.46299216847E+01  0.51100000000E-03 0.  1.
         12    1    3    3    0    0  0.32689722976E+01 -0.66683813785E+00 -0.47844353838E+01  0.58328102084E+01  0.00000000000E+00 0. -1.
</event>
<event>
 7    1  0.5019004E-011  0.5052886E+02  0.7816164E-02  0.1300439E+00
        -11   -1    0    0    0    0  0.00000000000E+00  0.00000000000E+00  0.45593999997E+02  0.45594000000E+02  0.51100000000E-03 0. -1.
         11   -1    0    0    0    0 -0.00000000000E+00 -0.00000000000E+00 -0.45593999997E+02  0.45594000000E+02  0.51100000000E-03 0.  1.
    9900012    2    1    2    0    0 -0.22845637453E+02  0.23712552434E+02  0.23852823750E+02  0.50528862105E+02  0.30000006854E+02 0.  0.
        -12    1    1    2    0    0  0.22845637453E+02 -0.23712552434E+02 -0.23852823750E+02  0.40659137895E+02  0.00000000000E+00 0.  1.
         11    1    3    3    0    0  0.58239808178E+01  0.77629995311E+01  0.43910289855E+01  0.10651950530E+02  0.51100000000E-03 0. -1.
        -11    1    3    3    0    0 -0.12782792222E+02  0.27584288898E+01  0.12487208294E+02  0.18081456749E+02  0.51100000000E-03 0.  1.
        -12    1    3    3    0    0 -0.15886826048E+02  0.13191124013E+02  0.69745864702E+01  0.21795454825E+02  0.00000000000E+00 0.  1.
</event>
<event>
 7    1  0.5019004E-011  0.5052886E+02  0.7816164E-02  0.1300439E+00
        -11   -1    0    0    0    0  0.00000000000E+00  0.00000000000E+00  0.45593999997E+02  0.45594000000E+02  0.51100000000E-03 0.  1.
         11   -1    0    0    0    0 -0.00000000000E+00 -0.00000000000E+00 -0.45593999997E+02  0.45594000000E+02  0.51100000000E-03 0. -1.
    9900012    2    1    2    0    0  0.25259465686E+02 -0.22666252743E+02 -0.22391210327E+02  0.50528856870E+02  0.29999990942E+02 0.  0.
        -12    1    1    2    0    0 -0.25259465686E+02  0.22666252743E+02  0.22391210327E+02  0.40659143130E+02  0.00000000000E+00 0.  1.
         11    1    3    3    0    0 -0.11847819461E+01 -0.25183576541E+01 -0.92554430653E+01  0.96648362702E+01  0.51100000000E-03 0. -1.
        -11    1    3    3    0    0  0.19508416448E+02 -0.23447009089E+02 -0.13068539007E+02  0.33183237630E+02  0.51100000000E-03 0.  1.
        -12    1    3    3    0    0  0.69358311836E+01  0.32991140003E+01 -0.67228254746E-01  0.76807829700E+01  0.00000000000E+00 0.  1.
</event>
<event>
 7    1  0.5019004E-011  0.5052882E+02  0.7816164E-02  0.1300439E+00
        -11   -1    0    0    0    0  0.00000000000E+00  0.00000000000E+00  0.45593999997E+02  0.45594000000E+02  0.51100000000E-03 0.  1.
         11   -1    0    0    0    0 -0.00000000000E+00 -0.00000000000E+00 -0.45593999997E+02  0.45594000000E+02  0.51100000000E-03 0. -1.
    9900012    2    1    2    0    0  0.16504581860E+02  0.36718986411E+02 -0.56994428903E+01  0.50528821028E+02  0.29999881996E+02 0.  0.
        -12    1    1    2    0    0 -0.16504581860E+02 -0.36718986411E+02  0.56994428903E+01  0.40659178972E+02  0.00000000000E+00 0.  1.
         11    1    3    3    0    0  0.78180223332E+01  0.28150171527E+02 -0.85854925549E+00  0.29228252382E+02  0.51100000000E-03 0. -1.
        -11    1    3    3    0    0  0.10585172602E+02  0.46621289826E+01  0.33392169363E+01  0.12038758062E+02  0.51100000000E-03 0.  1.
         12    1    3    3    0    0 -0.18986130752E+01  0.39066859017E+01 -0.81801105711E+01  0.92618105843E+01  0.00000000000E+00 0. -1.
</event>
<event>
 7    1  0.5019004E-011  0.5052886E+02  0.7816164E-02  0.1300439E+00
        -11   -1    0    0    0    0  0.00000000000E+00  0.00000000000E+00  0.45593999997E+02  0.45594000000E+02  0.51100000000E-03 0.  1.
         11   -1    0    0    0    0 -0.00000000000E+00 -0.00000000000E+00 -0.45593999997E+02  0.45594000000E+02  0.51100000000E-03 0. -1.
    9900012    2    1    2    0    0 -0.62154891251E+01 -0.32542549914E+02 -0.23569379532E+02  0.50528861894E+02  0.30000006213E+02 0.  0.
        -12    1    1    2    0    0  0.62154891251E+01  0.32542549914E+02  0.23569379532E+02  0.40659138106E+02  0.00000000000E+00 0.  1.
         11    1    3    3    0    0  0.36942139784E+01 -0.25371472396E+02 -0.17577796513E+02  0.31085973669E+02  0.51100000000E-03 0. -1.
        -11    1    3    3    0    0 -0.45430743990E+01 -0.28228685357E+01  0.44267433827E+01  0.69429222235E+01  0.51100000000E-03 0.  1.
         12    1    3    3    0    0 -0.53666287045E+01 -0.43482089824E+01 -0.10418326402E+02  0.12499966001E+02  0.00000000000E+00 0. -1.
</event>
<event>
 7    1  0.5019004E-011  0.5052887E+02  0.7816164E-02  0.1300439E+00
        -11   -1    0    0    0    0  0.00000000000E+00  0.00000000000E+00  0.45593999997E+02  0.45594000000E+02  0.51100000000E-03 0.  1.
         11   -1    0    0    0    0 -0.00000000000E+00 -0.00000000000E+00 -0.45593999997E+02  0.45594000000E+02  0.51100000000E-03 0. -1.
    9900012    2    1    2    0    0  0.20952836494E+02 -0.25313939680E+02  0.23944681354E+02  0.50528872312E+02  0.30000037879E+02 0.  0.
        -12    1    1    2    0    0 -0.20952836494E+02  0.25313939680E+02 -0.23944681354E+02  0.40659127688E+02  0.00000000000E+00 0.  1.
         11    1    3    3    0    0 -0.24049806300E-01 -0.14449235338E+02  0.83418571798E+01  0.16684350803E+02  0.51100000000E-03 0. -1.
        -11    1    3    3    0    0  0.20438791478E+02 -0.11210434812E+02  0.58015576491E+01  0.24022408646E+02  0.51100000000E-03 0.  1.
        -12    1    3    3    0    0  0.53809482215E+00  0.34573047048E+00  0.98012665248E+01  0.98221128626E+01  0.00000000000E+00 0.  1.
</event>
<event>
 7    1  0.5019004E-011  0.5052887E+02  0.7816164E-02  0.1300439E+00
        -11   -1    0    0    0    0  0.00000000000E+00  0.00000000000E+00  0.45593999997E+02  0.45594000000E+02  0.51100000000E-03 0. -1.
         11   -1    0    0    0    0 -0.00000000000E+00 -0.00000000000E+00 -0.45593999997E+02  0.45594000000E+02  0.51100000000E-03 0.  1.
    9900012    2    1    2    0    0 -0.51952250502E+00  0.40631139358E+02 -0.14162302006E+01  0.50528866989E+02  0.30000021701E+02 0.  0.
        -12    1    1    2    0    0  0.51952250502E+00 -0.40631139358E+02  0.14162302006E+01  0.40659133011E+02  0.00000000000E+00 0.  1.
         11    1    3    3    0    0  0.10476632632E+02  0.96822175276E+01 -0.22909488823E+01  0.14448308365E+02  0.51100000000E-03 0. -1.
        -11    1    3    3    0    0 -0.13632665131E+02  0.24244208021E+02  0.42283412565E+01  0.28133788425E+02  0.51100000000E-03 0.  1.
        -12    1    3    3    0    0  0.26365099936E+01  0.67047138102E+01 -0.33536225748E+01  0.79467701991E+01  0.00000000000E+00 0.  1.
</event>
<event>
 7    1  0.5019004E-011  0.5052886E+02  0.7816164E-02  0.1300439E+00
        -11   -1    0    0    0    0  0.00000000000E+00  0.00000000000E+00  0.45593999997E+02  0.45594000000E+02  0.51100000000E-03 0.  1.
         11   -1    0    0    0    0 -0.00000000000E+00 -0.00000000000E+00 -0.45593999997E+02  0.45594000000E+02  0.51100000000E-03 0. -1.
    9900012    2    1    2    0    0 -0.33462379600E+02  0.29198697316E+01 -0.22910892828E+02  0.50528862061E+02  0.30000006722E+02 0.  0.
        -12    1    1    2    0    0  0.33462379600E+02 -0.29198697316E+01  0.22910892828E+02  0.40659137939E+02  0.00000000000E+00 0.  1.
         11    1    3    3    0    0 -0.39588945171E+01 -0.71274637963E+00 -0.19424947193E+02  0.19837072035E+02  0.51100000000E-03 0. -1.
        -11    1    3    3    0    0 -0.28937841985E+02  0.23969655428E+01 -0.38339819905E+01  0.29288966535E+02  0.51100000000E-03 0.  1.
         12    1    3    3    0    0 -0.56564309813E+00  0.12356505685E+01  0.34803635576E+00  0.14028234910E+01  0.00000000000E+00 0. -1.
</event>
<event>
 7    1  0.5019004E-011  0.5052886E+02  0.7816164E-02  0.1300439E+00
        -11   -1    0    0    0    0  0.00000000000E+00  0.00000000000E+00  0.45593999997E+02  0.45594000000E+02  0.51100000000E-03 0.  1.
         11   -1    0    0    0    0 -0.00000000000E+00 -0.00000000000E+00 -0.45593999997E+02  0.45594000000E+02  0.51100000000E-03 0. -1.
    9900012    2    1    2    0    0 -0.21482318878E+02  0.15736558861E+02 -0.30725171449E+02  0.50528862408E+02  0.30000007776E+02 0.  0.
        -12    1    1    2    0    0  0.21482318878E+02 -0.15736558861E+02  0.30725171449E+02  0.40659137592E+02  0.00000000000E+00 0.  1.
         11    1    3    3    0    0 -0.10732432179E+02  0.84456974311E+00 -0.77861951839E+01  0.13286204659E+02  0.51100000000E-03 0. -1.
        -11    1    3    3    0    0 -0.79078078235E+01  0.19370062278E+02 -0.23994287417E+02  0.31834864004E+02  0.51100000000E-03 0.  1.
        -12    1    3    3    0    0 -0.28420788758E+01 -0.44780731606E+01  0.10553111521E+01  0.54077937457E+01  0.00000000000E+00 0.  1.
</event>
<event>
 7    1  0.5019004E-011  0.5052882E+02  0.7816164E-02  0.1300439E+00
        -11   -1    0    0    0    0  0.00000000000E+00  0.00000000000E+00  0.45593999997E+02  0.45594000000E+02  0.51100000000E-03 0.  1.
         11   -1    0    0    0    0 -0.00000000000E+00 -0.00000000000E+00 -0.45593999997E+02  0.45594000000E+02  0.51100000000E-03 0. -1.
    9900012    2    1    2    0    0 -0.58008535791E+01  0.40242950026E+02 -0.15369485002E+00  0.50528824515E+02  0.29999892595E+02 0.  0.
        -12    1    1    2    0    0  0.58008535791E+01 -0.40242950026E+02  0.15369485002E+00  0.40659175485E+02  0.00000000000E+00 0.  1.
         11    1    3    3    0    0  0.95949866501E+01  0.75601743455E+01  0.43231102630E+01  0.12957981616E+02  0.51100000000E-03 0. -1.
        -11    1    3    3    0    0 -0.69564891582E+01  0.59484904332E+01  0.16487080298E+00  0.91544777286E+01  0.51100000000E-03 0.  1.
         12    1    3    3    0    0 -0.84393510710E+01  0.26734285247E+02 -0.46416759160E+01  0.28416365170E+02  0.00000000000E+00 0. -1.
</event>
<event>
 7    1  0.5019004E-011  0.5052886E+02  0.7816164E-02  0.1300439E+00
        -11   -1    0    0    0    0  0.00000000000E+00  0.00000000000E+00  0.45593999997E+02  0.45594000000E+02  0.51100000000E-03 0.  1.
         11   -1    0    0    0    0 -0.00000000000E+00 -0.00000000000E+00 -0.45593999997E+02  0.45594000000E+02  0.51100000000E-03 0. -1.
    9900012    2    1    2    0    0  0.23734523861E+02 -0.18313657534E+02 -0.27467215250E+02  0.50528860944E+02  0.30000003325E+02 0.  0.
        -12    1    1    2    0    0 -0.23734523861E+02  0.18313657534E+02  0.27467215250E+02  0.40659139056E+02  0.00000000000E+00 0.  1.
         11    1    3    3    0    0  0.18911293565E+02 -0.63680457738E+01 -0.73201949659E+01  0.21254982613E+02  0.51100000000E-03 0. -1.
        -11    1    3    3    0    0 -0.61313478675E+01 -0.48740252510E+01 -0.10272444088E+02  0.12917919980E+02  0.51100000000E-03 0.  1.
        -12    1    3    3    0    0  0.10954578164E+02 -0.70715865095E+01 -0.98745761962E+01  0.16355958350E+02  0.00000000000E+00 0.  1.
</event>
<event>
 7    1  0.5019004E-011  0.5052887E+02  0.7816164E-02  0.1300439E+00
        -11   -1    0    0    0    0  0.00000000000E+00  0.00000000000E+00  0.45593999997E+02  0.45594000000E+02  0.51100000000E-03 0.  1.
         11   -1    0    0    0    0 -0.00000000000E+00 -0.00000000000E+00 -0.45593999997E+02  0.45594000000E+02  0.51100000000E-03 0. -1.
    9900012    2    1    2    0    0 -0.23503600642E+02  0.31542690834E+02  0.10286126652E+02  0.50528868312E+02  0.30000025720E+02 0.  0.
        -12    1    1    2    0    0  0.23503600642E+02 -0.31542690834E+02 -0.10286126652E+02  0.40659131688E+02  0.00000000000E+00 0.  1.
         11    1    3    3    0    0 -0.21194412335E+02  0.72577334885E+01  0.11144148872E+02  0.25021388130E+02  0.51100000000E-03 0. -1.
        -11    1    3    3    0    0  0.96345843722E+00  0.14577833986E+02  0.22960541392E+01  0.14788960773E+02  0.51100000000E-03 0.  1.
         12    1    3    3    0    0 -0.32726467440E+01  0.97071233591E+01 -0.31540763591E+01  0.10718519408E+02  0.00000000000E+00 0. -1.
</event>
<event>
 7    1  0.5567115E-011  0.5052887E+02  0.7816164E-02  0.1300439E+00
        -11   -1    0    0    0    0  0.00000000000E+00  0.00000000000E+00  0.45593999997E+02  0.45594000000E+02  0.51100000000E-03 0. -1.
         11   -1    0    0    0    0 -0.00000000000E+00 -0.00000000000E+00 -0.45593999997E+02  0.45594000000E+02  0.51100000000E-03 0.  1.
    9900012    2    1    2    0    0 -0.26132297657E+02 -0.27511636371E+02  0.14607458843E+02  0.50528868547E+02  0.30000026436E+02 0.  0.
        -12    1    1    2    0    0  0.26132297657E+02  0.27511636371E+02 -0.14607458843E+02  0.40659131453E+02  0.00000000000E+00 0.  1.
         11    1    3    3    0    0 -0.17423722805E+02 -0.12538749001E+02  0.14040781654E+02  0.25650533964E+02  0.51100000000E-03 0. -1.
        -11    1    3    3    0    0  0.46476329033E+01 -0.63235545824E+00  0.22635828974E+01  0.52080872519E+01  0.51100000000E-03 0.  1.
         12    1    3    3    0    0 -0.13356207755E+02 -0.14340531912E+02 -0.16969057085E+01  0.19670247332E+02  0.00000000000E+00 0. -1.
</event>
<event>
 7    1  0.5019004E-011  0.5052882E+02  0.7816164E-02  0.1300439E+00
        -11   -1    0    0    0    0  0.00000000000E+00  0.00000000000E+00  0.45593999997E+02  0.45594000000E+02  0.51100000000E-03 0.  1.
         11   -1    0    0    0    0 -0.00000000000E+00 -0.00000000000E+00 -0.45593999997E+02  0.45594000000E+02  0.51100000000E-03 0. -1.
    9900012    2    1    2    0    0 -0.12933300154E+02 -0.37898552037E+02 -0.70426325324E+01  0.50528816875E+02  0.29999869374E+02 0.  0.
        -12    1    1    2    0    0  0.12933300154E+02  0.37898552037E+02  0.70426325324E+01  0.40659183125E+02  0.00000000000E+00 0.  1.
         11    1    3    3    0    0 -0.87605732990E+01 -0.16966831507E+02  0.32712145815E+01  0.19373225365E+02  0.51100000000E-03 0. -1.
        -11    1    3    3    0    0 -0.28450759389E+01  0.28911668509E+01 -0.54686109538E+01  0.68087450299E+01  0.51100000000E-03 0.  1.
        -12    1    3    3    0    0 -0.13276509162E+01 -0.23822887381E+02 -0.48452361601E+01  0.24346846481E+02  0.00000000000E+00 0.  1.
</event>
<event>
 7    1  0.5019004E-011  0.5052885E+02  0.7816164E-02  0.1300439E+00
        -11   -1    0    0    0    0  0.00000000000E+00  0.00000000000E+00  0.45593999997E+02  0.45594000000E+02  0.51100000000E-03 0.  1.
         11   -1    0    0    0    0 -0.00000000000E+00 -0.00000000000E+00 -0.45593999997E+02  0.45594000000E+02  0.51100000000E-03 0. -1.
    9900012    2    1    2    0    0 -0.10559686141E+02 -0.21739520678E+01 -0.39203742805E+02  0.50528849874E+02  0.29999969678E+02 0.  0.
        -12    1    1    2    0    0  0.10559686141E+02  0.21739520678E+01  0.39203742805E+02  0.40659150126E+02  0.00000000000E+00 0.  1.
         11    1    3    3    0    0 -0.27271447954E+01 -0.72388311315E+01 -0.91072206851E+01  0.11949036101E+02  0.51100000000E-03 0. -1.
        -11    1    3    3    0    0 -0.46706857765E+01  0.67421267326E+01  0.69480886208E-01  0.82022195993E+01  0.51100000000E-03 0.  1.
        -12    1    3    3    0    0 -0.31618555689E+01 -0.16772476689E+01 -0.30166003007E+02  0.30377594174E+02  0.00000000000E+00 0.  1.
</event>
<event>
 7    1  0.5019004E-011  0.5052886E+02  0.7816164E-02  0.1300439E+00
        -11   -1    0    0    0    0  0.00000000000E+00  0.00000000000E+00  0.45593999997E+02  0.45594000000E+02  0.51100000000E-03 0. -1.
         11   -1    0    0    0    0 -0.00000000000E+00 -0.00000000000E+00 -0.45593999997E+02  0.45594000000E+02  0.51100000000E-03 0.  1.
    9900012    2    1    2    0    0 -0.12172907825E+02  0.37625869008E+02  0.94488029217E+01  0.50528861050E+02  0.30000003647E+02 0.  0.
        -12    1    1    2    0    0  0.12172907825E+02 -0.37625869008E+02 -0.94488029217E+01  0.40659138950E+02  0.00000000000E+00 0.  1.
         11    1    3    3    0    0 -0.55700125870E+01  0.23903998257E+02 -0.70895848578E+01  0.25547766764E+02  0.51100000000E-03 0. -1.
        -11    1    3    3    0    0  0.16023270468E+01 -0.98382519405E+00  0.15414918679E+01  0.24313702756E+01  0.51100000000E-03 0.  1.
         12    1    3    3    0    0 -0.82052222848E+01  0.14705695945E+02  0.14996895912E+02  0.22549724010E+02  0.00000000000E+00 0. -1.
</event>
<event>
 7    1  0.5019004E-011  0.5052886E+02  0.7816164E-02  0.1300439E+00
        -11   -1    0    0    0    0  0.00000000000E+00  0.00000000000E+00  0.45593999997E+02  0.45594000000E+02  0.51100000000E-03 0.  1.
         11   -1    0    0    0    0 -0.00000000000E+00 -0.00000000000E+00 -0.45593999997E+02  0.45594000000E+02  0.51100000000E-03 0. -1.
    9900012    2    1    2    0    0 -0.28372930807E+02  0.28832346456E+02 -0.41034456880E+01  0.50528859930E+02  0.30000000242E+02 0.  0.
        -12    1    1    2    0    0  0.28372930807E+02 -0.28832346456E+02  0.41034456880E+01  0.40659140070E+02  0.00000000000E+00 0.  1.
         11    1    3    3    0    0 -0.14805967592E+02 -0.15765851882E+01 -0.67942476090E+00  0.14905164053E+02  0.51100000000E-03 0. -1.
        -11    1    3    3    0    0 -0.63740397940E+01  0.12011874047E+02  0.45244855514E+01  0.14331241090E+02  0.51100000000E-03 0.  1.
         12    1    3    3    0    0 -0.71929234208E+01  0.18397057598E+02 -0.79485064785E+01  0.21292454787E+02  0.00000000000E+00 0. -1.
</event>
<event>
 7    1  0.5019004E-011  0.5052896E+02  0.7816164E-02  0.1300438E+00
        -11   -1    0    0    0    0  0.00000000000E+00  0.00000000000E+00  0.45593999997E+02  0.45594000000E+02  0.51100000000E-03 0.  1.
         11   -1    0    0    0    0 -0.00000000000E+00 -0.00000000000E+00 -0.45593999997E+02  0.45594000000E+02  0.51100000000E-03 0. -1.
    9900012    2    1    2    0    0  0.13972186263E+02 -0.13928438941E+02 -0.35551856330E+02  0.50528955633E+02  0.30000291142E+02 0.  0.
        -12    1    1    2    0    0 -0.13972186263E+02  0.13928438941E+02  0.35551856330E+02  0.40659044367E+02  0.00000000000E+00 0.  1.
         11    1    3    3    0    0  0.32080544666E+01  0.27854844793E+01  0.34847193042E+01  0.54948890922E+01  0.51100000000E-03 0.  1.
        -11    1    3    3    0    0  0.69453315103E+01 -0.12254072293E+02 -0.16258165723E+02  0.21511110397E+02  0.51100000000E-03 0. -1.
        -12    1    3    3    0    0  0.38188002863E+01 -0.44598511275E+01 -0.22778409911E+02  0.23522956144E+02  0.00000000000E+00 0.  1.
</event>
<event>
 7    1  0.5019004E-011  0.5052886E+02  0.7816164E-02  0.1300439E+00
        -11   -1    0    0    0    0  0.00000000000E+00  0.00000000000E+00  0.45593999997E+02  0.45594000000E+02  0.51100000000E-03 0.  1.
         11   -1    0    0    0    0 -0.00000000000E+00 -0.00000000000E+00 -0.45593999997E+02  0.45594000000E+02  0.51100000000E-03 0. -1.
    9900012    2    1    2    0    0  0.17606113616E+02 -0.25453254003E+02 -0.26368971355E+02  0.50528855563E+02  0.29999986971E+02 0.  0.
        -12    1    1    2    0    0 -0.17606113616E+02  0.25453254003E+02  0.26368971355E+02  0.40659144437E+02  0.00000000000E+00 0.  1.
         11    1    3    3    0    0  0.12306541118E+02 -0.27720210785E+02 -0.17783891449E+02  0.35158609694E+02  0.51100000000E-03 0. -1.
        -11    1    3    3    0    0  0.45821976007E+00  0.58435851494E+01 -0.70306621605E+01  0.91535601501E+01  0.51100000000E-03 0.  1.
        -12    1    3    3    0    0  0.48413527377E+01 -0.35766283671E+01 -0.15544177454E+01  0.62166857194E+01  0.00000000000E+00 0.  1.
</event>
<event>
 7    1  0.5019004E-011  0.5052886E+02  0.7816164E-02  0.1300439E+00
        -11   -1    0    0    0    0  0.00000000000E+00  0.00000000000E+00  0.45593999997E+02  0.45594000000E+02  0.51100000000E-03 0. -1.
         11   -1    0    0    0    0 -0.00000000000E+00 -0.00000000000E+00 -0.45593999997E+02  0.45594000000E+02  0.51100000000E-03 0.  1.
    9900012    2    1    2    0    0  0.30123462194E+02 -0.80400476337E+01  0.26097900367E+02  0.50528859035E+02  0.29999997522E+02 0.  0.
        -12    1    1    2    0    0 -0.30123462194E+02  0.80400476337E+01 -0.26097900367E+02  0.40659140965E+02  0.00000000000E+00 0.  1.
         11    1    3    3    0    0  0.34682735179E+01 -0.73037710557E+01  0.19477169902E+02  0.21088720693E+02  0.51100000000E-03 0. -1.
        -11    1    3    3    0    0  0.93992612355E+01 -0.52370468168E+01  0.13488564885E+01  0.10843993048E+02  0.51100000000E-03 0.  1.
         12    1    3    3    0    0  0.17255927440E+02  0.45007702388E+01  0.52718739763E+01  0.18596145294E+02  0.00000000000E+00 0. -1.
</event>
<event>
 7    1  0.5019004E-011  0.5052887E+02  0.7816164E-02  0.1300439E+00
        -11   -1    0    0    0    0  0.00000000000E+00  0.00000000000E+00  0.45593999997E+02  0.45594000000E+02  0.51100000000E-03 0.  1.
         11   -1    0    0    0    0 -0.00000000000E+00 -0.00000000000E+00 -0.45593999997E+02  0.45594000000E+02  0.51100000000E-03 0. -1.
    9900012    2    1    2    0    0 -0.24265671403E+01 -0.14339914270E+02 -0.37968982520E+02  0.50528868148E+02  0.30000025223E+02 0.  0.
        -12    1    1    2    0    0  0.24265671403E+01  0.14339914270E+02  0.37968982520E+02  0.40659131852E+02  0.00000000000E+00 0.  1.
         11    1    3    3    0    0 -0.75653254326E+01 -0.79224747160E+01 -0.11481513484E+02  0.15868991987E+02  0.51100000000E-03 0. -1.
        -11    1    3    3    0    0  0.12291980628E+02 -0.65765506422E+01 -0.11574889101E+02  0.18119654082E+02  0.51100000000E-03 0.  1.
        -12    1    3    3    0    0 -0.71532223354E+01  0.15911108842E+00 -0.14912579934E+02  0.16540222079E+02  0.00000000000E+00 0.  1.
</event>
<event>
 7    1  0.5019004E-011  0.5052886E+02  0.7816164E-02  0.1300439E+00
        -11   -1    0    0    0    0  0.00000000000E+00  0.00000000000E+00  0.45593999997E+02  0.45594000000E+02  0.51100000000E-03 0.  1.
         11   -1    0    0    0    0 -0.00000000000E+00 -0.00000000000E+00 -0.45593999997E+02  0.45594000000E+02  0.51100000000E-03 0. -1.
    9900012    2    1    2    0    0 -0.20514279679E+01 -0.26080198311E+02 -0.31125242425E+02  0.50528858141E+02  0.29999994806E+02 0.  0.
        -12    1    1    2    0    0  0.20514279679E+01  0.26080198311E+02  0.31125242425E+02  0.40659141859E+02  0.00000000000E+00 0.  1.
         11    1    3    3    0    0  0.73947753089E-01 -0.29673456640E+02 -0.15719971848E+02  0.33580306913E+02  0.51100000000E-03 0. -1.
        -11    1    3    3    0    0 -0.35164046492E+01  0.88686143292E+00 -0.55130821423E+01  0.65989165646E+01  0.51100000000E-03 0.  1.
         12    1    3    3    0    0  0.13910289281E+01  0.27063968955E+01 -0.98921884352E+01  0.10349634664E+02  0.00000000000E+00 0. -1.
</event>
<event>
 7    1  0.5019004E-011  0.5052885E+02  0.7816164E-02  0.1300439E+00
        -11   -1    0    0    0    0  0.00000000000E+00  0.00000000000E+00  0.45593999997E+02  0.45594000000E+02  0.51100000000E-03 0.  1.
         11   -1    0    0    0    0 -0.00000000000E+00 -0.00000000000E+00 -0.45593999997E+02  0.45594000000E+02  0.51100000000E-03 0. -1.
    9900012    2    1    2    0    0  0.47350445488E+01  0.58267405072E+01 -0.39959916589E+02  0.50528849916E+02  0.29999969803E+02 0.  0.
        -12    1    1    2    0    0 -0.47350445488E+01 -0.58267405072E+01  0.39959916589E+02  0.40659150084E+02  0.00000000000E+00 0.  1.
         11    1    3    3    0    0 -0.53445666096E+01 -0.51209288509E+01 -0.14453720127E+02  0.16238790913E+02  0.51100000000E-03 0. -1.
        -11    1    3    3    0    0  0.85891043734E+01  0.15721972932E+02 -0.20097205875E+02  0.26923053895E+02  0.51100000000E-03 0.  1.
        -12    1    3    3    0    0  0.14905067850E+01 -0.47743035735E+01 -0.54089905859E+01  0.73670051069E+01  0.00000000000E+00 0.  1.
</event>
<event>
 7    1  0.5019004E-011  0.5052887E+02  0.7816164E-02  0.1300439E+00
        -11   -1    0    0    0    0  0.00000000000E+00  0.00000000000E+00  0.45593999997E+02  0.45594000000E+02  0.51100000000E-03 0. -1.
         11   -1    0    0    0    0 -0.00000000000E+00 -0.00000000000E+00 -0.45593999997E+02  0.45594000000E+02  0.51100000000E-03 0.  1.
    9900012    2    1    2    0    0  0.21245906594E+02 -0.24564674771E+02  0.24461248635E+02  0.50528874599E+02  0.30000044831E+02 0.  0.
        -12    1    1    2    0    0 -0.21245906594E+02  0.24564674771E+02 -0.24461248635E+02  0.40659125401E+02  0.00000000000E+00 0.  1.
         11    1    3    3    0    0  0.55141449150E+01 -0.15780530521E+02  0.18830798242E+02  0.25179950364E+02  0.51100000000E-03 0. -1.
        -11    1    3    3    0    0  0.77543755627E+01  0.70264647858E+00 -0.48020191595E+01  0.91478653636E+01  0.51100000000E-03 0.  1.
        -12    1    3    3    0    0  0.79773861168E+01 -0.94867907288E+01  0.10432469552E+02  0.16201058871E+02  0.00000000000E+00 0.  1.
</event>
<event>
 7    1  0.5019004E-011  0.5052887E+02  0.7816164E-02  0.1300439E+00
        -11   -1    0    0    0    0  0.00000000000E+00  0.00000000000E+00  0.45593999997E+02  0.45594000000E+02  0.51100000000E-03 0. -1.
         11   -1    0    0    0    0 -0.00000000000E+00 -0.00000000000E+00 -0.45593999997E+02  0.45594000000E+02  0.51100000000E-03 0.  1.
    9900012    2    1    2    0    0 -0.28181183025E+02 -0.29211944182E+02  0.23766565155E+01  0.50528865040E+02  0.30000015774E+02 0.  0.
        -12    1    1    2    0    0  0.28181183025E+02  0.29211944182E+02 -0.23766565155E+01  0.40659134960E+02  0.00000000000E+00 0.  1.
         11    1    3    3    0    0 -0.12428841870E+02 -0.29714537318E+02  0.21127459807E+01  0.32278375642E+02  0.51100000000E-03 0. -1.
        -11    1    3    3    0    0 -0.69671547676E-01  0.12314292762E+01 -0.20388677316E+01  0.23829087424E+01  0.51100000000E-03 0.  1.
         12    1    3    3    0    0 -0.15682669607E+02 -0.72883614027E+00  0.23027782664E+01  0.15867580655E+02  0.00000000000E+00 0. -1.
</event>
<event>
 7    1  0.5019004E-011  0.5052887E+02  0.7816164E-02  0.1300439E+00
        -11   -1    0    0    0    0  0.00000000000E+00  0.00000000000E+00  0.45593999997E+02  0.45594000000E+02  0.51100000000E-03 0.  1.
         11   -1    0    0    0    0 -0.00000000000E+00 -0.00000000000E+00 -0.45593999997E+02  0.45594000000E+02  0.51100000000E-03 0. -1.
    9900012    2    1    2    0    0 -0.84528180229E-01  0.31224051457E+02 -0.26042594258E+02  0.50528865109E+02  0.30000015985E+02 0.  0.
        -12    1    1    2    0    0  0.84528180229E-01 -0.31224051457E+02  0.26042594258E+02  0.40659134891E+02  0.00000000000E+00 0.  1.
         11    1    3    3    0    0  0.57039856996E+01  0.10268530441E+02 -0.11310393239E+02  0.16306537516E+02  0.51100000000E-03 0. -1.
        -11    1    3    3    0    0 -0.36456798528E+01  0.13989915463E+02  0.32513371488E+01  0.14818228969E+02  0.51100000000E-03 0.  1.
        -12    1    3    3    0    0 -0.21428340270E+01  0.69656055525E+01 -0.17983538168E+02  0.19404098624E+02  0.00000000000E+00 0.  1.
</event>
<event>
 7    1  0.5019004E-011  0.5052888E+02  0.7816164E-02  0.1300439E+00
        -11   -1    0    0    0    0  0.00000000000E+00  0.00000000000E+00  0.45593999997E+02  0.45594000000E+02  0.51100000000E-03 0. -1.
         11   -1    0    0    0    0 -0.00000000000E+00 -0.00000000000E+00 -0.45593999997E+02  0.45594000000E+02  0.51100000000E-03 0.  1.
    9900012    2    1    2    0    0  0.97014921024E+01 -0.51888595226E+01  0.39142311075E+02  0.50528883821E+02  0.30000072862E+02 0.  0.
        -12    1    1    2    0    0 -0.97014921024E+01  0.51888595226E+01 -0.39142311075E+02  0.40659116179E+02  0.00000000000E+00 0.  1.
         11    1    3    3    0    0  0.60813048086E+00  0.40736666619E+01 -0.29398137273E+00  0.41292866288E+01  0.51100000000E-03 0. -1.
        -11    1    3    3    0    0  0.14153551302E+02 -0.56092631322E+01  0.36407081822E+02  0.39462164847E+02  0.51100000000E-03 0.  1.
        -12    1    3    3    0    0 -0.50601896804E+01 -0.36532630523E+01  0.30292106259E+01  0.69374323454E+01  0.00000000000E+00 0.  1.
</event>
<event>
 7    1  0.5019004E-011  0.5052886E+02  0.7816164E-02  0.1300439E+00
        -11   -1    0    0    0    0  0.00000000000E+00  0.00000000000E+00  0.45593999997E+02  0.45594000000E+02  0.51100000000E-03 0.  1.
         11   -1    0    0    0    0 -0.00000000000E+00 -0.00000000000E+00 -0.45593999997E+02  0.45594000000E+02  0.51100000000E-03 0. -1.
    9900012    2    1    2    0    0  0.39145217579E+02  0.83109786959E+01 -0.71934285791E+01  0.50528857844E+02  0.29999993902E+02 0.  0.
        -12    1    1    2    0    0 -0.39145217579E+02 -0.83109786959E+01  0.71934285791E+01  0.40659142156E+02  0.00000000000E+00 0.  1.
         11    1    3    3    0    0  0.22629972907E+02  0.12783958883E+02  0.58113882374E+01  0.26633015451E+02  0.51100000000E-03 0. -1.
        -11    1    3    3    0    0 -0.71092529002E+00 -0.25159671647E+01 -0.95868576076E+00  0.27847054047E+01  0.51100000000E-03 0.  1.
         12    1    3    3    0    0  0.17226169961E+02 -0.19570130229E+01 -0.12046131056E+02  0.21111136988E+02  0.00000000000E+00 0. -1.
</event>
<event>
 7    1  0.5019004E-011  0.5052888E+02  0.7816164E-02  0.1300439E+00
        -11   -1    0    0    0    0  0.00000000000E+00  0.00000000000E+00  0.45593999997E+02  0.45594000000E+02  0.51100000000E-03 0. -1.
         11   -1    0    0    0    0 -0.00000000000E+00 -0.00000000000E+00 -0.45593999997E+02  0.45594000000E+02  0.51100000000E-03 0.  1.
    9900012    2    1    2    0    0  0.36511465750E+02 -0.17772454268E+02 -0.20533857369E+01  0.50528884726E+02  0.30000075613E+02 0.  0.
        -12    1    1    2    0    0 -0.36511465750E+02  0.17772454268E+02  0.20533857369E+01  0.40659115274E+02  0.00000000000E+00 0.  1.
         11    1    3    3    0    0  0.77099468621E+00 -0.12998285263E+02  0.28166241358E+01  0.13322283002E+02  0.51100000000E-03 0. -1.
        -11    1    3    3    0    0  0.21686363272E+02 -0.30483315628E+00 -0.57339791777E+01  0.22433675417E+02  0.51100000000E-03 0.  1.
        -12    1    3    3    0    0  0.14054107791E+02 -0.44693358478E+01  0.86396930502E+00  0.14772926308E+02  0.00000000000E+00 0.  1.
</event>
<event>
 7    1  0.5019004E-011  0.5052889E+02  0.7816164E-02  0.1300439E+00
        -11   -1    0    0    0    0  0.00000000000E+00  0.00000000000E+00  0.45593999997E+02  0.45594000000E+02  0.51100000000E-03 0. -1.
         11   -1    0    0    0    0 -0.00000000000E+00 -0.00000000000E+00 -0.45593999997E+02  0.45594000000E+02  0.51100000000E-03 0.  1.
    9900012    2    1    2    0    0 -0.25285454508E+02  0.32485534706E+01  0.31674210273E+02  0.50528893938E+02  0.30000103614E+02 0.  0.
        -12    1    1    2    0    0  0.25285454508E+02 -0.32485534706E+01 -0.31674210273E+02  0.40659106062E+02  0.00000000000E+00 0.  1.
         11    1    3    3    0    0 -0.17860731443E+02  0.13979004103E+02  0.15286615466E+02  0.27351396602E+02  0.51100000000E-03 0. -1.
        -11    1    3    3    0    0 -0.34985502846E+01 -0.60680638125E+01  0.15511402412E+02  0.17019543400E+02  0.51100000000E-03 0.  1.
         12    1    3    3    0    0 -0.39261727809E+01 -0.46623868202E+01  0.87619239512E+00  0.61579539362E+01  0.00000000000E+00 0. -1.
</event>
<event>
 7    1  0.5019004E-011  0.5052886E+02  0.7816164E-02  0.1300439E+00
        -11   -1    0    0    0    0  0.00000000000E+00  0.00000000000E+00  0.45593999997E+02  0.45594000000E+02  0.51100000000E-03 0.  1.
         11   -1    0    0    0    0 -0.00000000000E+00 -0.00000000000E+00 -0.45593999997E+02  0.45594000000E+02  0.51100000000E-03 0. -1.
    9900012    2    1    2    0    0  0.96375942013E+01 -0.39216207015E+02 -0.47298610269E+01  0.50528859577E+02  0.29999999170E+02 0.  0.
        -12    1    1    2    0    0 -0.96375942013E+01  0.39216207015E+02  0.47298610269E+01  0.40659140423E+02  0.00000000000E+00 0.  1.
         11    1    3    3    0    0  0.77397358847E+01 -0.23537904885E+02 -0.12882311072E+02  0.27926518164E+02  0.51100000000E-03 0. -1.
        -11    1    3    3    0    0  0.29767940396E+01 -0.16823517995E+02  0.10292891874E+02  0.19945818706E+02  0.51100000000E-03 0.  1.
         12    1    3    3    0    0 -0.10789357229E+01  0.11452158651E+01 -0.21404418283E+01  0.26565227068E+01  0.00000000000E+00 0. -1.
</event>
<event>
 7    1  0.5019004E-011  0.5052885E+02  0.7816164E-02  0.1300439E+00
        -11   -1    0    0    0    0  0.00000000000E+00  0.00000000000E+00  0.45593999997E+02  0.45594000000E+02  0.51100000000E-03 0.  1.
         11   -1    0    0    0    0 -0.00000000000E+00 -0.00000000000E+00 -0.45593999997E+02  0.45594000000E+02  0.51100000000E-03 0. -1.
    9900012    2    1    2    0    0  0.80510435356E+01  0.36392566348E+02 -0.16245867040E+02  0.50528851174E+02  0.29999973628E+02 0.  0.
        -12    1    1    2    0    0 -0.80510435356E+01 -0.36392566348E+02  0.16245867040E+02  0.40659148826E+02  0.00000000000E+00 0.  1.
         11    1    3    3    0    0  0.78095090171E+01  0.31791112475E+02 -0.24447964065E+02  0.40857878195E+02  0.51100000000E-03 0. -1.
        -11    1    3    3    0    0  0.90133973739E+00  0.63861638425E+00  0.16661734958E+01  0.19990944419E+01  0.51100000000E-03 0.  1.
         12    1    3    3    0    0 -0.65980521895E+00  0.39628374893E+01  0.65359235295E+01  0.76718785364E+01  0.00000000000E+00 0. -1.
</event>
<event>
 7    1  0.5019004E-011  0.5052886E+02  0.7816164E-02  0.1300439E+00
        -11   -1    0    0    0    0  0.00000000000E+00  0.00000000000E+00  0.45593999997E+02  0.45594000000E+02  0.51100000000E-03 0.  1.
         11   -1    0    0    0    0 -0.00000000000E+00 -0.00000000000E+00 -0.45593999997E+02  0.45594000000E+02  0.51100000000E-03 0. -1.
    9900012    2    1    2    0    0 -0.13436362165E+02 -0.11899674685E+02 -0.36483246307E+02  0.50528863918E+02  0.30000012364E+02 0.  0.
        -12    1    1    2    0    0  0.13436362165E+02  0.11899674685E+02  0.36483246307E+02  0.40659136082E+02  0.00000000000E+00 0.  1.
         11    1    3    3    0    0 -0.39444329141E+01  0.47263184870E+01  0.23999739040E+01  0.66073075042E+01  0.51100000000E-03 0. -1.
        -11    1    3    3    0    0  0.24652679535E+00 -0.25300639412E+01 -0.10191838115E+02  0.10504073659E+02  0.51100000000E-03 0.  1.
         12    1    3    3    0    0 -0.97384560462E+01 -0.14095929231E+02 -0.28691382096E+02  0.33417482754E+02  0.00000000000E+00 0. -1.
</event>
<event>
 7    1  0.5019004E-011  0.5052886E+02  0.7816164E-02  0.1300439E+00
        -11   -1    0    0    0    0  0.00000000000E+00  0.00000000000E+00  0.45593999997E+02  0.45594000000E+02  0.51100000000E-03 0.  1.
         11   -1    0    0    0    0 -0.00000000000E+00 -0.00000000000E+00 -0.45593999997E+02  0.45594000000E+02  0.51100000000E-03 0. -1.
    9900012    2    1    2    0    0 -0.36713379780E+02 -0.11600781760E+02 -0.13065816351E+02  0.50528856512E+02  0.29999989852E+02 0.  0.
        -12    1    1    2    0    0  0.36713379780E+02  0.11600781760E+02  0.13065816351E+02  0.40659143488E+02  0.00000000000E+00 0.  1.
         11    1    3    3    0    0 -0.17473380984E+02 -0.15472450226E+01 -0.40848148861E+01  0.18011072236E+02  0.51100000000E-03 0. -1.
        -11    1    3    3    0    0 -0.52276331911E+01 -0.76622900250E+01 -0.14546442231E+02  0.17252183023E+02  0.51100000000E-03 0.  1.
        -12    1    3    3    0    0 -0.14012365604E+02 -0.23912467128E+01  0.55654407666E+01  0.15265601252E+02  0.00000000000E+00 0.  1.
</event>
<event>
 7    1  0.5019004E-011  0.5052886E+02  0.7816164E-02  0.1300439E+00
        -11   -1    0    0    0    0  0.00000000000E+00  0.00000000000E+00  0.45593999997E+02  0.45594000000E+02  0.51100000000E-03 0.  1.
         11   -1    0    0    0    0 -0.00000000000E+00 -0.00000000000E+00 -0.45593999997E+02  0.45594000000E+02  0.51100000000E-03 0. -1.
    9900012    2    1    2    0    0  0.39391059046E+02  0.99349682274E+01 -0.16752233343E+01  0.50528862040E+02  0.30000006656E+02 0.  0.
        -12    1    1    2    0    0 -0.39391059046E+02 -0.99349682274E+01  0.16752233343E+01  0.40659137960E+02  0.00000000000E+00 0.  1.
         11    1    3    3    0    0  0.21473816695E+02  0.55043958003E+01  0.11395929330E+02  0.24925697225E+02  0.51100000000E-03 0. -1.
        -11    1    3    3    0    0  0.34949037682E+01  0.65608984106E+01 -0.42271713382E+01  0.85515330840E+01  0.51100000000E-03 0.  1.
         12    1    3    3    0    0  0.14422338583E+02 -0.21303259835E+01 -0.88439813266E+01  0.17051631731E+02  0.00000000000E+00 0. -1.
</event>
<event>
 7    1  0.5019004E-011  0.5052886E+02  0.7816164E-02  0.1300439E+00
        -11   -1    0    0    0    0  0.00000000000E+00  0.00000000000E+00  0.45593999997E+02  0.45594000000E+02  0.51100000000E-03 0.  1.
         11   -1    0    0    0    0 -0.00000000000E+00 -0.00000000000E+00 -0.45593999997E+02  0.45594000000E+02  0.51100000000E-03 0. -1.
    9900012    2    1    2    0    0  0.82355162967E+01 -0.21833181992E+02 -0.33296454314E+02  0.50528862841E+02  0.30000009093E+02 0.  0.
        -12    1    1    2    0    0 -0.82355162967E+01  0.21833181992E+02  0.33296454314E+02  0.40659137159E+02  0.00000000000E+00 0.  1.
         11    1    3    3    0    0 -0.28564533606E+00  0.38083875518E+01 -0.50752375089E+00  0.38526600709E+01  0.51100000000E-03 0. -1.
        -11    1    3    3    0    0 -0.65062556981E+00 -0.23844262293E+02 -0.22813479711E+02  0.33006469286E+02  0.51100000000E-03 0.  1.
        -12    1    3    3    0    0  0.91717872025E+01 -0.17973072512E+01 -0.99754508518E+01  0.13669733485E+02  0.00000000000E+00 0.  1.
</event>
<event>
 7    1  0.5019004E-011  0.5052886E+02  0.7816164E-02  0.1300439E+00
        -11   -1    0    0    0    0  0.00000000000E+00  0.00000000000E+00  0.45593999997E+02  0.45594000000E+02  0.51100000000E-03 0. -1.
         11   -1    0    0    0    0 -0.00000000000E+00 -0.00000000000E+00 -0.45593999997E+02  0.45594000000E+02  0.51100000000E-03 0.  1.
    9900012    2    1    2    0    0 -0.30438226501E+02 -0.12789854304E+02 -0.23729713297E+02  0.50528864510E+02  0.30000014165E+02 0.  0.
        -12    1    1    2    0    0  0.30438226501E+02  0.12789854304E+02  0.23729713297E+02  0.40659135490E+02  0.00000000000E+00 0.  1.
         11    1    3    3    0    0 -0.24313763849E+02 -0.16459225608E+02 -0.10043786547E+02  0.31031320768E+02  0.51100000000E-03 0. -1.
        -11    1    3    3    0    0 -0.81021179820E+01  0.26684298965E+01 -0.14749875969E+02  0.17038887149E+02  0.51100000000E-03 0.  1.
        -12    1    3    3    0    0  0.19776553296E+01  0.10009414079E+01  0.10639492196E+01  0.24586565939E+01  0.00000000000E+00 0.  1.
</event>
<event>
 7    1  0.5019004E-011  0.5052883E+02  0.7816164E-02  0.1300439E+00
        -11   -1    0    0    0    0  0.00000000000E+00  0.00000000000E+00  0.45593999997E+02  0.45594000000E+02  0.51100000000E-03 0.  1.
         11   -1    0    0    0    0 -0.00000000000E+00 -0.00000000000E+00 -0.45593999997E+02  0.45594000000E+02  0.51100000000E-03 0. -1.
    9900012    2    1    2    0    0 -0.26324815684E+02 -0.11975291002E+02 -0.28579093143E+02  0.50528830305E+02  0.29999910196E+02 0.  0.
        -12    1    1    2    0    0  0.26324815684E+02  0.11975291002E+02  0.28579093143E+02  0.40659169695E+02  0.00000000000E+00 0.  1.
         11    1    3    3    0    0 -0.91000659514E+01  0.89810695630E+01 -0.31852600131E+01  0.13176368712E+02  0.51100000000E-03 0. -1.
        -11    1    3    3    0    0 -0.94138213123E+01 -0.13572314071E+02 -0.17110977287E+02  0.23782625694E+02  0.51100000000E-03 0.  1.
         12    1    3    3    0    0 -0.78109284208E+01 -0.73840464940E+01 -0.82828558425E+01  0.13569835899E+02  0.00000000000E+00 0. -1.
</event>
<event>
 7    1  0.5019004E-011  0.5052886E+02  0.7816164E-02  0.1300439E+00
        -11   -1    0    0    0    0  0.00000000000E+00  0.00000000000E+00  0.45593999997E+02  0.45594000000E+02  0.51100000000E-03 0.  1.
         11   -1    0    0    0    0 -0.00000000000E+00 -0.00000000000E+00 -0.45593999997E+02  0.45594000000E+02  0.51100000000E-03 0. -1.
    9900012    2    1    2    0    0 -0.22282982310E+02  0.10261117737E+02 -0.32424434987E+02  0.50528858076E+02  0.29999994607E+02 0.  0.
        -12    1    1    2    0    0  0.22282982310E+02 -0.10261117737E+02  0.32424434987E+02  0.40659141924E+02  0.00000000000E+00 0.  1.
         11    1    3    3    0    0  0.32357946288E+01  0.14981474087E+01 -0.26509271442E+01  0.44432226506E+01  0.51100000000E-03 0. -1.
        -11    1    3    3    0    0 -0.21589719309E+02 -0.23619863819E+01 -0.25598116572E+02  0.33570203035E+02  0.51100000000E-03 0.  1.
        -12    1    3    3    0    0 -0.39290576296E+01  0.11124956710E+02 -0.41753912706E+01  0.12515432390E+02  0.00000000000E+00 0.  1.
</event>
<event>
 7    1  0.5019004E-011  0.5052895E+02  0.7816164E-02  0.1300438E+00
        -11   -1    0    0    0    0  0.00000000000E+00  0.00000000000E+00  0.45593999997E+02  0.45594000000E+02  0.51100000000E-03 0.  1.
         11   -1    0    0    0    0 -0.00000000000E+00 -0.00000000000E+00 -0.45593999997E+02  0.45594000000E+02  0.51100000000E-03 0. -1.
    9900012    2    1    2    0    0  0.31337634773E+02 -0.32424318607E+01 -0.25702094748E+02  0.50528949445E+02  0.30000272333E+02 0.  0.
        -12    1    1    2    0    0 -0.31337634773E+02  0.32424318607E+01  0.25702094748E+02  0.40659050555E+02  0.00000000000E+00 0.  1.
         11    1    3    3    0    0  0.63153662339E-01  0.39229154971E+00 -0.14155419694E+02  0.14160995305E+02  0.51100000000E-03 0.  1.
        -11    1    3    3    0    0  0.23964868321E+02 -0.54474307688E+01 -0.14199491773E+02  0.28383357492E+02  0.51100000000E-03 0. -1.
         12    1    3    3    0    0  0.73096127898E+01  0.18127073584E+01  0.26528167188E+01  0.79845966491E+01  0.00000000000E+00 0. -1.
</event>
<event>
 7    1  0.5019004E-011  0.5052886E+02  0.7816164E-02  0.1300439E+00
        -11   -1    0    0    0    0  0.00000000000E+00  0.00000000000E+00  0.45593999997E+02  0.45594000000E+02  0.51100000000E-03 0.  1.
         11   -1    0    0    0    0 -0.00000000000E+00 -0.00000000000E+00 -0.45593999997E+02  0.45594000000E+02  0.51100000000E-03 0. -1.
    9900012    2    1    2    0    0  0.62232104007E+01  0.12541014240E+02 -0.38172772601E+02  0.50528856454E+02  0.29999989677E+02 0.  0.
        -12    1    1    2    0    0 -0.62232104007E+01 -0.12541014240E+02  0.38172772601E+02  0.40659143546E+02  0.00000000000E+00 0.  1.
         11    1    3    3    0    0  0.91538514965E+01 -0.21877754977E+01 -0.17379145803E+02  0.19763958813E+02  0.51100000000E-03 0. -1.
        -11    1    3    3    0    0 -0.87290096735E+01  0.10689364417E+02 -0.74931745735E+01  0.15703687050E+02  0.51100000000E-03 0.  1.
        -12    1    3    3    0    0  0.57983685777E+01  0.40394253206E+01 -0.13300452224E+02  0.15061210591E+02  0.00000000000E+00 0.  1.
</event>
<event>
 7    1  0.5019004E-011  0.5052887E+02  0.7816164E-02  0.1300439E+00
        -11   -1    0    0    0    0  0.00000000000E+00  0.00000000000E+00  0.45593999997E+02  0.45594000000E+02  0.51100000000E-03 0. -1.
         11   -1    0    0    0    0 -0.00000000000E+00 -0.00000000000E+00 -0.45593999997E+02  0.45594000000E+02  0.51100000000E-03 0.  1.
    9900012    2    1    2    0    0  0.30981642595E+02  0.26140886523E+02 -0.31554678497E+01  0.50528866912E+02  0.30000021466E+02 0.  0.
        -12    1    1    2    0    0 -0.30981642595E+02 -0.26140886523E+02  0.31554678497E+01  0.40659133088E+02  0.00000000000E+00 0.  1.
         11    1    3    3    0    0  0.26239516894E+00 -0.37309059931E+01 -0.43213529496E+01  0.57151205001E+01  0.51100000000E-03 0.  1.
        -11    1    3    3    0    0  0.23029531554E+02  0.27807727114E+02  0.40793405949E+01  0.36335520236E+02  0.51100000000E-03 0. -1.
        -12    1    3    3    0    0  0.76897158716E+01  0.20640654022E+01 -0.29134554950E+01  0.84782261761E+01  0.00000000000E+00 0.  1.
</event>
<event>
 7    1  0.5019004E-011  0.5052886E+02  0.7816164E-02  0.1300439E+00
        -11   -1    0    0    0    0  0.00000000000E+00  0.00000000000E+00  0.45593999997E+02  0.45594000000E+02  0.51100000000E-03 0. -1.
         11   -1    0    0    0    0 -0.00000000000E+00 -0.00000000000E+00 -0.45593999997E+02  0.45594000000E+02  0.51100000000E-03 0.  1.
    9900012    2    1    2    0    0  0.25037331405E+02 -0.54436757697E+00  0.32031259135E+02  0.50528857588E+02  0.29999993124E+02 0.  0.
        -12    1    1    2    0    0 -0.25037331405E+02  0.54436757697E+00 -0.32031259135E+02  0.40659142412E+02  0.00000000000E+00 0.  1.
         11    1    3    3    0    0 -0.26437531922E+00 -0.27749017481E+01  0.14303059529E+02  0.14572147617E+02  0.51100000000E-03 0. -1.
        -11    1    3    3    0    0  0.12380715169E+02 -0.16243887134E+00 -0.17039917274E+01  0.12498483210E+02  0.51100000000E-03 0.  1.
         12    1    3    3    0    0  0.12920991554E+02  0.23929730425E+01  0.19432191333E+02  0.23458226760E+02  0.00000000000E+00 0. -1.
</event>
<event>
 7    1  0.5019004E-011  0.5052886E+02  0.7816164E-02  0.1300439E+00
        -11   -1    0    0    0    0  0.00000000000E+00  0.00000000000E+00  0.45593999997E+02  0.45594000000E+02  0.51100000000E-03 0.  1.
         11   -1    0    0    0    0 -0.00000000000E+00 -0.00000000000E+00 -0.45593999997E+02  0.45594000000E+02  0.51100000000E-03 0. -1.
    9900012    2    1    2    0    0  0.34637563534E+02  0.18191265043E+01 -0.21215459057E+02  0.50528859185E+02  0.29999997979E+02 0.  0.
        -12    1    1    2    0    0 -0.34637563534E+02 -0.18191265043E+01  0.21215459057E+02  0.40659140815E+02  0.00000000000E+00 0.  1.
         11    1    3    3    0    0  0.24715396271E+02 -0.59320774051E+01 -0.11274271036E+02  0.27805566760E+02  0.51100000000E-03 0. -1.
        -11    1    3    3    0    0  0.11394229042E+01  0.92615065550E+01 -0.10178423827E+02  0.13808479282E+02  0.51100000000E-03 0.  1.
        -12    1    3    3    0    0  0.87827443584E+01 -0.15103026456E+01  0.23723580625E+00  0.89148131430E+01  0.00000000000E+00 0.  1.
</event>
<event>
 7    1  0.5019004E-011  0.5052889E+02  0.7816164E-02  0.1300439E+00
        -11   -1    0    0    0    0  0.00000000000E+00  0.00000000000E+00  0.45593999997E+02  0.45594000000E+02  0.51100000000E-03 0.  1.
         11   -1    0    0    0    0 -0.00000000000E+00 -0.00000000000E+00 -0.45593999997E+02  0.45594000000E+02  0.51100000000E-03 0. -1.
    9900012    2    1    2    0    0  0.31312713667E+02 -0.20443316411E+02 -0.15960825677E+02  0.50528890573E+02  0.30000093385E+02 0.  0.
        -12    1    1    2    0    0 -0.31312713667E+02  0.20443316411E+02  0.15960825677E+02  0.40659109427E+02  0.00000000000E+00 0.  1.
         11    1    3    3    0    0  0.32609737199E+02 -0.74484383794E+01 -0.13395610346E+02  0.36032160237E+02  0.51100000000E-03 0. -1.
        -11    1    3    3    0    0 -0.95488585555E+00 -0.25613614640E+01  0.17008973530E+01  0.32195390373E+01  0.51100000000E-03 0.  1.
         12    1    3    3    0    0 -0.34213767653E+00 -0.10433516568E+02 -0.42661126841E+01  0.11277191299E+02  0.00000000000E+00 0. -1.
</event>
<event>
 7    1  0.5019004E-011  0.5052886E+02  0.7816164E-02  0.1300439E+00
        -11   -1    0    0    0    0  0.00000000000E+00  0.00000000000E+00  0.45593999997E+02  0.45594000000E+02  0.51100000000E-03 0. -1.
         11   -1    0    0    0    0 -0.00000000000E+00 -0.00000000000E+00 -0.45593999997E+02  0.45594000000E+02  0.51100000000E-03 0.  1.
    9900012    2    1    2    0    0  0.34784515666E+02  0.22883765059E+01  0.20927642644E+02  0.50528862973E+02  0.30000009491E+02 0.  0.
        -12    1    1    2    0    0 -0.34784515666E+02 -0.22883765059E+01 -0.20927642644E+02  0.40659137027E+02  0.00000000000E+00 0.  1.
         11    1    3    3    0    0  0.24628081330E+01 -0.58344360440E+01  0.12835685811E+02  0.14312962599E+02  0.51100000000E-03 0. -1.
        -11    1    3    3    0    0  0.83214430582E+01  0.70181995547E+01  0.68992637282E-01  0.10886059884E+02  0.51100000000E-03 0.  1.
         12    1    3    3    0    0  0.24000264475E+02  0.11046129953E+01  0.80229641961E+01  0.25329840490E+02  0.00000000000E+00 0. -1.
</event>
<event>
 7    1  0.5019004E-011  0.5052885E+02  0.7816164E-02  0.1300439E+00
        -11   -1    0    0    0    0  0.00000000000E+00  0.00000000000E+00  0.45593999997E+02  0.45594000000E+02  0.51100000000E-03 0.  1.
         11   -1    0    0    0    0 -0.00000000000E+00 -0.00000000000E+00 -0.45593999997E+02  0.45594000000E+02  0.51100000000E-03 0. -1.
    9900012    2    1    2    0    0  0.25850495681E+01 -0.17857525379E+02 -0.36436141386E+02  0.50528854743E+02  0.29999984477E+02 0.  0.
        -12    1    1    2    0    0 -0.25850495681E+01  0.17857525379E+02  0.36436141386E+02  0.40659145257E+02  0.00000000000E+00 0.  1.
         11    1    3    3    0    0 -0.56397641123E+01 -0.14130161921E+02 -0.34839536951E+02  0.38016598354E+02  0.51100000000E-03 0. -1.
        -11    1    3    3    0    0  0.61907249912E+01  0.13978804106E+01  0.98698868117E+00  0.64228726032E+01  0.51100000000E-03 0.  1.
        -12    1    3    3    0    0  0.20340886892E+01 -0.51252438685E+01 -0.25835931158E+01  0.60893837862E+01  0.00000000000E+00 0.  1.
</event>
<event>
 7    1  0.5019004E-011  0.5052886E+02  0.7816164E-02  0.1300439E+00
        -11   -1    0    0    0    0  0.00000000000E+00  0.00000000000E+00  0.45593999997E+02  0.45594000000E+02  0.51100000000E-03 0.  1.
         11   -1    0    0    0    0 -0.00000000000E+00 -0.00000000000E+00 -0.45593999997E+02  0.45594000000E+02  0.51100000000E-03 0. -1.
    9900012    2    1    2    0    0 -0.32129790442E+01  0.40005040289E+02 -0.65145299295E+01  0.50528861014E+02  0.30000003540E+02 0.  0.
        -12    1    1    2    0    0  0.32129790442E+01 -0.40005040289E+02  0.65145299295E+01  0.40659138986E+02  0.00000000000E+00 0.  1.
         11    1    3    3    0    0  0.71900573655E+01  0.13020376890E+02 -0.13754275676E+02  0.20258510283E+02  0.51100000000E-03 0. -1.
        -11    1    3    3    0    0 -0.86073907600E+01  0.15493886465E+02  0.36227972674E+01  0.18090670352E+02  0.51100000000E-03 0.  1.
         12    1    3    3    0    0 -0.17956456496E+01  0.11490776933E+02  0.36169484788E+01  0.12179680379E+02  0.00000000000E+00 0. -1.
</event>
<event>
 7    1  0.5019004E-011  0.5052888E+02  0.7816164E-02  0.1300439E+00
        -11   -1    0    0    0    0  0.00000000000E+00  0.00000000000E+00  0.45593999997E+02  0.45594000000E+02  0.51100000000E-03 0.  1.
         11   -1    0    0    0    0 -0.00000000000E+00 -0.00000000000E+00 -0.45593999997E+02  0.45594000000E+02  0.51100000000E-03 0. -1.
    9900012    2    1    2    0    0  0.46981415679E+01 -0.37945262809E+02 -0.13829269397E+02  0.50528878073E+02  0.30000055391E+02 0.  0.
        -12    1    1    2    0    0 -0.46981415679E+01  0.37945262809E+02  0.13829269397E+02  0.40659121927E+02  0.00000000000E+00 0.  1.
         11    1    3    3    0    0  0.51730107085E+01 -0.37435362770E+01 -0.66456827037E+01  0.92162466605E+01  0.51100000000E-03 0. -1.
        -11    1    3    3    0    0 -0.78002281481E+01 -0.58710850733E+01  0.31824496025E+01  0.10268455815E+02  0.51100000000E-03 0.  1.
        -12    1    3    3    0    0  0.73253590075E+01 -0.28330641458E+02 -0.10366036295E+02  0.31044175597E+02  0.00000000000E+00 0.  1.
</event>
<event>
 7    1  0.5019004E-011  0.5052885E+02  0.7816164E-02  0.1300439E+00
        -11   -1    0    0    0    0  0.00000000000E+00  0.00000000000E+00  0.45593999997E+02  0.45594000000E+02  0.51100000000E-03 0. -1.
         11   -1    0    0    0    0 -0.00000000000E+00 -0.00000000000E+00 -0.45593999997E+02  0.45594000000E+02  0.51100000000E-03 0.  1.
    9900012    2    1    2    0    0  0.16123373840E+02 -0.30118792352E+02  0.22046797845E+02  0.50528854265E+02  0.29999983024E+02 0.  0.
        -12    1    1    2    0    0 -0.16123373840E+02  0.30118792352E+02 -0.22046797845E+02  0.40659145735E+02  0.00000000000E+00 0.  1.
         11    1    3    3    0    0  0.14923606562E+02 -0.31033384401E+02  0.20290787565E+02  0.39968750799E+02  0.51100000000E-03 0. -1.
        -11    1    3    3    0    0 -0.40321326344E+01  0.12291308117E+01  0.29991259245E+01  0.51733560389E+01  0.51100000000E-03 0.  1.
         12    1    3    3    0    0  0.52318999129E+01 -0.31453876223E+00 -0.12431156450E+01  0.53867474266E+01  0.00000000000E+00 0. -1.
</event>
<event>
 7    1  0.5019004E-011  0.5052887E+02  0.7816164E-02  0.1300439E+00
        -11   -1    0    0    0    0  0.00000000000E+00  0.00000000000E+00  0.45593999997E+02  0.45594000000E+02  0.51100000000E-03 0. -1.
         11   -1    0    0    0    0 -0.00000000000E+00 -0.00000000000E+00 -0.45593999997E+02  0.45594000000E+02  0.51100000000E-03 0.  1.
    9900012    2    1    2    0    0  0.30054035623E+02  0.25558580168E+02 -0.98325427858E+01  0.50528868491E+02  0.30000026266E+02 0.  0.
        -12    1    1    2    0    0 -0.30054035623E+02 -0.25558580168E+02  0.98325427858E+01  0.40659131509E+02  0.00000000000E+00 0.  1.
         11    1    3    3    0    0  0.23648713315E+02  0.11524684692E+02 -0.19793947040E+01  0.26381774057E+02  0.51100000000E-03 0. -1.
        -11    1    3    3    0    0 -0.16756095759E+01  0.24001174974E+01 -0.94494759449E+01  0.98924631587E+01  0.51100000000E-03 0.  1.
         12    1    3    3    0    0  0.80809318835E+01  0.11633777979E+02  0.15963278632E+01  0.14254631276E+02  0.00000000000E+00 0. -1.
</event>
<event>
 7    1  0.5019004E-011  0.5052886E+02  0.7816164E-02  0.1300439E+00
        -11   -1    0    0    0    0  0.00000000000E+00  0.00000000000E+00  0.45593999997E+02  0.45594000000E+02  0.51100000000E-03 0.  1.
         11   -1    0    0    0    0 -0.00000000000E+00 -0.00000000000E+00 -0.45593999997E+02  0.45594000000E+02  0.51100000000E-03 0. -1.
    9900012    2    1    2    0    0 -0.15952407334E+02 -0.60798099167E+01 -0.36901517342E+02  0.50528863628E+02  0.30000011482E+02 0.  0.
        -12    1    1    2    0    0  0.15952407334E+02  0.60798099167E+01  0.36901517342E+02  0.40659136372E+02  0.00000000000E+00 0.  1.
         11    1    3    3    0    0 -0.14116100015E+02 -0.11516849106E+02 -0.32004201690E+02  0.36826227325E+02  0.51100000000E-03 0. -1.
        -11    1    3    3    0    0 -0.54979790417E+01  0.55787856876E+01 -0.60103212147E+01  0.98729217893E+01  0.51100000000E-03 0.  1.
         12    1    3    3    0    0  0.36616717219E+01 -0.14174649824E+00  0.11130055623E+01  0.38297145129E+01  0.00000000000E+00 0. -1.
</event>
<event>
 7    1  0.5019004E-011  0.5052886E+02  0.7816164E-02  0.1300439E+00
        -11   -1    0    0    0    0  0.00000000000E+00  0.00000000000E+00  0.45593999997E+02  0.45594000000E+02  0.51100000000E-03 0. -1.
         11   -1    0    0    0    0 -0.00000000000E+00 -0.00000000000E+00 -0.45593999997E+02  0.45594000000E+02  0.51100000000E-03 0.  1.
    9900012    2    1    2    0    0 -0.12167287189E+02 -0.24945741101E+02  0.29712499942E+02  0.50528861674E+02  0.30000005543E+02 0.  0.
        -12    1    1    2    0    0  0.12167287189E+02  0.24945741101E+02 -0.29712499942E+02  0.40659138326E+02  0.00000000000E+00 0.  1.
         11    1    3    3    0    0 -0.68524520543E+01 -0.28793766317E+02  0.21660174950E+02  0.36676971753E+02  0.51100000000E-03 0. -1.
        -11    1    3    3    0    0 -0.56820056390E+01 -0.56075311205E+00  0.14269404593E+01  0.58852180478E+01  0.51100000000E-03 0.  1.
         12    1    3    3    0    0  0.36717050413E+00  0.44087783275E+01  0.66253845328E+01  0.79666718728E+01  0.00000000000E+00 0. -1.
</event>
<event>
 7    1  0.5019004E-011  0.5052886E+02  0.7816164E-02  0.1300439E+00
        -11   -1    0    0    0    0  0.00000000000E+00  0.00000000000E+00  0.45593999997E+02  0.45594000000E+02  0.51100000000E-03 0.  1.
         11   -1    0    0    0    0 -0.00000000000E+00 -0.00000000000E+00 -0.45593999997E+02  0.45594000000E+02  0.51100000000E-03 0. -1.
    9900012    2    1    2    0    0 -0.54284526868E+01  0.86019775150E+01 -0.39366274380E+02  0.50528859892E+02  0.30000000128E+02 0.  0.
        -12    1    1    2    0    0  0.54284526868E+01 -0.86019775150E+01  0.39366274380E+02  0.40659140108E+02  0.00000000000E+00 0.  1.
         11    1    3    3    0    0 -0.86772826849E+01  0.13622702863E+00 -0.38768534617E+02  0.39727988487E+02  0.51100000000E-03 0. -1.
        -11    1    3    3    0    0 -0.24894479863E+00  0.69656356098E+01 -0.18337760258E+00  0.69724945728E+01  0.51100000000E-03 0.  1.
         12    1    3    3    0    0  0.34977747968E+01  0.15001148765E+01 -0.41436216046E+00  0.38283768325E+01  0.00000000000E+00 0. -1.
</event>
<event>
 7    1  0.5019004E-011  0.5052887E+02  0.7816164E-02  0.1300439E+00
        -11   -1    0    0    0    0  0.00000000000E+00  0.00000000000E+00  0.45593999997E+02  0.45594000000E+02  0.51100000000E-03 0.  1.
         11   -1    0    0    0    0 -0.00000000000E+00 -0.00000000000E+00 -0.45593999997E+02  0.45594000000E+02  0.51100000000E-03 0. -1.
    9900012    2    1    2    0    0  0.49035000515E+01  0.29476282071E+01 -0.40254585329E+02  0.50528874766E+02  0.30000045337E+02 0.  0.
        -12    1    1    2    0    0 -0.49035000515E+01 -0.29476282071E+01  0.40254585329E+02  0.40659125234E+02  0.00000000000E+00 0.  1.
         11    1    3    3    0    0  0.10840038204E+02  0.31741676287E+00 -0.11011078523E+02  0.15454806119E+02  0.51100000000E-03 0. -1.
        -11    1    3    3    0    0 -0.86670429624E+01  0.88263163453E+01 -0.16255272074E+02  0.20426829524E+02  0.51100000000E-03 0.  1.
        -12    1    3    3    0    0  0.27305048098E+01 -0.61961049011E+01 -0.12988234732E+02  0.14647239123E+02  0.00000000000E+00 0.  1.
</event>
<event>
 7    1  0.5019004E-011  0.5052886E+02  0.7816164E-02  0.1300439E+00
        -11   -1    0    0    0    0  0.00000000000E+00  0.00000000000E+00  0.45593999997E+02  0.45594000000E+02  0.51100000000E-03 0.  1.
         11   -1    0    0    0    0 -0.00000000000E+00 -0.00000000000E+00 -0.45593999997E+02  0.45594000000E+02  0.51100000000E-03 0. -1.
    9900012    2    1    2    0    0 -0.11955104051E+02 -0.33650160297E+02 -0.19439849458E+02  0.50528861447E+02  0.30000004855E+02 0.  0.
        -12    1    1    2    0    0  0.11955104051E+02  0.33650160297E+02  0.19439849458E+02  0.40659138553E+02  0.00000000000E+00 0.  1.
         11    1    3    3    0    0 -0.98283774450E+01 -0.32709908629E+02 -0.86228658184E+01  0.35226253575E+02  0.51100000000E-03 0. -1.
        -11    1    3    3    0    0 -0.37724017419E+01  0.40660092796E+01 -0.58384487692E+01  0.80530075534E+01  0.51100000000E-03 0.  1.
        -12    1    3    3    0    0  0.16456751361E+01 -0.50062609474E+01 -0.49785348704E+01  0.72496003189E+01  0.00000000000E+00 0.  1.
</event>
<event>
 7    1  0.5019004E-011  0.5052886E+02  0.7816164E-02  0.1300439E+00
        -11   -1    0    0    0    0  0.00000000000E+00  0.00000000000E+00  0.45593999997E+02  0.45594000000E+02  0.51100000000E-03 0.  1.
         11   -1    0    0    0    0 -0.00000000000E+00 -0.00000000000E+00 -0.45593999997E+02  0.45594000000E+02  0.51100000000E-03 0. -1.
    9900012    2    1    2    0    0  0.32518248045E+02 -0.85751264637E+01 -0.22851608548E+02  0.50528864950E+02  0.30000015501E+02 0.  0.
        -12    1    1    2    0    0 -0.32518248045E+02  0.85751264637E+01  0.22851608548E+02  0.40659135050E+02  0.00000000000E+00 0.  1.
         11    1    3    3    0    0  0.19871335343E+02  0.18592139749E+01 -0.41133633401E+01  0.20377595617E+02  0.51100000000E-03 0. -1.
        -11    1    3    3    0    0  0.32268982964E+01 -0.13367566258E+02 -0.11179418497E+02  0.17722417963E+02  0.51100000000E-03 0.  1.
         12    1    3    3    0    0  0.94200144064E+01  0.29332258191E+01 -0.75588267108E+01  0.12428851370E+02  0.00000000000E+00 0. -1.
</event>
<event>
 7    1  0.5019004E-011  0.5052885E+02  0.7816164E-02  0.1300439E+00
        -11   -1    0    0    0    0  0.00000000000E+00  0.00000000000E+00  0.45593999997E+02  0.45594000000E+02  0.51100000000E-03 0.  1.
         11   -1    0    0    0    0 -0.00000000000E+00 -0.00000000000E+00 -0.45593999997E+02  0.45594000000E+02  0.51100000000E-03 0. -1.
    9900012    2    1    2    0    0  0.19615009315E+02  0.10857355587E+02 -0.33919544670E+02  0.50528852550E+02  0.29999977810E+02 0.  0.
        -12    1    1    2    0    0 -0.19615009315E+02 -0.10857355587E+02  0.33919544670E+02  0.40659147450E+02  0.00000000000E+00 0.  1.
         11    1    3    3    0    0  0.16081466350E+02  0.17223275709E+02 -0.30513741152E+02  0.38553121604E+02  0.51100000000E-03 0. -1.
        -11    1    3    3    0    0  0.28168565924E+01 -0.64487047048E+01  0.13500982797E+01  0.71654196707E+01  0.51100000000E-03 0.  1.
         12    1    3    3    0    0  0.71668637231E+00  0.82784582263E-01 -0.47559017984E+01  0.48103112747E+01  0.00000000000E+00 0. -1.
</event>
<event>
 7    1  0.5019004E-011  0.5052886E+02  0.7816164E-02  0.1300439E+00
        -11   -1    0    0    0    0  0.00000000000E+00  0.00000000000E+00  0.45593999997E+02  0.45594000000E+02  0.51100000000E-03 0. -1.
         11   -1    0    0    0    0 -0.00000000000E+00 -0.00000000000E+00 -0.45593999997E+02  0.45594000000E+02  0.51100000000E-03 0.  1.
    9900012    2    1    2    0    0 -0.10901686068E+01  0.11583036920E+02  0.38959085511E+02  0.50528861350E+02  0.30000004559E+02 0.  0.
        -12    1    1    2    0    0  0.10901686068E+01 -0.11583036920E+02 -0.38959085511E+02  0.40659138650E+02  0.00000000000E+00 0.  1.
         11    1    3    3    0    0  0.34148430674E+01 -0.67550158962E+01  0.68074706599E+01  0.10180031924E+02  0.51100000000E-03 0. -1.
        -11    1    3    3    0    0 -0.36550326933E+01  0.56789362083E+01  0.11490366502E+01  0.68505376381E+01  0.51100000000E-03 0.  1.
         12    1    3    3    0    0 -0.84997898091E+00  0.12659116608E+02  0.31002578201E+02  0.33498291788E+02  0.00000000000E+00 0. -1.
</event>
<event>
 7    1  0.5019004E-011  0.5052885E+02  0.7816164E-02  0.1300439E+00
        -11   -1    0    0    0    0  0.00000000000E+00  0.00000000000E+00  0.45593999997E+02  0.45594000000E+02  0.51100000000E-03 0.  1.
         11   -1    0    0    0    0 -0.00000000000E+00 -0.00000000000E+00 -0.45593999997E+02  0.45594000000E+02  0.51100000000E-03 0. -1.
    9900012    2    1    2    0    0  0.64478577085E+01 -0.12511517750E+02 -0.38145167319E+02  0.50528846845E+02  0.29999960471E+02 0.  0.
        -12    1    1    2    0    0 -0.64478577085E+01  0.12511517750E+02  0.38145167319E+02  0.40659153155E+02  0.00000000000E+00 0.  1.
         11    1    3    3    0    0  0.69018902755E+00  0.96306942652E+00 -0.41008236444E+01  0.42685616357E+01  0.51100000000E-03 0. -1.
        -11    1    3    3    0    0 -0.58474998327E+01  0.35662530665E+01 -0.47553653978E+00  0.68656791718E+01  0.51100000000E-03 0.  1.
        -12    1    3    3    0    0  0.11605168514E+02 -0.17040840243E+02 -0.33568807135E+02  0.39394606038E+02  0.00000000000E+00 0.  1.
</event>
<event>
 7    1  0.5019004E-011  0.5052886E+02  0.7816164E-02  0.1300439E+00
        -11   -1    0    0    0    0  0.00000000000E+00  0.00000000000E+00  0.45593999997E+02  0.45594000000E+02  0.51100000000E-03 0. -1.
         11   -1    0    0    0    0 -0.00000000000E+00 -0.00000000000E+00 -0.45593999997E+02  0.45594000000E+02  0.51100000000E-03 0.  1.
    9900012    2    1    2    0    0 -0.67800029870E+01 -0.13084015085E+02  0.37894666870E+02  0.50528859964E+02  0.30000000348E+02 0.  0.
        -12    1    1    2    0    0  0.67800029870E+01  0.13084015085E+02 -0.37894666870E+02  0.40659140036E+02  0.00000000000E+00 0.  1.
         11    1    3    3    0    0 -0.16299614589E+01 -0.60547453170E+01  0.11134201838E+02  0.12778386676E+02  0.51100000000E-03 0. -1.
        -11    1    3    3    0    0 -0.62623253643E+01 -0.43436366382E+01 -0.27462088822E+01  0.81009605418E+01  0.51100000000E-03 0.  1.
        -12    1    3    3    0    0  0.11122838362E+01 -0.26856331299E+01  0.29506673914E+02  0.29649512747E+02  0.00000000000E+00 0.  1.
</event>
<event>
 7    1  0.5019004E-011  0.5052885E+02  0.7816164E-02  0.1300439E+00
        -11   -1    0    0    0    0  0.00000000000E+00  0.00000000000E+00  0.45593999997E+02  0.45594000000E+02  0.51100000000E-03 0.  1.
         11   -1    0    0    0    0 -0.00000000000E+00 -0.00000000000E+00 -0.45593999997E+02  0.45594000000E+02  0.51100000000E-03 0. -1.
    9900012    2    1    2    0    0 -0.16522189647E+02  0.32233703593E+02  0.18470849960E+02  0.50528847324E+02  0.29999961926E+02 0.  0.
        -12    1    1    2    0    0  0.16522189647E+02 -0.32233703593E+02 -0.18470849960E+02  0.40659152676E+02  0.00000000000E+00 0.  1.
         11    1    3    3    0    0 -0.24693679991E+02  0.22109035487E+02  0.14801341508E+02  0.36299683089E+02  0.51100000000E-03 0. -1.
        -11    1    3    3    0    0  0.50247809036E+01  0.91555835844E+01  0.25398109962E+01  0.10748198642E+02  0.51100000000E-03 0.  1.
         12    1    3    3    0    0  0.31467094404E+01  0.96908452167E+00  0.11296974565E+01  0.34809655924E+01  0.00000000000E+00 0. -1.
</event>
<event>
 7    1  0.5019004E-011  0.5052886E+02  0.7816164E-02  0.1300439E+00
        -11   -1    0    0    0    0  0.00000000000E+00  0.00000000000E+00  0.45593999997E+02  0.45594000000E+02  0.51100000000E-03 0.  1.
         11   -1    0    0    0    0 -0.00000000000E+00 -0.00000000000E+00 -0.45593999997E+02  0.45594000000E+02  0.51100000000E-03 0. -1.
    9900012    2    1    2    0    0  0.12704414867E+02 -0.33390048472E+02 -0.19413095882E+02  0.50528858521E+02  0.29999995960E+02 0.  0.
        -12    1    1    2    0    0 -0.12704414867E+02  0.33390048472E+02  0.19413095882E+02  0.40659141479E+02  0.00000000000E+00 0.  1.
         11    1    3    3    0    0 -0.59521721667E+01 -0.31362505178E+01 -0.30597356918E+01  0.73909677024E+01  0.51100000000E-03 0. -1.
        -11    1    3    3    0    0  0.17324825131E+02 -0.12095252661E+02 -0.51083977568E+01  0.21737995093E+02  0.51100000000E-03 0.  1.
         12    1    3    3    0    0  0.13317619025E+01 -0.18158545293E+02 -0.11244962433E+02  0.21399895725E+02  0.00000000000E+00 0. -1.
</event>
<event>
 7    1  0.5019004E-011  0.5052886E+02  0.7816164E-02  0.1300439E+00
        -11   -1    0    0    0    0  0.00000000000E+00  0.00000000000E+00  0.45593999997E+02  0.45594000000E+02  0.51100000000E-03 0. -1.
         11   -1    0    0    0    0 -0.00000000000E+00 -0.00000000000E+00 -0.45593999997E+02  0.45594000000E+02  0.51100000000E-03 0.  1.
    9900012    2    1    2    0    0  0.29268326915E+02  0.40516385233E+01  0.27930536811E+02  0.50528860540E+02  0.30000002096E+02 0.  0.
        -12    1    1    2    0    0 -0.29268326915E+02 -0.40516385233E+01 -0.27930536811E+02  0.40659139460E+02  0.00000000000E+00 0.  1.
         11    1    3    3    0    0  0.16709037444E+02 -0.15149207681E+01  0.25703178955E+02  0.30694304454E+02  0.51100000000E-03 0. -1.
        -11    1    3    3    0    0  0.92546805154E+01  0.94610539818E+01  0.48468413849E+01  0.14094414694E+02  0.51100000000E-03 0.  1.
         12    1    3    3    0    0  0.33046089551E+01 -0.38944946904E+01 -0.26194835292E+01  0.57401413920E+01  0.00000000000E+00 0. -1.
</event>
<event>
 7    1  0.5019004E-011  0.5052894E+02  0.7816164E-02  0.1300439E+00
        -11   -1    0    0    0    0  0.00000000000E+00  0.00000000000E+00  0.45593999997E+02  0.45594000000E+02  0.51100000000E-03 0.  1.
         11   -1    0    0    0    0 -0.00000000000E+00 -0.00000000000E+00 -0.45593999997E+02  0.45594000000E+02  0.51100000000E-03 0. -1.
    9900012    2    1    2    0    0  0.13690452725E+02  0.26261556468E+02 -0.27857875705E+02  0.50528940951E+02  0.30000246515E+02 0.  0.
        -12    1    1    2    0    0 -0.13690452725E+02 -0.26261556468E+02  0.27857875705E+02  0.40659059049E+02  0.00000000000E+00 0.  1.
         11    1    3    3    0    0  0.12496762466E+02  0.18959232955E+02 -0.27748287737E+02  0.35855112034E+02  0.51100000000E-03 0. -1.
        -11    1    3    3    0    0  0.49829060942E+01  0.88212741376E+01  0.15834737854E+01  0.10254346398E+02  0.51100000000E-03 0.  1.
        -12    1    3    3    0    0 -0.37892158354E+01 -0.15189506242E+01 -0.16930617531E+01  0.44194825201E+01  0.00000000000E+00 0.  1.
</event>
<event>
 7    1  0.5019004E-011  0.5052886E+02  0.7816164E-02  0.1300439E+00
        -11   -1    0    0    0    0  0.00000000000E+00  0.00000000000E+00  0.45593999997E+02  0.45594000000E+02  0.51100000000E-03 0.  1.
         11   -1    0    0    0    0 -0.00000000000E+00 -0.00000000000E+00 -0.45593999997E+02  0.45594000000E+02  0.51100000000E-03 0. -1.
    9900012    2    1    2    0    0 -0.16168390096E+02  0.13040327432E+02 -0.34952803977E+02  0.50528862236E+02  0.30000007253E+02 0.  0.
        -12    1    1    2    0    0  0.16168390096E+02 -0.13040327432E+02  0.34952803977E+02  0.40659137764E+02  0.00000000000E+00 0.  1.
         11    1    3    3    0    0 -0.21110188146E+02  0.91240077484E+01 -0.35416815966E+02  0.42228407670E+02  0.51100000000E-03 0. -1.
        -11    1    3    3    0    0  0.41743412258E+01  0.17874586047E+01 -0.19939253316E+01  0.49594224888E+01  0.51100000000E-03 0.  1.
         12    1    3    3    0    0  0.76745682403E+00  0.21288610790E+01  0.24579373203E+01  0.33410320772E+01  0.00000000000E+00 0. -1.
</event>
<event>
 7    1  0.5019004E-011  0.5052887E+02  0.7816164E-02  0.1300439E+00
        -11   -1    0    0    0    0  0.00000000000E+00  0.00000000000E+00  0.45593999997E+02  0.45594000000E+02  0.51100000000E-03 0.  1.
         11   -1    0    0    0    0 -0.00000000000E+00 -0.00000000000E+00 -0.45593999997E+02  0.45594000000E+02  0.51100000000E-03 0. -1.
    9900012    2    1    2    0    0  0.19915021559E+02 -0.31888422495E+02 -0.15481780132E+02  0.50528867091E+02  0.30000022009E+02 0.  0.
        -12    1    1    2    0    0 -0.19915021559E+02  0.31888422495E+02  0.15481780132E+02  0.40659132909E+02  0.00000000000E+00 0.  1.
         11    1    3    3    0    0  0.98766882179E+01 -0.28624045899E+02 -0.66321212477E+01  0.30997903256E+02  0.51100000000E-03 0. -1.
        -11    1    3    3    0    0 -0.36436912509E+00 -0.20186998679E+01 -0.88184556298E+01  0.90538982748E+01  0.51100000000E-03 0.  1.
         12    1    3    3    0    0  0.10402702466E+02 -0.12456767277E+01 -0.31203254363E-01  0.10477065560E+02  0.00000000000E+00 0. -1.
</event>
<event>
 7    1  0.5019004E-011  0.5052885E+02  0.7816164E-02  0.1300439E+00
        -11   -1    0    0    0    0  0.00000000000E+00  0.00000000000E+00  0.45593999997E+02  0.45594000000E+02  0.51100000000E-03 0. -1.
         11   -1    0    0    0    0 -0.00000000000E+00 -0.00000000000E+00 -0.45593999997E+02  0.45594000000E+02  0.51100000000E-03 0.  1.
    9900012    2    1    2    0    0 -0.10749554744E+02  0.11239467958E+02  0.37567113345E+02  0.50528848850E+02  0.29999966565E+02 0.  0.
        -12    1    1    2    0    0  0.10749554744E+02 -0.11239467958E+02 -0.37567113345E+02  0.40659151150E+02  0.00000000000E+00 0.  1.
         11    1    3    3    0    0 -0.63809154080E+01  0.21030817632E+02  0.22493698529E+02  0.31448018149E+02  0.51100000000E-03 0. -1.
        -11    1    3    3    0    0 -0.29837136031E+01 -0.67618077448E+01  0.63536392786E+01  0.97464518255E+01  0.51100000000E-03 0.  1.
         12    1    3    3    0    0 -0.13849257330E+01 -0.30295419287E+01  0.87197755366E+01  0.93343788755E+01  0.00000000000E+00 0. -1.
</event>
<event>
 7    1  0.5019004E-011  0.5052887E+02  0.7816164E-02  0.1300439E+00
        -11   -1    0    0    0    0  0.00000000000E+00  0.00000000000E+00  0.45593999997E+02  0.45594000000E+02  0.51100000000E-03 0.  1.
         11   -1    0    0    0    0 -0.00000000000E+00 -0.00000000000E+00 -0.45593999997E+02  0.45594000000E+02  0.51100000000E-03 0. -1.
    9900012    2    1    2    0    0 -0.13381456413E+02  0.36068836215E+02 -0.13158282557E+02  0.50528871610E+02  0.30000035745E+02 0.  0.
        -12    1    1    2    0    0  0.13381456413E+02 -0.36068836215E+02  0.13158282557E+02  0.40659128390E+02  0.00000000000E+00 0.  1.
         11    1    3    3    0    0 -0.17518580196E+02  0.20023561327E+02 -0.14061484459E+02  0.30092673622E+02  0.51100000000E-03 0. -1.
        -11    1    3    3    0    0 -0.11089479101E+01  0.15029274142E+02  0.80866456704E+00  0.15091811864E+02  0.51100000000E-03 0.  1.
         12    1    3    3    0    0  0.52460716931E+01  0.10160007457E+01  0.94537334689E-01  0.53443861230E+01  0.00000000000E+00 0. -1.
</event>
<event>
 7    1  0.5019004E-011  0.5052876E+02  0.7816164E-02  0.1300439E+00
        -11   -1    0    0    0    0  0.00000000000E+00  0.00000000000E+00  0.45593999997E+02  0.45594000000E+02  0.51100000000E-03 0.  1.
         11   -1    0    0    0    0 -0.00000000000E+00 -0.00000000000E+00 -0.45593999997E+02  0.45594000000E+02  0.51100000000E-03 0. -1.
    9900012    2    1    2    0    0 -0.27496083261E+01  0.32872075054E+02 -0.23770576851E+02  0.50528757654E+02  0.29999689364E+02 0.  0.
        -12    1    1    2    0    0  0.27496083261E+01 -0.32872075054E+02  0.23770576851E+02  0.40659242346E+02  0.00000000000E+00 0.  1.
         11    1    3    3    0    0 -0.46792783017E+01  0.17815611460E+02 -0.20641081920E+02  0.27664886051E+02  0.51100000000E-03 0. -1.
        -11    1    3    3    0    0  0.76044085539E+01  0.80074565222E+01  0.35686709691E+01  0.11605248905E+02  0.51100000000E-03 0.  1.
        -12    1    3    3    0    0 -0.56747385783E+01  0.70490070712E+01 -0.66981659000E+01  0.11258622698E+02  0.00000000000E+00 0.  1.
</event>
<event>
 7    1  0.5019004E-011  0.5052885E+02  0.7816164E-02  0.1300439E+00
        -11   -1    0    0    0    0  0.00000000000E+00  0.00000000000E+00  0.45593999997E+02  0.45594000000E+02  0.51100000000E-03 0.  1.
         11   -1    0    0    0    0 -0.00000000000E+00 -0.00000000000E+00 -0.45593999997E+02  0.45594000000E+02  0.51100000000E-03 0. -1.
    9900012    2    1    2    0    0  0.27288423368E+02 -0.30014766784E+02  0.27607629765E+01  0.50528854814E+02  0.29999984694E+02 0.  0.
        -12    1    1    2    0    0 -0.27288423368E+02  0.30014766784E+02 -0.27607629765E+01  0.40659145186E+02  0.00000000000E+00 0.  1.
         11    1    3    3    0    0  0.11433092963E+02 -0.33293081536E+01  0.67401035366E+01  0.13683161310E+02  0.51100000000E-03 0. -1.
        -11    1    3    3    0    0  0.18509910061E+02 -0.25232266380E+02  0.66708169902E+00  0.31300623562E+02  0.51100000000E-03 0.  1.
        -12    1    3    3    0    0 -0.26545796551E+01 -0.14531922507E+01 -0.46464222591E+01  0.55450699429E+01  0.00000000000E+00 0.  1.
</event>
<event>
 7    1  0.5019004E-011  0.5052887E+02  0.7816164E-02  0.1300439E+00
        -11   -1    0    0    0    0  0.00000000000E+00  0.00000000000E+00  0.45593999997E+02  0.45594000000E+02  0.51100000000E-03 0.  1.
         11   -1    0    0    0    0 -0.00000000000E+00 -0.00000000000E+00 -0.45593999997E+02  0.45594000000E+02  0.51100000000E-03 0. -1.
    9900012    2    1    2    0    0  0.47883504107E+00 -0.40607111733E+02 -0.19996095380E+01  0.50528865177E+02  0.30000016192E+02 0.  0.
        -12    1    1    2    0    0 -0.47883504107E+00  0.40607111733E+02  0.19996095380E+01  0.40659134823E+02  0.00000000000E+00 0.  1.
         11    1    3    3    0    0 -0.11481867866E+02 -0.23560354826E+02 -0.14712039597E+01  0.26250486673E+02  0.51100000000E-03 0. -1.
        -11    1    3    3    0    0  0.54127259403E+01 -0.14909475068E+02  0.35767747374E+01  0.16259869824E+02  0.51100000000E-03 0.  1.
         12    1    3    3    0    0  0.65479769671E+01 -0.21372818381E+01 -0.41051803156E+01  0.80185086794E+01  0.00000000000E+00 0. -1.
</event>
<event>
 7    1  0.5019004E-011  0.5052888E+02  0.7816164E-02  0.1300439E+00
        -11   -1    0    0    0    0  0.00000000000E+00  0.00000000000E+00  0.45593999997E+02  0.45594000000E+02  0.51100000000E-03 0. -1.
         11   -1    0    0    0    0 -0.00000000000E+00 -0.00000000000E+00 -0.45593999997E+02  0.45594000000E+02  0.51100000000E-03 0.  1.
    9900012    2    1    2    0    0 -0.34086338671E+02 -0.19025105566E+02  0.11372358664E+02  0.50528884572E+02  0.30000075145E+02 0.  0.
        -12    1    1    2    0    0  0.34086338671E+02  0.19025105566E+02 -0.11372358664E+02  0.40659115428E+02  0.00000000000E+00 0.  1.
         11    1    3    3    0    0 -0.13997441947E+02 -0.63210091709E+01  0.13048601039E+02  0.20153151797E+02  0.51100000000E-03 0. -1.
        -11    1    3    3    0    0 -0.23552949813E+02 -0.11450543386E+02 -0.32109027538E+01  0.26384963246E+02  0.51100000000E-03 0.  1.
        -12    1    3    3    0    0  0.34640530895E+01 -0.12535530088E+01  0.15346603788E+01  0.39907695287E+01  0.00000000000E+00 0.  1.
</event>
<event>
 7    1  0.5019004E-011  0.5052886E+02  0.7816164E-02  0.1300439E+00
        -11   -1    0    0    0    0  0.00000000000E+00  0.00000000000E+00  0.45593999997E+02  0.45594000000E+02  0.51100000000E-03 0.  1.
         11   -1    0    0    0    0 -0.00000000000E+00 -0.00000000000E+00 -0.45593999997E+02  0.45594000000E+02  0.51100000000E-03 0. -1.
    9900012    2    1    2    0    0 -0.35541030622E+02 -0.26335680777E+01 -0.19572046028E+02  0.50528861738E+02  0.30000005738E+02 0.  0.
        -12    1    1    2    0    0  0.35541030622E+02  0.26335680777E+01  0.19572046028E+02  0.40659138262E+02  0.00000000000E+00 0.  1.
         11    1    3    3    0    0 -0.28170444685E+02 -0.75115372077E+01 -0.16715147853E+02  0.33606447491E+02  0.51100000000E-03 0. -1.
        -11    1    3    3    0    0 -0.10455814747E+02  0.72037083193E+01 -0.13247254594E+01  0.12766063347E+02  0.51100000000E-03 0.  1.
         12    1    3    3    0    0  0.30852288088E+01 -0.23257391893E+01 -0.15321727157E+01  0.41563509007E+01  0.00000000000E+00 0. -1.
</event>
<event>
 7    1  0.5019004E-011  0.5052886E+02  0.7816164E-02  0.1300439E+00
        -11   -1    0    0    0    0  0.00000000000E+00  0.00000000000E+00  0.45593999997E+02  0.45594000000E+02  0.51100000000E-03 0.  1.
         11   -1    0    0    0    0 -0.00000000000E+00 -0.00000000000E+00 -0.45593999997E+02  0.45594000000E+02  0.51100000000E-03 0. -1.
    9900012    2    1    2    0    0 -0.32137924655E+01 -0.42908707048E+01 -0.40304163510E+02  0.50528860441E+02  0.30000001798E+02 0.  0.
        -12    1    1    2    0    0  0.32137924655E+01  0.42908707048E+01  0.40304163510E+02  0.40659139559E+02  0.00000000000E+00 0.  1.
         11    1    3    3    0    0 -0.12179072399E+02 -0.39199715718E+01 -0.14035320073E+02  0.18991740084E+02  0.51100000000E-03 0. -1.
        -11    1    3    3    0    0  0.29706206931E+01  0.45346369125E+01 -0.15576988010E+01  0.56403851860E+01  0.51100000000E-03 0.  1.
         12    1    3    3    0    0  0.59946592402E+01 -0.49055360455E+01 -0.24711144636E+02  0.25896735171E+02  0.00000000000E+00 0. -1.
</event>
<event>
 7    1  0.5019004E-011  0.5052886E+02  0.7816164E-02  0.1300439E+00
        -11   -1    0    0    0    0  0.00000000000E+00  0.00000000000E+00  0.45593999997E+02  0.45594000000E+02  0.51100000000E-03 0. -1.
         11   -1    0    0    0    0 -0.00000000000E+00 -0.00000000000E+00 -0.45593999997E+02  0.45594000000E+02  0.51100000000E-03 0.  1.
    9900012    2    1    2    0    0  0.13479105469E+02  0.36991857805E+02 -0.10152928397E+02  0.50528858554E+02  0.29999996060E+02 0.  0.
        -12    1    1    2    0    0 -0.13479105469E+02 -0.36991857805E+02  0.10152928397E+02  0.40659141446E+02  0.00000000000E+00 0.  1.
         11    1    3    3    0    0  0.46635563641E+01  0.34767777230E+02 -0.11242718791E+02  0.36836745480E+02  0.51100000000E-03 0. -1.
        -11    1    3    3    0    0  0.10167624573E+02  0.26051060064E+01  0.33614714387E+01  0.11021191282E+02  0.51100000000E-03 0.  1.
         12    1    3    3    0    0 -0.13520754680E+01 -0.38102543159E+00 -0.22716810447E+01  0.26709217921E+01  0.00000000000E+00 0. -1.
</event>
<event>
 7    1  0.5019004E-011  0.5052876E+02  0.7816164E-02  0.1300439E+00
        -11   -1    0    0    0    0  0.00000000000E+00  0.00000000000E+00  0.45593999997E+02  0.45594000000E+02  0.51100000000E-03 0.  1.
         11   -1    0    0    0    0 -0.00000000000E+00 -0.00000000000E+00 -0.45593999997E+02  0.45594000000E+02  0.51100000000E-03 0. -1.
    9900012    2    1    2    0    0  0.31976611378E+02  0.15834517096E+02 -0.19491996658E+02  0.50528763157E+02  0.29999706092E+02 0.  0.
        -12    1    1    2    0    0 -0.31976611378E+02 -0.15834517096E+02  0.19491996658E+02  0.40659236843E+02  0.00000000000E+00 0.  1.
         11    1    3    3    0    0  0.12524005625E+02  0.74194700361E+01 -0.12120437339E+02  0.18942129079E+02  0.51100000000E-03 0. -1.
        -11    1    3    3    0    0  0.33216365814E+00 -0.55975654886E+01  0.21976789784E+01  0.60226958455E+01  0.51100000000E-03 0.  1.
        -12    1    3    3    0    0  0.19120442095E+02  0.14012612549E+02 -0.95692382968E+01  0.25563938232E+02  0.00000000000E+00 0.  1.
</event>
<event>
 7    1  0.5019004E-011  0.5052886E+02  0.7816164E-02  0.1300439E+00
        -11   -1    0    0    0    0  0.00000000000E+00  0.00000000000E+00  0.45593999997E+02  0.45594000000E+02  0.51100000000E-03 0. -1.
         11   -1    0    0    0    0 -0.00000000000E+00 -0.00000000000E+00 -0.45593999997E+02  0.45594000000E+02  0.51100000000E-03 0.  1.
    9900012    2    1    2    0    0 -0.37471349033E+02 -0.22541992238E+01  0.15619932368E+02  0.50528859581E+02  0.29999999181E+02 0.  0.
        -12    1    1    2    0    0  0.37471349033E+02  0.22541992238E+01 -0.15619932368E+02  0.40659140419E+02  0.00000000000E+00 0.  1.
         11    1    3    3    0    0 -0.14514631668E+02 -0.64099000912E+01  0.20273627564E+02  0.25744539741E+02  0.51100000000E-03 0. -1.
        -11    1    3    3    0    0 -0.14367317084E+02  0.12168724567E+01  0.34098273371E+00  0.14422789198E+02  0.51100000000E-03 0.  1.
         12    1    3    3    0    0 -0.85894002813E+01  0.29388284106E+01 -0.49946779296E+01  0.10361530642E+02  0.00000000000E+00 0. -1.
</event>
<event>
 7    1  0.5019004E-011  0.5052886E+02  0.7816164E-02  0.1300439E+00
        -11   -1    0    0    0    0  0.00000000000E+00  0.00000000000E+00  0.45593999997E+02  0.45594000000E+02  0.51100000000E-03 0.  1.
         11   -1    0    0    0    0 -0.00000000000E+00 -0.00000000000E+00 -0.45593999997E+02  0.45594000000E+02  0.51100000000E-03 0. -1.
    9900012    2    1    2    0    0 -0.30456261808E+02  0.25251859910E+02 -0.93768456933E+01  0.50528861453E+02  0.30000004874E+02 0.  0.
        -12    1    1    2    0    0  0.30456261808E+02 -0.25251859910E+02  0.93768456933E+01  0.40659138547E+02  0.00000000000E+00 0.  1.
         11    1    3    3    0    0 -0.15769492421E+02 -0.27523874856E+00 -0.64067240762E+01  0.17023476767E+02  0.51100000000E-03 0. -1.
        -11    1    3    3    0    0 -0.15675752367E+02  0.21157586366E+02 -0.72476561369E+01  0.27311191714E+02  0.51100000000E-03 0.  1.
         12    1    3    3    0    0  0.98898298032E+00  0.43695122926E+01  0.42775345199E+01  0.61941929724E+01  0.00000000000E+00 0. -1.
</event>
<event>
 7    1  0.5019004E-011  0.5052886E+02  0.7816164E-02  0.1300439E+00
        -11   -1    0    0    0    0  0.00000000000E+00  0.00000000000E+00  0.45593999997E+02  0.45594000000E+02  0.51100000000E-03 0.  1.
         11   -1    0    0    0    0 -0.00000000000E+00 -0.00000000000E+00 -0.45593999997E+02  0.45594000000E+02  0.51100000000E-03 0. -1.
    9900012    2    1    2    0    0 -0.25416172058E+02  0.73167204030E+01 -0.30881215420E+02  0.50528860003E+02  0.30000000464E+02 0.  0.
        -12    1    1    2    0    0  0.25416172058E+02 -0.73167204030E+01  0.30881215420E+02  0.40659139997E+02  0.00000000000E+00 0.  1.
         11    1    3    3    0    0 -0.17168343784E+02  0.31552434262E+01 -0.26346610388E+02  0.31604611508E+02  0.51100000000E-03 0. -1.
        -11    1    3    3    0    0 -0.78658427123E+01  0.90751827232E+01  0.30964989068E+00  0.12013588404E+02  0.51100000000E-03 0.  1.
         12    1    3    3    0    0 -0.38198556125E+00 -0.49137057464E+01 -0.48442549229E+01  0.69106600907E+01  0.00000000000E+00 0. -1.
</event>
<event>
 7    1  0.5019004E-011  0.5052886E+02  0.7816164E-02  0.1300439E+00
        -11   -1    0    0    0    0  0.00000000000E+00  0.00000000000E+00  0.45593999997E+02  0.45594000000E+02  0.51100000000E-03 0. -1.
         11   -1    0    0    0    0 -0.00000000000E+00 -0.00000000000E+00 -0.45593999997E+02  0.45594000000E+02  0.51100000000E-03 0.  1.
    9900012    2    1    2    0    0  0.79389289140E+01  0.92398313747E+01  0.38791296426E+02  0.50528858905E+02  0.29999997129E+02 0.  0.
        -12    1    1    2    0    0 -0.79389289140E+01 -0.92398313747E+01 -0.38791296426E+02  0.40659141095E+02  0.00000000000E+00 0.  1.
         11    1    3    3    0    0  0.11375549887E+02  0.65881774420E+00  0.24746602439E+02  0.27243926086E+02  0.51100000000E-03 0. -1.
        -11    1    3    3    0    0 -0.76221555667E+01  0.10931726485E+02  0.79175723928E+01  0.15501220993E+02  0.51100000000E-03 0.  1.
        -12    1    3    3    0    0  0.41855345940E+01 -0.23507128546E+01  0.61271215943E+01  0.77837118262E+01  0.00000000000E+00 0.  1.
</event>
<event>
 7    1  0.5019004E-011  0.5052887E+02  0.7816164E-02  0.1300439E+00
        -11   -1    0    0    0    0  0.00000000000E+00  0.00000000000E+00  0.45593999997E+02  0.45594000000E+02  0.51100000000E-03 0.  1.
         11   -1    0    0    0    0 -0.00000000000E+00 -0.00000000000E+00 -0.45593999997E+02  0.45594000000E+02  0.51100000000E-03 0. -1.
    9900012    2    1    2    0    0 -0.35662972561E+01 -0.11451233736E+02 -0.38849906388E+02  0.50528874867E+02  0.30000045647E+02 0.  0.
        -12    1    1    2    0    0  0.35662972561E+01  0.11451233736E+02  0.38849906388E+02  0.40659125133E+02  0.00000000000E+00 0.  1.
         11    1    3    3    0    0 -0.37789747903E+01 -0.19031591161E+02 -0.22082388216E+02  0.29395815726E+02  0.51100000000E-03 0. -1.
        -11    1    3    3    0    0  0.49253739701E+01  0.62659382589E+01 -0.10308638681E+02  0.13030323201E+02  0.51100000000E-03 0.  1.
         12    1    3    3    0    0 -0.47126964359E+01  0.13144191661E+01 -0.64588794911E+01  0.81027359406E+01  0.00000000000E+00 0. -1.
</event>
<event>
 7    1  0.5019004E-011  0.5052886E+02  0.7816164E-02  0.1300439E+00
        -11   -1    0    0    0    0  0.00000000000E+00  0.00000000000E+00  0.45593999997E+02  0.45594000000E+02  0.51100000000E-03 0.  1.
         11   -1    0    0    0    0 -0.00000000000E+00 -0.00000000000E+00 -0.45593999997E+02  0.45594000000E+02  0.51100000000E-03 0. -1.
    9900012    2    1    2    0    0 -0.14746072531E+01  0.80808468101E+01 -0.39820738222E+02  0.50528859032E+02  0.29999997514E+02 0.  0.
        -12    1    1    2    0    0  0.14746072531E+01 -0.80808468101E+01  0.39820738222E+02  0.40659140968E+02  0.00000000000E+00 0.  1.
         11    1    3    3    0    0 -0.43501300668E+01  0.13562903147E+02 -0.15885050369E+02  0.21335669637E+02  0.51100000000E-03 0.  1.
        -11    1    3    3    0    0  0.90338739197E+01 -0.98887855213E+00 -0.13237912640E+02  0.16057119608E+02  0.51100000000E-03 0. -1.
        -12    1    3    3    0    0 -0.61583511060E+01 -0.44931777846E+01 -0.10697775212E+02  0.13136069787E+02  0.00000000000E+00 0.  1.
</event>
<event>
 7    1  0.5019004E-011  0.5052886E+02  0.7816164E-02  0.1300439E+00
        -11   -1    0    0    0    0  0.00000000000E+00  0.00000000000E+00  0.45593999997E+02  0.45594000000E+02  0.51100000000E-03 0.  1.
         11   -1    0    0    0    0 -0.00000000000E+00 -0.00000000000E+00 -0.45593999997E+02  0.45594000000E+02  0.51100000000E-03 0. -1.
    9900012    2    1    2    0    0 -0.37375782789E+01  0.40486796899E+02 -0.12434854609E+00  0.50528859858E+02  0.30000000024E+02 0.  0.
        -12    1    1    2    0    0  0.37375782789E+01 -0.40486796899E+02  0.12434854609E+00  0.40659140142E+02  0.00000000000E+00 0.  1.
         11    1    3    3    0    0 -0.26510962300E+01  0.38845301204E+02  0.40596379474E+00  0.38937777847E+02  0.51100000000E-03 0. -1.
        -11    1    3    3    0    0  0.20251600684E-01  0.30722007917E+01  0.49467001029E+01  0.58231151458E+01  0.51100000000E-03 0.  1.
         12    1    3    3    0    0 -0.11067336496E+01 -0.14307050962E+01 -0.54770124437E+01  0.57679668647E+01  0.00000000000E+00 0. -1.
</event>
<event>
 7    1  0.5019004E-011  0.5052884E+02  0.7816164E-02  0.1300439E+00
        -11   -1    0    0    0    0  0.00000000000E+00  0.00000000000E+00  0.45593999997E+02  0.45594000000E+02  0.51100000000E-03 0.  1.
         11   -1    0    0    0    0 -0.00000000000E+00 -0.00000000000E+00 -0.45593999997E+02  0.45594000000E+02  0.51100000000E-03 0. -1.
    9900012    2    1    2    0    0 -0.15686136021E+02  0.34672835632E+02  0.14314573262E+02  0.50528838650E+02  0.29999935561E+02 0.  0.
        -12    1    1    2    0    0  0.15686136021E+02 -0.34672835632E+02 -0.14314573262E+02  0.40659161350E+02  0.00000000000E+00 0.  1.
         11    1    3    3    0    0 -0.14600747189E+01 -0.12589067613E+01  0.86219822592E+01  0.88348878180E+01  0.51100000000E-03 0.  1.
        -11    1    3    3    0    0 -0.89247169203E+01  0.11119325697E+02 -0.35452557762E+01  0.14692134455E+02  0.51100000000E-03 0. -1.
         12    1    3    3    0    0 -0.53013443819E+01  0.24812416696E+02  0.92378467788E+01  0.27001816377E+02  0.00000000000E+00 0. -1.
</event>
<event>
 7    1  0.5019004E-011  0.5052885E+02  0.7816164E-02  0.1300439E+00
        -11   -1    0    0    0    0  0.00000000000E+00  0.00000000000E+00  0.45593999997E+02  0.45594000000E+02  0.51100000000E-03 0. -1.
         11   -1    0    0    0    0 -0.00000000000E+00 -0.00000000000E+00 -0.45593999997E+02  0.45594000000E+02  0.51100000000E-03 0.  1.
    9900012    2    1    2    0    0 -0.16396488773E+02  0.24409461785E+02  0.28080245595E+02  0.50528845294E+02  0.29999955755E+02 0.  0.
        -12    1    1    2    0    0  0.16396488773E+02 -0.24409461785E+02 -0.28080245595E+02  0.40659154706E+02  0.00000000000E+00 0.  1.
         11    1    3    3    0    0 -0.11869271333E+02  0.29671550781E+02  0.21201421757E+02  0.38350760260E+02  0.51100000000E-03 0. -1.
        -11    1    3    3    0    0 -0.42539656059E+01 -0.68083094035E+01  0.41684333828E+01  0.90457248155E+01  0.51100000000E-03 0.  1.
        -12    1    3    3    0    0 -0.27325183359E+00  0.15462204077E+01  0.27103904560E+01  0.31323602184E+01  0.00000000000E+00 0.  1.
</event>
<event>
 7    1  0.5019004E-011  0.5052887E+02  0.7816164E-02  0.1300439E+00
        -11   -1    0    0    0    0  0.00000000000E+00  0.00000000000E+00  0.45593999997E+02  0.45594000000E+02  0.51100000000E-03 0.  1.
         11   -1    0    0    0    0 -0.00000000000E+00 -0.00000000000E+00 -0.45593999997E+02  0.45594000000E+02  0.51100000000E-03 0. -1.
    9900012    2    1    2    0    0 -0.27934723163E+02  0.27574973124E+02 -0.10603625165E+02  0.50528871042E+02  0.30000034020E+02 0.  0.
        -12    1    1    2    0    0  0.27934723163E+02 -0.27574973124E+02  0.10603625165E+02  0.40659128958E+02  0.00000000000E+00 0.  1.
         11    1    3    3    0    0 -0.11106894367E+02  0.12053094309E+02 -0.93579212279E+00  0.16416939181E+02  0.51100000000E-03 0. -1.
        -11    1    3    3    0    0 -0.85669505543E+01  0.12478003081E+02 -0.16922726857E+02  0.22704005974E+02  0.51100000000E-03 0.  1.
        -12    1    3    3    0    0 -0.82608782414E+01  0.30438757338E+01  0.72548938148E+01  0.11407925888E+02  0.00000000000E+00 0.  1.
</event>
<event>
 7    1  0.5019004E-011  0.5052887E+02  0.7816164E-02  0.1300439E+00
        -11   -1    0    0    0    0  0.00000000000E+00  0.00000000000E+00  0.45593999997E+02  0.45594000000E+02  0.51100000000E-03 0.  1.
         11   -1    0    0    0    0 -0.00000000000E+00 -0.00000000000E+00 -0.45593999997E+02  0.45594000000E+02  0.51100000000E-03 0. -1.
    9900012    2    1    2    0    0  0.15422900062E+02 -0.17014448282E+01 -0.37581967421E+02  0.50528867741E+02  0.30000023986E+02 0.  0.
        -12    1    1    2    0    0 -0.15422900062E+02  0.17014448282E+01  0.37581967421E+02  0.40659132259E+02  0.00000000000E+00 0.  1.
         11    1    3    3    0    0  0.81761889202E+01  0.82086382117E+01 -0.91564068433E+01  0.14767247309E+02  0.51100000000E-03 0. -1.
        -11    1    3    3    0    0 -0.30463827592E+01 -0.68752212766E+01 -0.22009405346E+02  0.23258612157E+02  0.51100000000E-03 0.  1.
         12    1    3    3    0    0  0.10293093901E+02 -0.30348617632E+01 -0.64161552316E+01  0.12503008275E+02  0.00000000000E+00 0. -1.
</event>
<event>
 7    1  0.5019004E-011  0.5052885E+02  0.7816164E-02  0.1300439E+00
        -11   -1    0    0    0    0  0.00000000000E+00  0.00000000000E+00  0.45593999997E+02  0.45594000000E+02  0.51100000000E-03 0. -1.
         11   -1    0    0    0    0 -0.00000000000E+00 -0.00000000000E+00 -0.45593999997E+02  0.45594000000E+02  0.51100000000E-03 0.  1.
    9900012    2    1    2    0    0  0.33958878980E+02 -0.13714875285E+02  0.17659645819E+02  0.50528851508E+02  0.29999974642E+02 0.  0.
        -12    1    1    2    0    0 -0.33958878980E+02  0.13714875285E+02 -0.17659645819E+02  0.40659148492E+02  0.00000000000E+00 0.  1.
         11    1    3    3    0    0  0.15407538810E+02  0.26854466793E+00  0.19553807411E+02  0.24896099152E+02  0.51100000000E-03 0. -1.
        -11    1    3    3    0    0  0.19205686956E+02 -0.10398665597E+02 -0.23243886856E+01  0.21963456939E+02  0.51100000000E-03 0.  1.
         12    1    3    3    0    0 -0.65434678663E+00 -0.35847543554E+01  0.43022709318E+00  0.36692954170E+01  0.00000000000E+00 0. -1.
</event>
<event>
 7    1  0.5019004E-011  0.5052886E+02  0.7816164E-02  0.1300439E+00
        -11   -1    0    0    0    0  0.00000000000E+00  0.00000000000E+00  0.45593999997E+02  0.45594000000E+02  0.51100000000E-03 0.  1.
         11   -1    0    0    0    0 -0.00000000000E+00 -0.00000000000E+00 -0.45593999997E+02  0.45594000000E+02  0.51100000000E-03 0. -1.
    9900012    2    1    2    0    0 -0.64788284215E+01 -0.26554799785E+02 -0.30100377246E+02  0.50528864253E+02  0.30000013384E+02 0.  0.
        -12    1    1    2    0    0  0.64788284215E+01  0.26554799785E+02  0.30100377246E+02  0.40659135747E+02  0.00000000000E+00 0.  1.
         11    1    3    3    0    0  0.55597732962E+01 -0.24873306939E+02 -0.16253042103E+02  0.30228361766E+02  0.51100000000E-03 0.  1.
        -11    1    3    3    0    0 -0.13185515559E+02 -0.23625400841E+01 -0.13241389862E+02  0.18835440583E+02  0.51100000000E-03 0. -1.
        -12    1    3    3    0    0  0.11469138414E+01  0.68104723828E+00 -0.60594528158E+00  0.14650619047E+01  0.00000000000E+00 0.  1.
</event>
<event>
 7    1  0.5019004E-011  0.5052886E+02  0.7816164E-02  0.1300439E+00
        -11   -1    0    0    0    0  0.00000000000E+00  0.00000000000E+00  0.45593999997E+02  0.45594000000E+02  0.51100000000E-03 0. -1.
         11   -1    0    0    0    0 -0.00000000000E+00 -0.00000000000E+00 -0.45593999997E+02  0.45594000000E+02  0.51100000000E-03 0.  1.
    9900012    2    1    2    0    0  0.27824171112E+02  0.97985176144E+01  0.27981598854E+02  0.50528864250E+02  0.30000013374E+02 0.  0.
        -12    1    1    2    0    0 -0.27824171112E+02 -0.97985176144E+01 -0.27981598854E+02  0.40659135750E+02  0.00000000000E+00 0.  1.
         11    1    3    3    0    0  0.77507124259E+01 -0.67411976484E+01 -0.11850752371E+01  0.10340294600E+02  0.51100000000E-03 0. -1.
        -11    1    3    3    0    0  0.16314239941E+01  0.28811583481E+01  0.31954102406E+00  0.33263680497E+01  0.51100000000E-03 0.  1.
         12    1    3    3    0    0  0.18442034692E+02  0.13658556915E+02  0.28847133067E+02  0.36862201600E+02  0.00000000000E+00 0. -1.
</event>
<event>
 7    1  0.5019004E-011  0.5052888E+02  0.7816164E-02  0.1300439E+00
        -11   -1    0    0    0    0  0.00000000000E+00  0.00000000000E+00  0.45593999997E+02  0.45594000000E+02  0.51100000000E-03 0. -1.
         11   -1    0    0    0    0 -0.00000000000E+00 -0.00000000000E+00 -0.45593999997E+02  0.45594000000E+02  0.51100000000E-03 0.  1.
    9900012    2    1    2    0    0 -0.44498879655E+01  0.69482209185E+01  0.39813125222E+02  0.50528877816E+02  0.30000054609E+02 0.  0.
        -12    1    1    2    0    0  0.44498879655E+01 -0.69482209185E+01 -0.39813125222E+02  0.40659122184E+02  0.00000000000E+00 0.  1.
         11    1    3    3    0    0  0.32832964541E+01 -0.26257523606E+00  0.20047054545E+02  0.20315840558E+02  0.51100000000E-03 0. -1.
        -11    1    3    3    0    0 -0.13718451789E+02  0.91720271722E+01  0.15176707211E+02  0.22419956377E+02  0.51100000000E-03 0.  1.
        -12    1    3    3    0    0  0.59852673696E+01 -0.19612310176E+01  0.45893634663E+01  0.77930808809E+01  0.00000000000E+00 0.  1.
</event>
<event>
 7    1  0.5019004E-011  0.5052889E+02  0.7816164E-02  0.1300439E+00
        -11   -1    0    0    0    0  0.00000000000E+00  0.00000000000E+00  0.45593999997E+02  0.45594000000E+02  0.51100000000E-03 0.  1.
         11   -1    0    0    0    0 -0.00000000000E+00 -0.00000000000E+00 -0.45593999997E+02  0.45594000000E+02  0.51100000000E-03 0. -1.
    9900012    2    1    2    0    0 -0.97828653386E+01 -0.33283973086E+02 -0.21204625267E+02  0.50528887228E+02  0.30000083219E+02 0.  0.
        -12    1    1    2    0    0  0.97828653386E+01  0.33283973086E+02  0.21204625267E+02  0.40659112772E+02  0.00000000000E+00 0.  1.
         11    1    3    3    0    0  0.33767686848E+01 -0.10826947435E+01 -0.86718652424E+01  0.93688868977E+01  0.51100000000E-03 0. -1.
        -11    1    3    3    0    0 -0.11319041128E+02 -0.27487459656E+02 -0.17141941392E+02  0.34315117447E+02  0.51100000000E-03 0.  1.
        -12    1    3    3    0    0 -0.18405928958E+01 -0.47138186864E+01  0.46091813675E+01  0.68448828840E+01  0.00000000000E+00 0.  1.
</event>
<event>
 7    1  0.7520080E-011  0.5052886E+02  0.7816164E-02  0.1300439E+00
        -11   -1    0    0    0    0  0.00000000000E+00  0.00000000000E+00  0.45593999997E+02  0.45594000000E+02  0.51100000000E-03 0.  1.
         11   -1    0    0    0    0 -0.00000000000E+00 -0.00000000000E+00 -0.45593999997E+02  0.45594000000E+02  0.51100000000E-03 0. -1.
    9900012    2    1    2    0    0 -0.24958093760E+02 -0.32097600662E+02  0.58333557326E-01  0.50528858159E+02  0.29999994862E+02 0.  0.
        -12    1    1    2    0    0  0.24958093760E+02  0.32097600662E+02 -0.58333557326E-01  0.40659141841E+02  0.00000000000E+00 0.  1.
         11    1    3    3    0    0 -0.16404964432E+02 -0.20375774576E+02  0.61720068928E+01  0.26877289985E+02  0.51100000000E-03 0. -1.
        -11    1    3    3    0    0 -0.94573573850E+00  0.45818223413E+01 -0.91601534574E-01  0.46793058413E+01  0.51100000000E-03 0.  1.
         12    1    3    3    0    0 -0.76073935900E+01 -0.16303648428E+02 -0.60220718009E+01  0.18972262334E+02  0.00000000000E+00 0. -1.
</event>
<event>
 7    1  0.5019004E-011  0.5052886E+02  0.7816164E-02  0.1300439E+00
        -11   -1    0    0    0    0  0.00000000000E+00  0.00000000000E+00  0.45593999997E+02  0.45594000000E+02  0.51100000000E-03 0.  1.
         11   -1    0    0    0    0 -0.00000000000E+00 -0.00000000000E+00 -0.45593999997E+02  0.45594000000E+02  0.51100000000E-03 0. -1.
    9900012    2    1    2    0    0  0.27850958441E+02 -0.15853846318E+02 -0.25022891127E+02  0.50528863149E+02  0.30000010027E+02 0.  0.
        -12    1    1    2    0    0 -0.27850958441E+02  0.15853846318E+02  0.25022891127E+02  0.40659136851E+02  0.00000000000E+00 0.  1.
         11    1    3    3    0    0  0.19163803543E+02 -0.16357873499E+02 -0.40605423167E+01  0.25520959931E+02  0.51100000000E-03 0. -1.
        -11    1    3    3    0    0  0.65311365323E+01 -0.37553096180E+01 -0.17669254593E+02  0.19208348520E+02  0.51100000000E-03 0.  1.
         12    1    3    3    0    0  0.21560183659E+01  0.42593367995E+01 -0.32930942171E+01  0.57995546975E+01  0.00000000000E+00 0. -1.
</event>
<event>
 7    1  0.5019004E-011  0.5052887E+02  0.7816164E-02  0.1300439E+00
        -11   -1    0    0    0    0  0.00000000000E+00  0.00000000000E+00  0.45593999997E+02  0.45594000000E+02  0.51100000000E-03 0.  1.
         11   -1    0    0    0    0 -0.00000000000E+00 -0.00000000000E+00 -0.45593999997E+02  0.45594000000E+02  0.51100000000E-03 0. -1.
    9900012    2    1    2    0    0 -0.29466592007E+02  0.29066269059E+01 -0.27864607158E+02  0.50528869948E+02  0.30000030694E+02 0.  0.
        -12    1    1    2    0    0  0.29466592007E+02 -0.29066269059E+01  0.27864607158E+02  0.40659130052E+02  0.00000000000E+00 0.  1.
         11    1    3    3    0    0 -0.31906637510E+01 -0.16798848202E+01 -0.20262887551E+02  0.20581228348E+02  0.51100000000E-03 0. -1.
        -11    1    3    3    0    0 -0.23204830466E+02  0.67625917236E+01 -0.35705787882E+01  0.24432475047E+02  0.51100000000E-03 0.  1.
        -12    1    3    3    0    0 -0.30710977904E+01 -0.21760799975E+01 -0.40311408197E+01  0.55151665525E+01  0.00000000000E+00 0.  1.
</event>
<event>
 7    1  0.5019004E-011  0.5052885E+02  0.7816164E-02  0.1300439E+00
        -11   -1    0    0    0    0  0.00000000000E+00  0.00000000000E+00  0.45593999997E+02  0.45594000000E+02  0.51100000000E-03 0.  1.
         11   -1    0    0    0    0 -0.00000000000E+00 -0.00000000000E+00 -0.45593999997E+02  0.45594000000E+02  0.51100000000E-03 0. -1.
    9900012    2    1    2    0    0 -0.32127834128E+02  0.23118242368E+02 -0.93013576523E+01  0.50528854532E+02  0.29999983837E+02 0.  0.
        -12    1    1    2    0    0  0.32127834128E+02 -0.23118242368E+02  0.93013576523E+01  0.40659145468E+02  0.00000000000E+00 0.  1.
         11    1    3    3    0    0 -0.11268072699E+02  0.76458412696E+01 -0.24211162875E+01  0.13830768432E+02  0.51100000000E-03 0. -1.
        -11    1    3    3    0    0  0.38157645364E+01  0.67730402495E+01  0.35314693097E+01  0.85384664294E+01  0.51100000000E-03 0.  1.
        -12    1    3    3    0    0 -0.24675525966E+02  0.86993608492E+01 -0.10411710674E+02  0.28159619672E+02  0.00000000000E+00 0.  1.
</event>
<event>
 7    1  0.5019004E-011  0.5052885E+02  0.7816164E-02  0.1300439E+00
        -11   -1    0    0    0    0  0.00000000000E+00  0.00000000000E+00  0.45593999997E+02  0.45594000000E+02  0.51100000000E-03 0.  1.
         11   -1    0    0    0    0 -0.00000000000E+00 -0.00000000000E+00 -0.45593999997E+02  0.45594000000E+02  0.51100000000E-03 0. -1.
    9900012    2    1    2    0    0 -0.55658245054E+00  0.29858674008E+02 -0.27591960560E+02  0.50528849922E+02  0.29999969822E+02 0.  0.
        -12    1    1    2    0    0  0.55658245054E+00 -0.29858674008E+02  0.27591960560E+02  0.40659150078E+02  0.00000000000E+00 0.  1.
         11    1    3    3    0    0  0.14021290380E+01  0.26524632544E+02 -0.10577295412E+02  0.28590230428E+02  0.51100000000E-03 0. -1.
        -11    1    3    3    0    0  0.52749418951E+00 -0.45865848874E+01 -0.25848079828E+01  0.52911476655E+01  0.51100000000E-03 0.  1.
         12    1    3    3    0    0 -0.24862056781E+01  0.79206263513E+01 -0.14429857165E+02  0.16647471828E+02  0.00000000000E+00 0. -1.
</event>
<event>
 7    1  0.5019004E-011  0.5052888E+02  0.7816164E-02  0.1300439E+00
        -11   -1    0    0    0    0  0.00000000000E+00  0.00000000000E+00  0.45593999997E+02  0.45594000000E+02  0.51100000000E-03 0.  1.
         11   -1    0    0    0    0 -0.00000000000E+00 -0.00000000000E+00 -0.45593999997E+02  0.45594000000E+02  0.51100000000E-03 0. -1.
    9900012    2    1    2    0    0 -0.20039746549E+02  0.20684696287E+02 -0.28700456117E+02  0.50528876994E+02  0.30000052112E+02 0.  0.
        -12    1    1    2    0    0  0.20039746549E+02 -0.20684696287E+02  0.28700456117E+02  0.40659123006E+02  0.00000000000E+00 0.  1.
         11    1    3    3    0    0 -0.25185809511E+01  0.61364413121E+00 -0.16803696141E+02  0.17002470802E+02  0.51100000000E-03 0. -1.
        -11    1    3    3    0    0 -0.20554622723E+02  0.15137373188E+02 -0.10220042196E+02  0.27496942467E+02  0.51100000000E-03 0.  1.
        -12    1    3    3    0    0  0.30334571247E+01  0.49336789686E+01 -0.16767177798E+01  0.60294637245E+01  0.00000000000E+00 0.  1.
</event>
<event>
 7    1  0.5019004E-011  0.5052886E+02  0.7816164E-02  0.1300439E+00
        -11   -1    0    0    0    0  0.00000000000E+00  0.00000000000E+00  0.45593999997E+02  0.45594000000E+02  0.51100000000E-03 0.  1.
         11   -1    0    0    0    0 -0.00000000000E+00 -0.00000000000E+00 -0.45593999997E+02  0.45594000000E+02  0.51100000000E-03 0. -1.
    9900012    2    1    2    0    0 -0.39702109093E+02 -0.87433942628E+01 -0.67892439086E+00  0.50528863905E+02  0.30000012327E+02 0.  0.
        -12    1    1    2    0    0  0.39702109093E+02  0.87433942628E+01  0.67892439086E+00  0.40659136095E+02  0.00000000000E+00 0.  1.
         11    1    3    3    0    0 -0.13837838192E+02  0.72411035002E+01  0.16411956641E+01  0.15703912545E+02  0.51100000000E-03 0. -1.
        -11    1    3    3    0    0 -0.25840350529E+02 -0.10794543460E+02 -0.57704137804E+01  0.28592718643E+02  0.51100000000E-03 0.  1.
         12    1    3    3    0    0 -0.23920371608E-01 -0.51899543032E+01  0.34502937255E+01  0.62322327175E+01  0.00000000000E+00 0. -1.
</event>
<event>
 7    1  0.5019004E-011  0.5052886E+02  0.7816164E-02  0.1300439E+00
        -11   -1    0    0    0    0  0.00000000000E+00  0.00000000000E+00  0.45593999997E+02  0.45594000000E+02  0.51100000000E-03 0.  1.
         11   -1    0    0    0    0 -0.00000000000E+00 -0.00000000000E+00 -0.45593999997E+02  0.45594000000E+02  0.51100000000E-03 0. -1.
    9900012    2    1    2    0    0 -0.75154859706E+01  0.11431767445E+02 -0.38288348574E+02  0.50528862370E+02  0.30000007660E+02 0.  0.
        -12    1    1    2    0    0  0.75154859706E+01 -0.11431767445E+02  0.38288348574E+02  0.40659137630E+02  0.00000000000E+00 0.  1.
         11    1    3    3    0    0 -0.27874428403E+00 -0.56063861963E+01 -0.70137948346E+01  0.89834616268E+01  0.51100000000E-03 0. -1.
        -11    1    3    3    0    0 -0.12471856968E+02  0.14874134505E+02 -0.15677093517E+02  0.24951119312E+02  0.51100000000E-03 0.  1.
         12    1    3    3    0    0  0.52351152816E+01  0.21640191363E+01 -0.15597460222E+02  0.16594281431E+02  0.00000000000E+00 0. -1.
</event>
<event>
 7    1  0.5019004E-011  0.5052885E+02  0.7816164E-02  0.1300439E+00
        -11   -1    0    0    0    0  0.00000000000E+00  0.00000000000E+00  0.45593999997E+02  0.45594000000E+02  0.51100000000E-03 0.  1.
         11   -1    0    0    0    0 -0.00000000000E+00 -0.00000000000E+00 -0.45593999997E+02  0.45594000000E+02  0.51100000000E-03 0. -1.
    9900012    2    1    2    0    0  0.24147584216E+02 -0.14596591694E+02 -0.29274562159E+02  0.50528852171E+02  0.29999976660E+02 0.  0.
        -12    1    1    2    0    0 -0.24147584216E+02  0.14596591694E+02  0.29274562159E+02  0.40659147829E+02  0.00000000000E+00 0.  1.
         11    1    3    3    0    0  0.20087507034E+02 -0.32922660049E+01 -0.12037935684E+02  0.23648654298E+02  0.51100000000E-03 0. -1.
        -11    1    3    3    0    0 -0.19928015066E+01  0.20596254982E+01 -0.10226730530E+02  0.10620703019E+02  0.51100000000E-03 0.  1.
         12    1    3    3    0    0  0.60528786878E+01 -0.13363951187E+02 -0.70098959463E+01  0.16259494854E+02  0.00000000000E+00 0. -1.
</event>
<event>
 7    1  0.5019004E-011  0.5052883E+02  0.7816164E-02  0.1300439E+00
        -11   -1    0    0    0    0  0.00000000000E+00  0.00000000000E+00  0.45593999997E+02  0.45594000000E+02  0.51100000000E-03 0.  1.
         11   -1    0    0    0    0 -0.00000000000E+00 -0.00000000000E+00 -0.45593999997E+02  0.45594000000E+02  0.51100000000E-03 0. -1.
    9900012    2    1    2    0    0  0.26834840997E+02  0.18170587171E+02 -0.24553809162E+02  0.50528825465E+02  0.29999895485E+02 0.  0.
        -12    1    1    2    0    0 -0.26834840997E+02 -0.18170587171E+02  0.24553809162E+02  0.40659174535E+02  0.00000000000E+00 0.  1.
         11    1    3    3    0    0  0.18191580469E+02  0.12515332802E+02 -0.26514788381E+02  0.34505088875E+02  0.51100000000E-03 0. -1.
        -11    1    3    3    0    0  0.71572565512E+01 -0.23340364909E+01  0.23547284696E+01  0.78878890780E+01  0.51100000000E-03 0.  1.
        -12    1    3    3    0    0  0.14860039762E+01  0.79892908605E+01 -0.39374925012E+00  0.81358475123E+01  0.00000000000E+00 0.  1.
</event>
<event>
 7    1  0.5019004E-011  0.5052886E+02  0.7816164E-02  0.1300439E+00
        -11   -1    0    0    0    0  0.00000000000E+00  0.00000000000E+00  0.45593999997E+02  0.45594000000E+02  0.51100000000E-03 0. -1.
         11   -1    0    0    0    0 -0.00000000000E+00 -0.00000000000E+00 -0.45593999997E+02  0.45594000000E+02  0.51100000000E-03 0.  1.
    9900012    2    1    2    0    0 -0.21165191142E+02  0.11200413946E+02  0.32859564499E+02  0.50528861203E+02  0.30000004113E+02 0.  0.
        -12    1    1    2    0    0  0.21165191142E+02 -0.11200413946E+02 -0.32859564499E+02  0.40659138797E+02  0.00000000000E+00 0.  1.
         11    1    3    3    0    0 -0.66845544164E+01  0.27963901926E+01  0.25017807363E+02  0.26045993000E+02  0.51100000000E-03 0. -1.
        -11    1    3    3    0    0 -0.17074007717E+02  0.64898322244E+01  0.27716420648E+01  0.18474892741E+02  0.51100000000E-03 0.  1.
         12    1    3    3    0    0  0.25933709912E+01  0.19141915292E+01  0.50701150716E+01  0.60079754617E+01  0.00000000000E+00 0. -1.
</event>
<event>
 7    1  0.5019004E-011  0.5052886E+02  0.7816164E-02  0.1300439E+00
        -11   -1    0    0    0    0  0.00000000000E+00  0.00000000000E+00  0.45593999997E+02  0.45594000000E+02  0.51100000000E-03 0. -1.
         11   -1    0    0    0    0 -0.00000000000E+00 -0.00000000000E+00 -0.45593999997E+02  0.45594000000E+02  0.51100000000E-03 0.  1.
    9900012    2    1    2    0    0  0.37891453691E+02 -0.85765469243E+01  0.11993580846E+02  0.50528863248E+02  0.30000010327E+02 0.  0.
        -12    1    1    2    0    0 -0.37891453691E+02  0.85765469243E+01 -0.11993580846E+02  0.40659136752E+02  0.00000000000E+00 0.  1.
         11    1    3    3    0    0  0.18499643952E+02 -0.54896676287E+01  0.57971711803E+01  0.20148957069E+02  0.51100000000E-03 0. -1.
        -11    1    3    3    0    0 -0.30407736924E+01 -0.60764407475E+01 -0.40194938806E+00  0.68066879154E+01  0.51100000000E-03 0.  1.
        -12    1    3    3    0    0  0.22432583432E+02  0.29895614518E+01  0.65983590538E+01  0.23573218263E+02  0.00000000000E+00 0.  1.
</event>
<event>
 7    1  0.5019004E-011  0.5052886E+02  0.7816164E-02  0.1300439E+00
        -11   -1    0    0    0    0  0.00000000000E+00  0.00000000000E+00  0.45593999997E+02  0.45594000000E+02  0.51100000000E-03 0.  1.
         11   -1    0    0    0    0 -0.00000000000E+00 -0.00000000000E+00 -0.45593999997E+02  0.45594000000E+02  0.51100000000E-03 0. -1.
    9900012    2    1    2    0    0 -0.18775592950E+02 -0.86161859566E+01 -0.35020048773E+02  0.50528863669E+02  0.30000011610E+02 0.  0.
        -12    1    1    2    0    0  0.18775592950E+02  0.86161859566E+01  0.35020048773E+02  0.40659136331E+02  0.00000000000E+00 0.  1.
         11    1    3    3    0    0 -0.11150687011E+02  0.50322923700E+00 -0.10488245052E+02  0.15316472995E+02  0.51100000000E-03 0. -1.
        -11    1    3    3    0    0 -0.33270125357E+01 -0.16190419136E+02 -0.19352985166E+02  0.25450672276E+02  0.51100000000E-03 0.  1.
        -12    1    3    3    0    0 -0.42978934041E+01  0.70710039423E+01 -0.51788185552E+01  0.97617183985E+01  0.00000000000E+00 0.  1.
</event>
<event>
 7    1  0.5019004E-011  0.5052886E+02  0.7816164E-02  0.1300439E+00
        -11   -1    0    0    0    0  0.00000000000E+00  0.00000000000E+00  0.45593999997E+02  0.45594000000E+02  0.51100000000E-03 0.  1.
         11   -1    0    0    0    0 -0.00000000000E+00 -0.00000000000E+00 -0.45593999997E+02  0.45594000000E+02  0.51100000000E-03 0. -1.
    9900012    2    1    2    0    0 -0.26042355006E+02  0.29878123180E+02 -0.90696721952E+01  0.50528862617E+02  0.30000008410E+02 0.  0.
        -12    1    1    2    0    0  0.26042355006E+02 -0.29878123180E+02  0.90696721952E+01  0.40659137383E+02  0.00000000000E+00 0.  1.
         11    1    3    3    0    0 -0.54226743447E+01  0.24535336068E+02 -0.72810980163E+01  0.26161087546E+02  0.51100000000E-03 0. -1.
        -11    1    3    3    0    0 -0.17017599812E+02 -0.55866753668E+00 -0.31643537035E+01  0.17318312487E+02  0.51100000000E-03 0.  1.
        -12    1    3    3    0    0 -0.36020808495E+01  0.59014546485E+01  0.13757795246E+01  0.70494625834E+01  0.00000000000E+00 0.  1.
</event>
<event>
 7    1  0.5019004E-011  0.5052887E+02  0.7816164E-02  0.1300439E+00
        -11   -1    0    0    0    0  0.00000000000E+00  0.00000000000E+00  0.45593999997E+02  0.45594000000E+02  0.51100000000E-03 0. -1.
         11   -1    0    0    0    0 -0.00000000000E+00 -0.00000000000E+00 -0.45593999997E+02  0.45594000000E+02  0.51100000000E-03 0.  1.
    9900012    2    1    2    0    0 -0.17626400496E+02 -0.26542876933E+02  0.25257684164E+02  0.50528869172E+02  0.30000028336E+02 0.  0.
        -12    1    1    2    0    0  0.17626400496E+02  0.26542876933E+02 -0.25257684164E+02  0.40659130828E+02  0.00000000000E+00 0.  1.
         11    1    3    3    0    0 -0.24195748705E+02 -0.24678122532E+02  0.17923008758E+02  0.38931712399E+02  0.51100000000E-03 0. -1.
        -11    1    3    3    0    0  0.63932543474E+01 -0.33330124461E+01  0.47965140447E+01  0.86596316526E+01  0.51100000000E-03 0.  1.
         12    1    3    3    0    0  0.17609386155E+00  0.14682580456E+01  0.25381613618E+01  0.29375251207E+01  0.00000000000E+00 0. -1.
</event>
<event>
 7    1  0.5019004E-011  0.5052886E+02  0.7816164E-02  0.1300439E+00
        -11   -1    0    0    0    0  0.00000000000E+00  0.00000000000E+00  0.45593999997E+02  0.45594000000E+02  0.51100000000E-03 0.  1.
         11   -1    0    0    0    0 -0.00000000000E+00 -0.00000000000E+00 -0.45593999997E+02  0.45594000000E+02  0.51100000000E-03 0. -1.
    9900012    2    1    2    0    0  0.12245808964E+02  0.14079118488E+02 -0.36124566153E+02  0.50528859646E+02  0.29999999381E+02 0.  0.
        -12    1    1    2    0    0 -0.12245808964E+02 -0.14079118488E+02  0.36124566153E+02  0.40659140354E+02  0.00000000000E+00 0.  1.
         11    1    3    3    0    0  0.78932400151E+01  0.29770103695E+01 -0.17381431572E+01  0.86131858550E+01  0.51100000000E-03 0. -1.
        -11    1    3    3    0    0  0.55456900270E+00 -0.42108729060E+01 -0.20381922926E+02  0.20819744952E+02  0.51100000000E-03 0.  1.
        -12    1    3    3    0    0  0.37979999459E+01  0.15312981024E+02 -0.14004500069E+02  0.21095928840E+02  0.00000000000E+00 0.  1.
</event>
<event>
 7    1  0.5019004E-011  0.5052886E+02  0.7816164E-02  0.1300439E+00
        -11   -1    0    0    0    0  0.00000000000E+00  0.00000000000E+00  0.45593999997E+02  0.45594000000E+02  0.51100000000E-03 0. -1.
         11   -1    0    0    0    0 -0.00000000000E+00 -0.00000000000E+00 -0.45593999997E+02  0.45594000000E+02  0.51100000000E-03 0.  1.
    9900012    2    1    2    0    0 -0.15537473594E+02 -0.18709876994E+02  0.32583629936E+02  0.50528861757E+02  0.30000005797E+02 0.  0.
        -12    1    1    2    0    0  0.15537473594E+02  0.18709876994E+02 -0.32583629936E+02  0.40659138243E+02  0.00000000000E+00 0.  1.
         11    1    3    3    0    0 -0.55603586170E+01 -0.19091455992E+02  0.12501072395E+02  0.23487828575E+02  0.51100000000E-03 0. -1.
        -11    1    3    3    0    0 -0.34469507441E+01  0.44184150813E+01  0.18328450496E+02  0.19166010517E+02  0.51100000000E-03 0.  1.
        -12    1    3    3    0    0 -0.65301642327E+01 -0.40368360830E+01  0.17541070447E+01  0.78750226661E+01  0.00000000000E+00 0.  1.
</event>
<event>
 7    1  0.5019004E-011  0.5052886E+02  0.7816164E-02  0.1300439E+00
        -11   -1    0    0    0    0  0.00000000000E+00  0.00000000000E+00  0.45593999997E+02  0.45594000000E+02  0.51100000000E-03 0.  1.
         11   -1    0    0    0    0 -0.00000000000E+00 -0.00000000000E+00 -0.45593999997E+02  0.45594000000E+02  0.51100000000E-03 0. -1.
    9900012    2    1    2    0    0 -0.18581950376E+02  0.34431482239E+01 -0.36000302856E+02  0.50528856438E+02  0.29999989629E+02 0.  0.
        -12    1    1    2    0    0  0.18581950376E+02 -0.34431482239E+01  0.36000302856E+02  0.40659143562E+02  0.00000000000E+00 0.  1.
         11    1    3    3    0    0 -0.22872354421E+02  0.57168497834E+01 -0.17391342075E+02  0.29296514258E+02  0.51100000000E-03 0. -1.
        -11    1    3    3    0    0  0.52793354424E+01  0.16843238169E+01 -0.14109490482E+02  0.15158695569E+02  0.51100000000E-03 0.  1.
         12    1    3    3    0    0 -0.98893139702E+00 -0.39580253764E+01 -0.44994702990E+01  0.60736466114E+01  0.00000000000E+00 0. -1.
</event>
<event>
 7    1  0.5019004E-011  0.5052886E+02  0.7816164E-02  0.1300439E+00
        -11   -1    0    0    0    0  0.00000000000E+00  0.00000000000E+00  0.45593999997E+02  0.45594000000E+02  0.51100000000E-03 0.  1.
         11   -1    0    0    0    0 -0.00000000000E+00 -0.00000000000E+00 -0.45593999997E+02  0.45594000000E+02  0.51100000000E-03 0. -1.
    9900012    2    1    2    0    0  0.40117353360E+01 -0.10341825156E+02 -0.39116721626E+02  0.50528864757E+02  0.30000014915E+02 0.  0.
        -12    1    1    2    0    0 -0.40117353360E+01  0.10341825156E+02  0.39116721626E+02  0.40659135243E+02  0.00000000000E+00 0.  1.
         11    1    3    3    0    0  0.52557212978E+01 -0.13729869410E+02 -0.42897872985E+01  0.15314509320E+02  0.51100000000E-03 0. -1.
        -11    1    3    3    0    0 -0.22710169833E+01  0.31178913223E+01 -0.31125135787E+02  0.31363240305E+02  0.51100000000E-03 0.  1.
         12    1    3    3    0    0  0.10270310216E+01  0.27015293134E+00 -0.37017985404E+01  0.38511151319E+01  0.00000000000E+00 0. -1.
</event>
<event>
 7    1  0.5019004E-011  0.5052882E+02  0.7816164E-02  0.1300439E+00
        -11   -1    0    0    0    0  0.00000000000E+00  0.00000000000E+00  0.45593999997E+02  0.45594000000E+02  0.51100000000E-03 0.  1.
         11   -1    0    0    0    0 -0.00000000000E+00 -0.00000000000E+00 -0.45593999997E+02  0.45594000000E+02  0.51100000000E-03 0. -1.
    9900012    2    1    2    0    0  0.20638563613E+00  0.30941971584E+02 -0.26376517250E+02  0.50528820682E+02  0.29999880946E+02 0.  0.
        -12    1    1    2    0    0 -0.20638563613E+00 -0.30941971584E+02  0.26376517250E+02  0.40659179318E+02  0.00000000000E+00 0.  1.
         11    1    3    3    0    0  0.15905951720E+01  0.12801838312E+02 -0.23019858162E+02  0.26388083053E+02  0.51100000000E-03 0. -1.
        -11    1    3    3    0    0  0.44352505454E+00 -0.21452619040E+01  0.21212765220E+01  0.30493732889E+01  0.51100000000E-03 0.  1.
        -12    1    3    3    0    0 -0.18277345904E+01  0.20285395176E+02 -0.54779356100E+01  0.21091364340E+02  0.00000000000E+00 0.  1.
</event>
<event>
 7    1  0.5019004E-011  0.5052886E+02  0.7816164E-02  0.1300439E+00
        -11   -1    0    0    0    0  0.00000000000E+00  0.00000000000E+00  0.45593999997E+02  0.45594000000E+02  0.51100000000E-03 0. -1.
         11   -1    0    0    0    0 -0.00000000000E+00 -0.00000000000E+00 -0.45593999997E+02  0.45594000000E+02  0.51100000000E-03 0.  1.
    9900012    2    1    2    0    0  0.14022488721E+02 -0.32180244832E+02 -0.20517491330E+02  0.50528858373E+02  0.29999995511E+02 0.  0.
        -12    1    1    2    0    0 -0.14022488721E+02  0.32180244832E+02  0.20517491330E+02  0.40659141627E+02  0.00000000000E+00 0.  1.
         11    1    3    3    0    0  0.10077757168E+02 -0.15835862434E+02 -0.22896804236E+02  0.29607420912E+02  0.51100000000E-03 0. -1.
        -11    1    3    3    0    0 -0.44166343563E+01 -0.64419175044E+01  0.12770141674E+01  0.79142735368E+01  0.51100000000E-03 0.  1.
         12    1    3    3    0    0  0.83613659098E+01 -0.99024648931E+01  0.11022987391E+01  0.13007163924E+02  0.00000000000E+00 0. -1.
</event>
<event>
 7    1  0.5019004E-011  0.5052881E+02  0.7816164E-02  0.1300439E+00
        -11   -1    0    0    0    0  0.00000000000E+00  0.00000000000E+00  0.45593999997E+02  0.45594000000E+02  0.51100000000E-03 0. -1.
         11   -1    0    0    0    0 -0.00000000000E+00 -0.00000000000E+00 -0.45593999997E+02  0.45594000000E+02  0.51100000000E-03 0.  1.
    9900012    2    1    2    0    0  0.17017316201E+02 -0.34811888761E+02  0.12317176926E+02  0.50528812881E+02  0.29999857233E+02 0.  0.
        -12    1    1    2    0    0 -0.17017316201E+02  0.34811888761E+02 -0.12317176926E+02  0.40659187119E+02  0.00000000000E+00 0.  1.
         11    1    3    3    0    0 -0.11324775121E+01 -0.25484243313E+02  0.11704743231E+01  0.25536232552E+02  0.51100000000E-03 0. -1.
        -11    1    3    3    0    0  0.10012751490E+02 -0.84050189852E+01  0.29408967595E+01  0.13399567551E+02  0.51100000000E-03 0.  1.
         12    1    3    3    0    0  0.81370422231E+01 -0.92262646199E+00  0.82058058434E+01  0.11593012778E+02  0.00000000000E+00 0. -1.
</event>
<event>
 7    1  0.5019004E-011  0.5052882E+02  0.7816164E-02  0.1300439E+00
        -11   -1    0    0    0    0  0.00000000000E+00  0.00000000000E+00  0.45593999997E+02  0.45594000000E+02  0.51100000000E-03 0.  1.
         11   -1    0    0    0    0 -0.00000000000E+00 -0.00000000000E+00 -0.45593999997E+02  0.45594000000E+02  0.51100000000E-03 0. -1.
    9900012    2    1    2    0    0 -0.31063540351E+02  0.19263917715E+02 -0.17808061566E+02  0.50528817499E+02  0.29999871271E+02 0.  0.
        -12    1    1    2    0    0  0.31063540351E+02 -0.19263917715E+02  0.17808061566E+02  0.40659182501E+02  0.00000000000E+00 0.  1.
         11    1    3    3    0    0  0.18546691245E+00  0.53175295025E+01 -0.53362237300E+01  0.75356354704E+01  0.51100000000E-03 0. -1.
        -11    1    3    3    0    0 -0.33180404617E+02  0.86822299039E+01 -0.14206991980E+02  0.37123563784E+02  0.51100000000E-03 0.  1.
        -12    1    3    3    0    0  0.19313973534E+01  0.52641583086E+01  0.17351541441E+01  0.58696182447E+01  0.00000000000E+00 0.  1.
</event>
<event>
 7    1  0.5019004E-011  0.5052885E+02  0.7816164E-02  0.1300439E+00
        -11   -1    0    0    0    0  0.00000000000E+00  0.00000000000E+00  0.45593999997E+02  0.45594000000E+02  0.51100000000E-03 0.  1.
         11   -1    0    0    0    0 -0.00000000000E+00 -0.00000000000E+00 -0.45593999997E+02  0.45594000000E+02  0.51100000000E-03 0. -1.
    9900012    2    1    2    0    0  0.84617663858E+01  0.31457006865E+02 -0.24331497900E+02  0.50528848984E+02  0.29999966972E+02 0.  0.
        -12    1    1    2    0    0 -0.84617663858E+01 -0.31457006865E+02  0.24331497900E+02  0.40659151016E+02  0.00000000000E+00 0.  1.
         11    1    3    3    0    0  0.14341617156E+02  0.79771014686E+01 -0.19572467599E+02  0.25542075457E+02  0.51100000000E-03 0. -1.
        -11    1    3    3    0    0 -0.41603532838E+01  0.91960521986E+01 -0.11864069682E+01  0.10162847890E+02  0.51100000000E-03 0.  1.
         12    1    3    3    0    0 -0.17194974867E+01  0.14283853198E+02 -0.35726233330E+01  0.14823925636E+02  0.00000000000E+00 0. -1.
</event>
<event>
 7    1  0.5019004E-011  0.5052886E+02  0.7816164E-02  0.1300439E+00
        -11   -1    0    0    0    0  0.00000000000E+00  0.00000000000E+00  0.45593999997E+02  0.45594000000E+02  0.51100000000E-03 0.  1.
         11   -1    0    0    0    0 -0.00000000000E+00 -0.00000000000E+00 -0.45593999997E+02  0.45594000000E+02  0.51100000000E-03 0. -1.
    9900012    2    1    2    0    0  0.25073462733E+02  0.68933644245E+01 -0.31256497565E+02  0.50528860234E+02  0.30000001166E+02 0.  0.
        -12    1    1    2    0    0 -0.25073462733E+02 -0.68933644245E+01  0.31256497565E+02  0.40659139766E+02  0.00000000000E+00 0.  1.
         11    1    3    3    0    0  0.90590160997E+01  0.84226069026E+01 -0.14597138180E+00  0.12370423907E+02  0.51100000000E-03 0. -1.
        -11    1    3    3    0    0 -0.11379647491E+01 -0.45154695002E+01 -0.58010007681E+01  0.74388197149E+01  0.51100000000E-03 0.  1.
         12    1    3    3    0    0  0.17152411382E+02  0.29862270221E+01 -0.25309525415E+02  0.30719616612E+02  0.00000000000E+00 0. -1.
</event>
<event>
 7    1  0.5019004E-011  0.5052885E+02  0.7816164E-02  0.1300439E+00
        -11   -1    0    0    0    0  0.00000000000E+00  0.00000000000E+00  0.45593999997E+02  0.45594000000E+02  0.51100000000E-03 0.  1.
         11   -1    0    0    0    0 -0.00000000000E+00 -0.00000000000E+00 -0.45593999997E+02  0.45594000000E+02  0.51100000000E-03 0. -1.
    9900012    2    1    2    0    0 -0.35910055859E+01 -0.21672758969E+02 -0.34213489535E+02  0.50528847665E+02  0.29999962962E+02 0.  0.
        -12    1    1    2    0    0  0.35910055859E+01  0.21672758969E+02  0.34213489535E+02  0.40659152335E+02  0.00000000000E+00 0.  1.
         11    1    3    3    0    0 -0.43779191085E+01 -0.64052035879E+01 -0.58618961540E+01  0.97239207887E+01  0.51100000000E-03 0. -1.
        -11    1    3    3    0    0  0.51548183690E+01 -0.11033398749E+02 -0.31630724371E+02  0.33894111065E+02  0.51100000000E-03 0.  1.
        -12    1    3    3    0    0 -0.43679048464E+01 -0.42341566320E+01  0.32791309899E+01  0.69108158115E+01  0.00000000000E+00 0.  1.
</event>
<event>
 7    1  0.5019004E-011  0.5052888E+02  0.7816164E-02  0.1300439E+00
        -11   -1    0    0    0    0  0.00000000000E+00  0.00000000000E+00  0.45593999997E+02  0.45594000000E+02  0.51100000000E-03 0.  1.
         11   -1    0    0    0    0 -0.00000000000E+00 -0.00000000000E+00 -0.45593999997E+02  0.45594000000E+02  0.51100000000E-03 0. -1.
    9900012    2    1    2    0    0  0.19633918731E+02 -0.15376952869E+02 -0.32112655161E+02  0.50528879673E+02  0.30000060254E+02 0.  0.
        -12    1    1    2    0    0 -0.19633918731E+02  0.15376952869E+02  0.32112655161E+02  0.40659120327E+02  0.00000000000E+00 0.  1.
         11    1    3    3    0    0  0.19488454567E+02  0.20865630270E+01 -0.24181777825E+02  0.31127351087E+02  0.51100000000E-03 0. -1.
        -11    1    3    3    0    0 -0.12229335272E+01 -0.53356419405E+01 -0.19588514124E+01  0.58139264225E+01  0.51100000000E-03 0.  1.
         12    1    3    3    0    0  0.13683976916E+01 -0.12127873956E+02 -0.59720259238E+01  0.13587602164E+02  0.00000000000E+00 0. -1.
</event>
<event>
 7    1  0.5019004E-011  0.5052886E+02  0.7816164E-02  0.1300439E+00
        -11   -1    0    0    0    0  0.00000000000E+00  0.00000000000E+00  0.45593999997E+02  0.45594000000E+02  0.51100000000E-03 0.  1.
         11   -1    0    0    0    0 -0.00000000000E+00 -0.00000000000E+00 -0.45593999997E+02  0.45594000000E+02  0.51100000000E-03 0. -1.
    9900012    2    1    2    0    0 -0.28259561757E+02  0.29134306146E+02 -0.23988899044E+01  0.50528864519E+02  0.30000014193E+02 0.  0.
        -12    1    1    2    0    0  0.28259561757E+02 -0.29134306146E+02  0.23988899044E+01  0.40659135481E+02  0.00000000000E+00 0.  1.
         11    1    3    3    0    0 -0.74873536104E+01  0.16499747775E+02  0.22236773835E+01  0.18255050866E+02  0.51100000000E-03 0. -1.
        -11    1    3    3    0    0  0.99486841640E+00 -0.37357726747E+01  0.18402896020E+01  0.42816383223E+01  0.51100000000E-03 0.  1.
        -12    1    3    3    0    0 -0.21767076563E+02  0.16370331045E+02 -0.64628568899E+01  0.27992175331E+02  0.00000000000E+00 0.  1.
</event>
<event>
 7    1  0.5019004E-011  0.5052881E+02  0.7816164E-02  0.1300439E+00
        -11   -1    0    0    0    0  0.00000000000E+00  0.00000000000E+00  0.45593999997E+02  0.45594000000E+02  0.51100000000E-03 0. -1.
         11   -1    0    0    0    0 -0.00000000000E+00 -0.00000000000E+00 -0.45593999997E+02  0.45594000000E+02  0.51100000000E-03 0.  1.
    9900012    2    1    2    0    0  0.37990554807E+02  0.11857924837E+02 -0.83232816988E+01  0.50528810950E+02  0.29999851362E+02 0.  0.
        -12    1    1    2    0    0 -0.37990554807E+02 -0.11857924837E+02  0.83232816988E+01  0.40659189050E+02  0.00000000000E+00 0.  1.
         11    1    3    3    0    0  0.96006586157E+01  0.27115465556E+01  0.68241960677E+01  0.12086967478E+02  0.51100000000E-03 0. -1.
        -11    1    3    3    0    0  0.58693912806E+01  0.90678190034E+01 -0.11232477668E+02  0.15583441542E+02  0.51100000000E-03 0.  1.
        -12    1    3    3    0    0  0.22520504911E+02  0.78559277886E-01 -0.39150000987E+01  0.22858401930E+02  0.00000000000E+00 0.  1.
</event>
<event>
 7    1  0.5019004E-011  0.5052886E+02  0.7816164E-02  0.1300439E+00
        -11   -1    0    0    0    0  0.00000000000E+00  0.00000000000E+00  0.45593999997E+02  0.45594000000E+02  0.51100000000E-03 0. -1.
         11   -1    0    0    0    0 -0.00000000000E+00 -0.00000000000E+00 -0.45593999997E+02  0.45594000000E+02  0.51100000000E-03 0.  1.
    9900012    2    1    2    0    0  0.26539750819E+02 -0.45789507485E+00 -0.30799308273E+02  0.50528862878E+02  0.30000009203E+02 0.  0.
        -12    1    1    2    0    0 -0.26539750819E+02  0.45789507485E+00  0.30799308273E+02  0.40659137122E+02  0.00000000000E+00 0.  1.
         11    1    3    3    0    0  0.91489135827E+00 -0.62017719552E+01  0.49336724829E+00  0.62882758436E+01  0.51100000000E-03 0. -1.
        -11    1    3    3    0    0  0.27681629817E+02  0.62722350304E+01 -0.31105237913E+02  0.42108780408E+02  0.51100000000E-03 0.  1.
        -12    1    3    3    0    0 -0.20567703560E+01 -0.52835815000E+00 -0.18743760824E+00  0.21318066256E+01  0.00000000000E+00 0.  1.
</event>
<event>
 7    1  0.5019004E-011  0.5052886E+02  0.7816164E-02  0.1300439E+00
        -11   -1    0    0    0    0  0.00000000000E+00  0.00000000000E+00  0.45593999997E+02  0.45594000000E+02  0.51100000000E-03 0.  1.
         11   -1    0    0    0    0 -0.00000000000E+00 -0.00000000000E+00 -0.45593999997E+02  0.45594000000E+02  0.51100000000E-03 0. -1.
    9900012    2    1    2    0    0  0.40180544433E+01  0.19483228969E+02 -0.35460180510E+02  0.50528863581E+02  0.30000011340E+02 0.  0.
        -12    1    1    2    0    0 -0.40180544433E+01 -0.19483228969E+02  0.35460180510E+02  0.40659136419E+02  0.00000000000E+00 0.  1.
         11    1    3    3    0    0 -0.57106614751E+01  0.18722223398E+02 -0.31013444720E+02  0.36673792511E+02  0.51100000000E-03 0. -1.
        -11    1    3    3    0    0  0.31422624751E+01  0.44542466512E+01 -0.27926197477E+01  0.61247736292E+01  0.51100000000E-03 0.  1.
         12    1    3    3    0    0  0.65864534433E+01 -0.36932410805E+01 -0.16541160421E+01  0.77302974406E+01  0.00000000000E+00 0. -1.
</event>
<event>
 7    1  0.5019004E-011  0.5052887E+02  0.7816164E-02  0.1300439E+00
        -11   -1    0    0    0    0  0.00000000000E+00  0.00000000000E+00  0.45593999997E+02  0.45594000000E+02  0.51100000000E-03 0. -1.
         11   -1    0    0    0    0 -0.00000000000E+00 -0.00000000000E+00 -0.45593999997E+02  0.45594000000E+02  0.51100000000E-03 0.  1.
    9900012    2    1    2    0    0  0.33239164387E+02  0.35730197463E+01  0.23142097265E+02  0.50528865909E+02  0.30000018416E+02 0.  0.
        -12    1    1    2    0    0 -0.33239164387E+02 -0.35730197463E+01 -0.23142097265E+02  0.40659134091E+02  0.00000000000E+00 0.  1.
         11    1    3    3    0    0  0.34962794837E+02  0.24463135166E+01  0.24678283494E+02  0.42864894134E+02  0.51100000000E-03 0. -1.
        -11    1    3    3    0    0 -0.24553723560E+01 -0.21047680466E+00  0.24018461069E+01  0.34412234560E+01  0.51100000000E-03 0.  1.
         12    1    3    3    0    0  0.73174190551E+00  0.13371830344E+01 -0.39380323361E+01  0.42227483187E+01  0.00000000000E+00 0. -1.
</event>
<event>
 7    1  0.5019004E-011  0.5052887E+02  0.7816164E-02  0.1300439E+00
        -11   -1    0    0    0    0  0.00000000000E+00  0.00000000000E+00  0.45593999997E+02  0.45594000000E+02  0.51100000000E-03 0. -1.
         11   -1    0    0    0    0 -0.00000000000E+00 -0.00000000000E+00 -0.45593999997E+02  0.45594000000E+02  0.51100000000E-03 0.  1.
    9900012    2    1    2    0    0  0.40340943071E+02  0.32931998016E+01  0.38636734122E+01  0.50528870336E+02  0.30000031873E+02 0.  0.
        -12    1    1    2    0    0 -0.40340943071E+02 -0.32931998016E+01 -0.38636734122E+01  0.40659129664E+02  0.00000000000E+00 0.  1.
         11    1    3    3    0    0  0.21584543088E+02  0.35370136550E+01  0.11125109187E+02  0.24539173185E+02  0.51100000000E-03 0. -1.
        -11    1    3    3    0    0  0.11106463023E+02 -0.54135271679E+01 -0.10490529237E+02  0.16208362077E+02  0.51100000000E-03 0.  1.
        -12    1    3    3    0    0  0.76499369591E+01  0.51697133145E+01  0.32290934620E+01  0.97813350734E+01  0.00000000000E+00 0.  1.
</event>
<event>
 7    1  0.5019004E-011  0.5052878E+02  0.7816164E-02  0.1300439E+00
        -11   -1    0    0    0    0  0.00000000000E+00  0.00000000000E+00  0.45593999997E+02  0.45594000000E+02  0.51100000000E-03 0. -1.
         11   -1    0    0    0    0 -0.00000000000E+00 -0.00000000000E+00 -0.45593999997E+02  0.45594000000E+02  0.51100000000E-03 0.  1.
    9900012    2    1    2    0    0 -0.33598329490E+02 -0.32855509105E+01  0.22661193618E+02  0.50528778592E+02  0.29999753008E+02 0.  0.
        -12    1    1    2    0    0  0.33598329490E+02  0.32855509105E+01 -0.22661193618E+02  0.40659221408E+02  0.00000000000E+00 0.  1.
         11    1    3    3    0    0 -0.16389099482E+02 -0.91522817769E+01  0.10209143211E+01  0.18799178436E+02  0.51100000000E-03 0.  1.
        -11    1    3    3    0    0  0.18476809871E+01  0.13109607794E+01  0.67493412724E+01  0.71194206975E+01  0.51100000000E-03 0. -1.
         12    1    3    3    0    0 -0.19056910995E+02  0.45557700870E+01  0.14890938024E+02  0.24610179459E+02  0.00000000000E+00 0. -1.
</event>
<event>
 7    1  0.5019004E-011  0.5052879E+02  0.7816164E-02  0.1300439E+00
        -11   -1    0    0    0    0  0.00000000000E+00  0.00000000000E+00  0.45593999997E+02  0.45594000000E+02  0.51100000000E-03 0. -1.
         11   -1    0    0    0    0 -0.00000000000E+00 -0.00000000000E+00 -0.45593999997E+02  0.45594000000E+02  0.51100000000E-03 0.  1.
    9900012    2    1    2    0    0 -0.39200930944E+02  0.97515846826E+01  0.46222652155E+01  0.50528785468E+02  0.29999773907E+02 0.  0.
        -12    1    1    2    0    0  0.39200930944E+02 -0.97515846826E+01 -0.46222652155E+01  0.40659214532E+02  0.00000000000E+00 0.  1.
         11    1    3    3    0    0 -0.18008363555E+02 -0.46824736985E+01  0.16234473982E+01  0.18677855861E+02  0.51100000000E-03 0. -1.
        -11    1    3    3    0    0  0.15302660358E+01 -0.10683261031E+01 -0.31531731663E+01  0.36640873462E+01  0.51100000000E-03 0.  1.
         12    1    3    3    0    0 -0.22722833424E+02  0.15502384484E+02  0.61519909836E+01  0.28186842260E+02  0.00000000000E+00 0. -1.
</event>
<event>
 7    1  0.5019004E-011  0.5052885E+02  0.7816164E-02  0.1300439E+00
        -11   -1    0    0    0    0  0.00000000000E+00  0.00000000000E+00  0.45593999997E+02  0.45594000000E+02  0.51100000000E-03 0.  1.
         11   -1    0    0    0    0 -0.00000000000E+00 -0.00000000000E+00 -0.45593999997E+02  0.45594000000E+02  0.51100000000E-03 0. -1.
    9900012    2    1    2    0    0  0.13695372449E+02  0.16347648370E+02 -0.34617297662E+02  0.50528854274E+02  0.29999983051E+02 0.  0.
        -12    1    1    2    0    0 -0.13695372449E+02 -0.16347648370E+02  0.34617297662E+02  0.40659145726E+02  0.00000000000E+00 0.  1.
         11    1    3    3    0    0  0.78366885863E+01  0.15176885602E+02 -0.20068771072E+02  0.26353502939E+02  0.51100000000E-03 0. -1.
        -11    1    3    3    0    0  0.11100573043E+02 -0.24681417873E+01 -0.44120378793E+01  0.12197562226E+02  0.51100000000E-03 0.  1.
        -12    1    3    3    0    0 -0.52418891800E+01  0.36389045555E+01 -0.10136488711E+02  0.11977789108E+02  0.00000000000E+00 0.  1.
</event>
<event>
 7    1  0.5019004E-011  0.5052886E+02  0.7816164E-02  0.1300439E+00
        -11   -1    0    0    0    0  0.00000000000E+00  0.00000000000E+00  0.45593999997E+02  0.45594000000E+02  0.51100000000E-03 0.  1.
         11   -1    0    0    0    0 -0.00000000000E+00 -0.00000000000E+00 -0.45593999997E+02  0.45594000000E+02  0.51100000000E-03 0. -1.
    9900012    2    1    2    0    0  0.32433219301E+01  0.10444726575E+02 -0.39160623758E+02  0.50528857074E+02  0.29999991561E+02 0.  0.
        -12    1    1    2    0    0 -0.32433219301E+01 -0.10444726575E+02  0.39160623758E+02  0.40659142926E+02  0.00000000000E+00 0.  1.
         11    1    3    3    0    0 -0.75513744780E+01  0.26666413439E+01 -0.26956292184E+02  0.28120738275E+02  0.51100000000E-03 0. -1.
        -11    1    3    3    0    0  0.77665897754E+01  0.14451595162E+01  0.47624833260E+00  0.79142413093E+01  0.51100000000E-03 0.  1.
        -12    1    3    3    0    0  0.30281066328E+01  0.63329257152E+01 -0.12680579907E+02  0.14493877489E+02  0.00000000000E+00 0.  1.
</event>
<event>
 7    1  0.5019004E-011  0.5052888E+02  0.7816164E-02  0.1300439E+00
        -11   -1    0    0    0    0  0.00000000000E+00  0.00000000000E+00  0.45593999997E+02  0.45594000000E+02  0.51100000000E-03 0.  1.
         11   -1    0    0    0    0 -0.00000000000E+00 -0.00000000000E+00 -0.45593999997E+02  0.45594000000E+02  0.51100000000E-03 0. -1.
    9900012    2    1    2    0    0 -0.22278646815E+02 -0.84105033191E+01 -0.32955870592E+02  0.50528879542E+02  0.30000059855E+02 0.  0.
        -12    1    1    2    0    0  0.22278646815E+02  0.84105033191E+01  0.32955870592E+02  0.40659120458E+02  0.00000000000E+00 0.  1.
         11    1    3    3    0    0 -0.25872591613E+00  0.56341624795E+00 -0.92158057323E+01  0.92366364291E+01  0.51100000000E-03 0. -1.
        -11    1    3    3    0    0 -0.26180117975E+02 -0.72574583974E+01 -0.13999581754E+02  0.30562355425E+02  0.51100000000E-03 0.  1.
        -12    1    3    3    0    0  0.41601970763E+01 -0.17164611696E+01 -0.97404831055E+01  0.10729887688E+02  0.00000000000E+00 0.  1.
</event>
<event>
 7    1  0.5019004E-011  0.5052885E+02  0.7816164E-02  0.1300439E+00
        -11   -1    0    0    0    0  0.00000000000E+00  0.00000000000E+00  0.45593999997E+02  0.45594000000E+02  0.51100000000E-03 0. -1.
         11   -1    0    0    0    0 -0.00000000000E+00 -0.00000000000E+00 -0.45593999997E+02  0.45594000000E+02  0.51100000000E-03 0.  1.
    9900012    2    1    2    0    0 -0.38280702069E+02 -0.49502599509E+01 -0.12776904856E+02  0.50528849466E+02  0.29999968436E+02 0.  0.
        -12    1    1    2    0    0  0.38280702069E+02  0.49502599509E+01  0.12776904856E+02  0.40659150534E+02  0.00000000000E+00 0.  1.
         11    1    3    3    0    0 -0.59174003268E+01 -0.10903605638E+02 -0.19571697510E+01  0.12559249828E+02  0.51100000000E-03 0.  1.
        -11    1    3    3    0    0 -0.10343121813E+02  0.47265933404E+01  0.32281544631E+01  0.11821245068E+02  0.51100000000E-03 0. -1.
         12    1    3    3    0    0 -0.22020179929E+02  0.12267523470E+01 -0.14047889568E+02  0.26148354570E+02  0.00000000000E+00 0. -1.
</event>
<event>
 7    1  0.5019004E-011  0.5052886E+02  0.7816164E-02  0.1300439E+00
        -11   -1    0    0    0    0  0.00000000000E+00  0.00000000000E+00  0.45593999997E+02  0.45594000000E+02  0.51100000000E-03 0.  1.
         11   -1    0    0    0    0 -0.00000000000E+00 -0.00000000000E+00 -0.45593999997E+02  0.45594000000E+02  0.51100000000E-03 0. -1.
    9900012    2    1    2    0    0  0.48287093753E+01 -0.39443605911E+02 -0.86053013305E+01  0.50528859668E+02  0.29999999448E+02 0.  0.
        -12    1    1    2    0    0 -0.48287093753E+01  0.39443605911E+02  0.86053013305E+01  0.40659140332E+02  0.00000000000E+00 0.  1.
         11    1    3    3    0    0  0.49772798599E+01 -0.18510860276E+02 -0.10943142808E+02  0.22072100891E+02  0.51100000000E-03 0. -1.
        -11    1    3    3    0    0  0.67558932019E+01 -0.63673596489E+01  0.70567947964E+01  0.11661205551E+02  0.51100000000E-03 0.  1.
        -12    1    3    3    0    0 -0.69044636865E+01 -0.14565385987E+02 -0.47189533190E+01  0.16795553226E+02  0.00000000000E+00 0.  1.
</event>
<event>
 7    1  0.5019004E-011  0.5052887E+02  0.7816164E-02  0.1300439E+00
        -11   -1    0    0    0    0  0.00000000000E+00  0.00000000000E+00  0.45593999997E+02  0.45594000000E+02  0.51100000000E-03 0.  1.
         11   -1    0    0    0    0 -0.00000000000E+00 -0.00000000000E+00 -0.45593999997E+02  0.45594000000E+02  0.51100000000E-03 0. -1.
    9900012    2    1    2    0    0  0.38266638424E+01  0.26328902454E+02 -0.30745897845E+02  0.50528871937E+02  0.30000036738E+02 0.  0.
        -12    1    1    2    0    0 -0.38266638424E+01 -0.26328902454E+02  0.30745897845E+02  0.40659128063E+02  0.00000000000E+00 0.  1.
         11    1    3    3    0    0  0.22536049611E+01  0.26190398961E+01 -0.44791588795E+00  0.34840686276E+01  0.51100000000E-03 0. -1.
        -11    1    3    3    0    0  0.66720803219E+01  0.25536072158E+02 -0.14012735240E+02  0.29882509705E+02  0.51100000000E-03 0.  1.
        -12    1    3    3    0    0 -0.50990214406E+01 -0.18262095995E+01 -0.16285246716E+02  0.17162293604E+02  0.00000000000E+00 0.  1.
</event>
<event>
 7    1  0.5019004E-011  0.5052885E+02  0.7816164E-02  0.1300439E+00
        -11   -1    0    0    0    0  0.00000000000E+00  0.00000000000E+00  0.45593999997E+02  0.45594000000E+02  0.51100000000E-03 0. -1.
         11   -1    0    0    0    0 -0.00000000000E+00 -0.00000000000E+00 -0.45593999997E+02  0.45594000000E+02  0.51100000000E-03 0.  1.
    9900012    2    1    2    0    0 -0.38274178477E+02 -0.13506205430E+02  0.24157910710E+01  0.50528851341E+02  0.29999974136E+02 0.  0.
        -12    1    1    2    0    0  0.38274178477E+02  0.13506205430E+02 -0.24157910710E+01  0.40659148659E+02  0.00000000000E+00 0.  1.
         11    1    3    3    0    0 -0.14523921805E+02 -0.88831060071E+00  0.10745771843E+02  0.18088809057E+02  0.51100000000E-03 0. -1.
        -11    1    3    3    0    0 -0.15905328623E+02 -0.16033885019E+02 -0.76973005196E+01  0.23860288829E+02  0.51100000000E-03 0.  1.
        -12    1    3    3    0    0 -0.78449280477E+01  0.34159901902E+01 -0.63268025258E+00  0.85797534554E+01  0.00000000000E+00 0.  1.
</event>
<event>
 7    1  0.5019004E-011  0.5052886E+02  0.7816164E-02  0.1300439E+00
        -11   -1    0    0    0    0  0.00000000000E+00  0.00000000000E+00  0.45593999997E+02  0.45594000000E+02  0.51100000000E-03 0.  1.
         11   -1    0    0    0    0 -0.00000000000E+00 -0.00000000000E+00 -0.45593999997E+02  0.45594000000E+02  0.51100000000E-03 0. -1.
    9900012    2    1    2    0    0  0.36495276702E+02  0.36253766452E+01  0.17553258091E+02  0.50528862688E+02  0.30000008626E+02 0.  0.
        -12    1    1    2    0    0 -0.36495276702E+02 -0.36253766452E+01 -0.17553258091E+02  0.40659137312E+02  0.00000000000E+00 0.  1.
         11    1    3    3    0    0  0.13087349181E+02  0.14817194493E+02  0.53272408879E+01  0.20474556332E+02  0.51100000000E-03 0. -1.
        -11    1    3    3    0    0  0.18573867622E+02 -0.85001102672E+01  0.13358361809E+02  0.24406684812E+02  0.51100000000E-03 0.  1.
         12    1    3    3    0    0  0.48340598980E+01 -0.26917075811E+01 -0.11323446056E+01  0.56476215441E+01  0.00000000000E+00 0. -1.
</event>
<event>
 7    1  0.5019004E-011  0.5052889E+02  0.7816164E-02  0.1300439E+00
        -11   -1    0    0    0    0  0.00000000000E+00  0.00000000000E+00  0.45593999997E+02  0.45594000000E+02  0.51100000000E-03 0.  1.
         11   -1    0    0    0    0 -0.00000000000E+00 -0.00000000000E+00 -0.45593999997E+02  0.45594000000E+02  0.51100000000E-03 0. -1.
    9900012    2    1    2    0    0  0.35340365616E+02  0.18120016442E+01 -0.20023456725E+02  0.50528885265E+02  0.30000077252E+02 0.  0.
        -12    1    1    2    0    0 -0.35340365616E+02 -0.18120016442E+01  0.20023456725E+02  0.40659114735E+02  0.00000000000E+00 0.  1.
         11    1    3    3    0    0  0.95358807841E+01  0.39418687176E+01 -0.21920212979E+02  0.24227403670E+02  0.51100000000E-03 0. -1.
        -11    1    3    3    0    0  0.15141031311E+02 -0.31532797993E+01  0.28549505451E+00  0.15468532909E+02  0.51100000000E-03 0.  1.
         12    1    3    3    0    0  0.10663453520E+02  0.10234127259E+01  0.16112611993E+01  0.10832948686E+02  0.00000000000E+00 0. -1.
</event>
<event>
 7    1  0.5019004E-011  0.5052887E+02  0.7816164E-02  0.1300439E+00
        -11   -1    0    0    0    0  0.00000000000E+00  0.00000000000E+00  0.45593999997E+02  0.45594000000E+02  0.51100000000E-03 0.  1.
         11   -1    0    0    0    0 -0.00000000000E+00 -0.00000000000E+00 -0.45593999997E+02  0.45594000000E+02  0.51100000000E-03 0. -1.
    9900012    2    1    2    0    0 -0.39957484985E+02  0.12050736277E+01  0.74237711442E+01  0.50528865888E+02  0.30000018353E+02 0.  0.
        -12    1    1    2    0    0  0.39957484985E+02 -0.12050736277E+01 -0.74237711442E+01  0.40659134112E+02  0.00000000000E+00 0.  1.
         11    1    3    3    0    0  0.50424761691E+00  0.28988796084E+01 -0.49915246301E+01  0.57942287698E+01  0.51100000000E-03 0. -1.
        -11    1    3    3    0    0 -0.35691197897E+02  0.35248177231E+01  0.96290280110E+01  0.37134944836E+02  0.51100000000E-03 0.  1.
        -12    1    3    3    0    0 -0.47705347046E+01 -0.52186237038E+01  0.27862677632E+01  0.75996922818E+01  0.00000000000E+00 0.  1.
</event>
<event>
 7    1  0.5019004E-011  0.5052886E+02  0.7816164E-02  0.1300439E+00
        -11   -1    0    0    0    0  0.00000000000E+00  0.00000000000E+00  0.45593999997E+02  0.45594000000E+02  0.51100000000E-03 0.  1.
         11   -1    0    0    0    0 -0.00000000000E+00 -0.00000000000E+00 -0.45593999997E+02  0.45594000000E+02  0.51100000000E-03 0. -1.
    9900012    2    1    2    0    0  0.22161773070E+02  0.29139676093E+02 -0.17688999341E+02  0.50528860731E+02  0.30000002677E+02 0.  0.
        -12    1    1    2    0    0 -0.22161773070E+02 -0.29139676093E+02  0.17688999341E+02  0.40659139269E+02  0.00000000000E+00 0.  1.
         11    1    3    3    0    0  0.16731153767E+02  0.23899796286E+02 -0.20953260308E+02  0.35918948853E+02  0.51100000000E-03 0. -1.
        -11    1    3    3    0    0  0.64160350922E+01  0.83446821807E+01  0.40171289360E+01  0.11266612275E+02  0.51100000000E-03 0.  1.
         12    1    3    3    0    0 -0.98541578931E+00 -0.31048023735E+01 -0.75286796880E+00  0.33432996029E+01  0.00000000000E+00 0. -1.
</event>
<event>
 7    1  0.5019004E-011  0.5052886E+02  0.7816164E-02  0.1300439E+00
        -11   -1    0    0    0    0  0.00000000000E+00  0.00000000000E+00  0.45593999997E+02  0.45594000000E+02  0.51100000000E-03 0.  1.
         11   -1    0    0    0    0 -0.00000000000E+00 -0.00000000000E+00 -0.45593999997E+02  0.45594000000E+02  0.51100000000E-03 0. -1.
    9900012    2    1    2    0    0  0.84955273769E+01  0.29646314784E+02 -0.26496936818E+02  0.50528860481E+02  0.30000001919E+02 0.  0.
        -12    1    1    2    0    0 -0.84955273769E+01 -0.29646314784E+02  0.26496936818E+02  0.40659139519E+02  0.00000000000E+00 0.  1.
         11    1    3    3    0    0  0.86231521547E+01  0.17593277564E+02 -0.20944092238E+02  0.28679908794E+02  0.51100000000E-03 0. -1.
        -11    1    3    3    0    0 -0.86025327865E+01  0.70035073860E+01 -0.43309231308E+01  0.11908382824E+02  0.51100000000E-03 0.  1.
        -12    1    3    3    0    0  0.84749080088E+01  0.50495298343E+01 -0.12219214495E+01  0.99405688636E+01  0.00000000000E+00 0.  1.
</event>
<event>
 7    1  0.5019004E-011  0.5052886E+02  0.7816164E-02  0.1300439E+00
        -11   -1    0    0    0    0  0.00000000000E+00  0.00000000000E+00  0.45593999997E+02  0.45594000000E+02  0.51100000000E-03 0. -1.
         11   -1    0    0    0    0 -0.00000000000E+00 -0.00000000000E+00 -0.45593999997E+02  0.45594000000E+02  0.51100000000E-03 0.  1.
    9900012    2    1    2    0    0 -0.33857523086E+02 -0.18238950098E+02  0.13197521664E+02  0.50528858983E+02  0.29999997365E+02 0.  0.
        -12    1    1    2    0    0  0.33857523086E+02  0.18238950098E+02 -0.13197521664E+02  0.40659141017E+02  0.00000000000E+00 0.  1.
         11    1    3    3    0    0 -0.21396088290E+02 -0.16170015344E+02  0.14971291938E+02  0.30714842876E+02  0.51100000000E-03 0. -1.
        -11    1    3    3    0    0 -0.25320474322E+01  0.61890797456E+01 -0.16978054591E+01  0.68991677712E+01  0.51100000000E-03 0.  1.
        -12    1    3    3    0    0 -0.99293873638E+01 -0.82580144996E+01 -0.75964815542E-01  0.12914848336E+02  0.00000000000E+00 0.  1.
</event>
<event>
 7    1  0.5585038E-011  0.5052886E+02  0.7816164E-02  0.1300439E+00
        -11   -1    0    0    0    0  0.00000000000E+00  0.00000000000E+00  0.45593999997E+02  0.45594000000E+02  0.51100000000E-03 0.  1.
         11   -1    0    0    0    0 -0.00000000000E+00 -0.00000000000E+00 -0.45593999997E+02  0.45594000000E+02  0.51100000000E-03 0. -1.
    9900012    2    1    2    0    0 -0.29828155689E+02 -0.27531645307E+02 -0.23357133014E+01  0.50528856849E+02  0.29999990878E+02 0.  0.
        -12    1    1    2    0    0  0.29828155689E+02  0.27531645307E+02  0.23357133014E+01  0.40659143151E+02  0.00000000000E+00 0.  1.
         11    1    3    3    0    0 -0.11138252560E+02 -0.36846205471E+01 -0.94051951920E+01  0.15036448900E+02  0.51100000000E-03 0. -1.
        -11    1    3    3    0    0 -0.19309988530E+01 -0.14825876808E+02  0.68816833109E+01  0.16458825753E+02  0.51100000000E-03 0.  1.
         12    1    3    3    0    0 -0.16758904276E+02 -0.90211479521E+01  0.18779857968E+00  0.19033582196E+02  0.00000000000E+00 0. -1.
</event>
<event>
 7    1  0.5019004E-011  0.5052887E+02  0.7816164E-02  0.1300439E+00
        -11   -1    0    0    0    0  0.00000000000E+00  0.00000000000E+00  0.45593999997E+02  0.45594000000E+02  0.51100000000E-03 0.  1.
         11   -1    0    0    0    0 -0.00000000000E+00 -0.00000000000E+00 -0.45593999997E+02  0.45594000000E+02  0.51100000000E-03 0. -1.
    9900012    2    1    2    0    0 -0.26387320327E+02 -0.16442640648E+02 -0.26201407497E+02  0.50528869902E+02  0.30000030554E+02 0.  0.
        -12    1    1    2    0    0  0.26387320327E+02  0.16442640648E+02  0.26201407497E+02  0.40659130098E+02  0.00000000000E+00 0.  1.
         11    1    3    3    0    0 -0.18188261072E+02 -0.79078212589E+01 -0.26505162617E+01  0.20009290707E+02  0.51100000000E-03 0. -1.
        -11    1    3    3    0    0  0.23646569362E+01 -0.52597604224E+01 -0.16312088199E+02  0.17301471145E+02  0.51100000000E-03 0.  1.
        -12    1    3    3    0    0 -0.10563716191E+02 -0.32750589667E+01 -0.72388030364E+01  0.13218108049E+02  0.00000000000E+00 0.  1.
</event>
<event>
 7    1  0.5019004E-011  0.5052879E+02  0.7816164E-02  0.1300439E+00
        -11   -1    0    0    0    0  0.00000000000E+00  0.00000000000E+00  0.45593999997E+02  0.45594000000E+02  0.51100000000E-03 0.  1.
         11   -1    0    0    0    0 -0.00000000000E+00 -0.00000000000E+00 -0.45593999997E+02  0.45594000000E+02  0.51100000000E-03 0. -1.
    9900012    2    1    2    0    0 -0.35538222736E+02 -0.80813798947E+01 -0.18024900338E+02  0.50528794296E+02  0.29999800742E+02 0.  0.
        -12    1    1    2    0    0  0.35538222736E+02  0.80813798947E+01  0.18024900338E+02  0.40659205704E+02  0.00000000000E+00 0.  1.
         11    1    3    3    0    0 -0.30230379661E+02 -0.75900757608E+00 -0.45438590016E+01  0.30579381973E+02  0.51100000000E-03 0. -1.
        -11    1    3    3    0    0 -0.87476418314E+01 -0.65134142923E+01 -0.84271634020E+01  0.13782702442E+02  0.51100000000E-03 0.  1.
         12    1    3    3    0    0  0.34397987565E+01 -0.80895802625E+00 -0.50538779346E+01  0.61667098806E+01  0.00000000000E+00 0. -1.
</event>
<event>
 7    1  0.5019004E-011  0.5052886E+02  0.7816164E-02  0.1300439E+00
        -11   -1    0    0    0    0  0.00000000000E+00  0.00000000000E+00  0.45593999997E+02  0.45594000000E+02  0.51100000000E-03 0.  1.
         11   -1    0    0    0    0 -0.00000000000E+00 -0.00000000000E+00 -0.45593999997E+02  0.45594000000E+02  0.51100000000E-03 0. -1.
    9900012    2    1    2    0    0  0.69140095386E+01  0.32423676806E+02 -0.23538640680E+02  0.50528856494E+02  0.29999989800E+02 0.  0.
        -12    1    1    2    0    0 -0.69140095386E+01 -0.32423676806E+02  0.23538640680E+02  0.40659143506E+02  0.00000000000E+00 0.  1.
         11    1    3    3    0    0 -0.28542265164E+01  0.27253076256E+00 -0.71503540761E+01  0.77037942404E+01  0.51100000000E-03 0. -1.
        -11    1    3    3    0    0  0.14232723185E+02  0.24539526506E+02 -0.18349365492E+02  0.33785470022E+02  0.51100000000E-03 0.  1.
        -12    1    3    3    0    0 -0.44644871296E+01  0.76116195380E+01  0.19610788875E+01  0.90395922322E+01  0.00000000000E+00 0.  1.
</event>
<event>
 7    1  0.5019004E-011  0.5052876E+02  0.7816164E-02  0.1300439E+00
        -11   -1    0    0    0    0  0.00000000000E+00  0.00000000000E+00  0.45593999997E+02  0.45594000000E+02  0.51100000000E-03 0.  1.
         11   -1    0    0    0    0 -0.00000000000E+00 -0.00000000000E+00 -0.45593999997E+02  0.45594000000E+02  0.51100000000E-03 0. -1.
    9900012    2    1    2    0    0 -0.15279683383E+02  0.23859788006E+02 -0.29161885712E+02  0.50528760137E+02  0.29999696912E+02 0.  0.
        -12    1    1    2    0    0  0.15279683383E+02 -0.23859788006E+02  0.29161885712E+02  0.40659239863E+02  0.00000000000E+00 0.  1.
         11    1    3    3    0    0 -0.37770417503E+01  0.13344109856E+01  0.17106303719E+01  0.43557954030E+01  0.51100000000E-03 0. -1.
        -11    1    3    3    0    0 -0.46784990910E+01  0.18072956255E+02 -0.32853702926E+02  0.37787377492E+02  0.51100000000E-03 0.  1.
        -12    1    3    3    0    0 -0.68241425413E+01  0.44524207645E+01  0.19811868422E+01  0.83855872419E+01  0.00000000000E+00 0.  1.
</event>
<event>
 7    1  0.5942928E-011  0.5052886E+02  0.7816164E-02  0.1300439E+00
        -11   -1    0    0    0    0  0.00000000000E+00  0.00000000000E+00  0.45593999997E+02  0.45594000000E+02  0.51100000000E-03 0. -1.
         11   -1    0    0    0    0 -0.00000000000E+00 -0.00000000000E+00 -0.45593999997E+02  0.45594000000E+02  0.51100000000E-03 0.  1.
    9900012    2    1    2    0    0  0.31789926092E+02 -0.95919137079E+01  0.23464041885E+02  0.50528862391E+02  0.30000007724E+02 0.  0.
        -12    1    1    2    0    0 -0.31789926092E+02  0.95919137079E+01 -0.23464041885E+02  0.40659137609E+02  0.00000000000E+00 0.  1.
         11    1    3    3    0    0  0.32713348597E+02 -0.78027916579E+01  0.15994135627E+02  0.37240557310E+02  0.51100000000E-03 0. -1.
        -11    1    3    3    0    0 -0.15277455915E+01  0.10927933527E+01 -0.23660786857E+01  0.30210151459E+01  0.51100000000E-03 0.  1.
         12    1    3    3    0    0  0.60432308642E+00 -0.28819154027E+01  0.98359849442E+01  0.10267289935E+02  0.00000000000E+00 0. -1.
</event>
<event>
 7    1  0.5019004E-011  0.5052886E+02  0.7816164E-02  0.1300439E+00
        -11   -1    0    0    0    0  0.00000000000E+00  0.00000000000E+00  0.45593999997E+02  0.45594000000E+02  0.51100000000E-03 0.  1.
         11   -1    0    0    0    0 -0.00000000000E+00 -0.00000000000E+00 -0.45593999997E+02  0.45594000000E+02  0.51100000000E-03 0. -1.
    9900012    2    1    2    0    0  0.14455408905E+02  0.78284639065E+01 -0.37187654309E+02  0.50528864166E+02  0.30000013119E+02 0.  0.
        -12    1    1    2    0    0 -0.14455408905E+02 -0.78284639065E+01  0.37187654309E+02  0.40659135834E+02  0.00000000000E+00 0.  1.
         11    1    3    3    0    0  0.11800719166E+02 -0.96810767017E+00 -0.21877545486E+02  0.24876117102E+02  0.51100000000E-03 0. -1.
        -11    1    3    3    0    0 -0.42538601869E+01  0.51142817895E+00  0.24036767756E+01  0.49126924974E+01  0.51100000000E-03 0.  1.
        -12    1    3    3    0    0  0.69085499268E+01  0.82851433977E+01 -0.17713785598E+02  0.20740054567E+02  0.00000000000E+00 0.  1.
</event>
<event>
 7    1  0.5019004E-011  0.5052886E+02  0.7816164E-02  0.1300439E+00
        -11   -1    0    0    0    0  0.00000000000E+00  0.00000000000E+00  0.45593999997E+02  0.45594000000E+02  0.51100000000E-03 0.  1.
         11   -1    0    0    0    0 -0.00000000000E+00 -0.00000000000E+00 -0.45593999997E+02  0.45594000000E+02  0.51100000000E-03 0. -1.
    9900012    2    1    2    0    0  0.17957113774E+02 -0.17227234439E+02 -0.32154786377E+02  0.50528857996E+02  0.29999994366E+02 0.  0.
        -12    1    1    2    0    0 -0.17957113774E+02  0.17227234439E+02  0.32154786377E+02  0.40659142004E+02  0.00000000000E+00 0.  1.
         11    1    3    3    0    0  0.19732638893E+02 -0.96875417541E+01 -0.79401513342E+01  0.23372451870E+02  0.51100000000E-03 0. -1.
        -11    1    3    3    0    0 -0.52676237332E+01 -0.62063099578E+01 -0.13031562071E+02  0.15365147359E+02  0.51100000000E-03 0.  1.
         12    1    3    3    0    0  0.34920986140E+01 -0.13333827267E+01 -0.11183072972E+02  0.11791258768E+02  0.00000000000E+00 0. -1.
</event>
<event>
 7    1  0.5019004E-011  0.5052885E+02  0.7816164E-02  0.1300439E+00
        -11   -1    0    0    0    0  0.00000000000E+00  0.00000000000E+00  0.45593999997E+02  0.45594000000E+02  0.51100000000E-03 0. -1.
         11   -1    0    0    0    0 -0.00000000000E+00 -0.00000000000E+00 -0.45593999997E+02  0.45594000000E+02  0.51100000000E-03 0.  1.
    9900012    2    1    2    0    0 -0.19490187935E+02  0.26797229326E+02  0.23562835852E+02  0.50528853936E+02  0.29999982023E+02 0.  0.
        -12    1    1    2    0    0  0.19490187935E+02 -0.26797229326E+02 -0.23562835852E+02  0.40659146064E+02  0.00000000000E+00 0.  1.
         11    1    3    3    0    0 -0.14047291150E+02  0.21481842917E+02  0.10388265762E+02  0.27689565355E+02  0.51100000000E-03 0. -1.
        -11    1    3    3    0    0  0.21389013998E+01  0.27975993048E+01  0.14339754909E+02  0.14765840043E+02  0.51100000000E-03 0.  1.
        -12    1    3    3    0    0 -0.75817981847E+01  0.25177871043E+01 -0.11651848198E+01  0.80734485370E+01  0.00000000000E+00 0.  1.
</event>
<event>
 7    1  0.5019004E-011  0.5052886E+02  0.7816164E-02  0.1300439E+00
        -11   -1    0    0    0    0  0.00000000000E+00  0.00000000000E+00  0.45593999997E+02  0.45594000000E+02  0.51100000000E-03 0.  1.
         11   -1    0    0    0    0 -0.00000000000E+00 -0.00000000000E+00 -0.45593999997E+02  0.45594000000E+02  0.51100000000E-03 0. -1.
    9900012    2    1    2    0    0 -0.27578061073E+01 -0.10323797381E+02 -0.39229827117E+02  0.50528860529E+02  0.30000002064E+02 0.  0.
        -12    1    1    2    0    0  0.27578061073E+01  0.10323797381E+02  0.39229827117E+02  0.40659139471E+02  0.00000000000E+00 0.  1.
         11    1    3    3    0    0  0.97698415371E+01 -0.72025541614E+01 -0.21442235163E+02  0.24639318967E+02  0.51100000000E-03 0. -1.
        -11    1    3    3    0    0 -0.44704415787E+01  0.49582347197E+01 -0.10186425302E+02  0.12179170749E+02  0.51100000000E-03 0.  1.
         12    1    3    3    0    0 -0.80572060656E+01 -0.80794779392E+01 -0.76011666518E+01  0.13710370813E+02  0.00000000000E+00 0. -1.
</event>
<event>
 7    1  0.5019004E-011  0.5052885E+02  0.7816164E-02  0.1300439E+00
        -11   -1    0    0    0    0  0.00000000000E+00  0.00000000000E+00  0.45593999997E+02  0.45594000000E+02  0.51100000000E-03 0. -1.
         11   -1    0    0    0    0 -0.00000000000E+00 -0.00000000000E+00 -0.45593999997E+02  0.45594000000E+02  0.51100000000E-03 0.  1.
    9900012    2    1    2    0    0 -0.28932665062E+02 -0.18516568288E+02  0.21753256467E+02  0.50528848808E+02  0.29999966436E+02 0.  0.
        -12    1    1    2    0    0  0.28932665062E+02  0.18516568288E+02 -0.21753256467E+02  0.40659151192E+02  0.00000000000E+00 0.  1.
         11    1    3    3    0    0 -0.62852300501E+01 -0.19245798157E+02  0.63315819210E+01  0.21213057143E+02  0.51100000000E-03 0. -1.
        -11    1    3    3    0    0 -0.78594623512E+01  0.81255506778E+00 -0.66229631325E-01  0.79016315286E+01  0.51100000000E-03 0.  1.
         12    1    3    3    0    0 -0.14787972661E+02 -0.83325198830E-01  0.15487904178E+02  0.21414160136E+02  0.00000000000E+00 0. -1.
</event>
<event>
 7    1  0.5019004E-011  0.5052886E+02  0.7816164E-02  0.1300439E+00
        -11   -1    0    0    0    0  0.00000000000E+00  0.00000000000E+00  0.45593999997E+02  0.45594000000E+02  0.51100000000E-03 0.  1.
         11   -1    0    0    0    0 -0.00000000000E+00 -0.00000000000E+00 -0.45593999997E+02  0.45594000000E+02  0.51100000000E-03 0. -1.
    9900012    2    1    2    0    0 -0.25014039572E+02 -0.30119463201E+02 -0.10967293770E+02  0.50528858693E+02  0.29999996482E+02 0.  0.
        -12    1    1    2    0    0  0.25014039572E+02  0.30119463201E+02  0.10967293770E+02  0.40659141307E+02  0.00000000000E+00 0.  1.
         11    1    3    3    0    0 -0.55492689779E+01 -0.14392892177E+02 -0.99052134798E+01  0.18332020777E+02  0.51100000000E-03 0. -1.
        -11    1    3    3    0    0  0.20166484627E+01 -0.35567167355E+01  0.53069952082E+01  0.66993509655E+01  0.51100000000E-03 0.  1.
        -12    1    3    3    0    0 -0.21481419057E+02 -0.12169854288E+02 -0.63690754988E+01  0.25497486950E+02  0.00000000000E+00 0.  1.
</event>
<event>
 7    1  0.5019004E-011  0.5052885E+02  0.7816164E-02  0.1300439E+00
        -11   -1    0    0    0    0  0.00000000000E+00  0.00000000000E+00  0.45593999997E+02  0.45594000000E+02  0.51100000000E-03 0.  1.
         11   -1    0    0    0    0 -0.00000000000E+00 -0.00000000000E+00 -0.45593999997E+02  0.45594000000E+02  0.51100000000E-03 0. -1.
    9900012    2    1    2    0    0  0.29234896848E+02  0.27652093222E+02  0.58179660562E+01  0.50528853645E+02  0.29999981138E+02 0.  0.
        -12    1    1    2    0    0 -0.29234896848E+02 -0.27652093222E+02 -0.58179660562E+01  0.40659146355E+02  0.00000000000E+00 0.  1.
         11    1    3    3    0    0  0.38333116143E+01  0.26073655749E+01 -0.65845712243E+01  0.80529008216E+01  0.51100000000E-03 0. -1.
        -11    1    3    3    0    0  0.26139367385E+02  0.25175587965E+02  0.69236823999E+01  0.36946097696E+02  0.51100000000E-03 0.  1.
        -12    1    3    3    0    0 -0.73778215118E+00 -0.13086031803E+00  0.54788548806E+01  0.55298551273E+01  0.00000000000E+00 0.  1.
</event>
<event>
 7    1  0.5019004E-011  0.5052887E+02  0.7816164E-02  0.1300439E+00
        -11   -1    0    0    0    0  0.00000000000E+00  0.00000000000E+00  0.45593999997E+02  0.45594000000E+02  0.51100000000E-03 0. -1.
         11   -1    0    0    0    0 -0.00000000000E+00 -0.00000000000E+00 -0.45593999997E+02  0.45594000000E+02  0.51100000000E-03 0.  1.
    9900012    2    1    2    0    0 -0.27667908559E+02  0.20202453045E+02  0.21897784310E+02  0.50528865347E+02  0.30000016709E+02 0.  0.
        -12    1    1    2    0    0  0.27667908559E+02 -0.20202453045E+02 -0.21897784310E+02  0.40659134653E+02  0.00000000000E+00 0.  1.
         11    1    3    3    0    0  0.30502692686E+01  0.87204980755E+01  0.45184240062E+01  0.10284327156E+02  0.51100000000E-03 0.  1.
        -11    1    3    3    0    0 -0.18460355382E+02  0.10989898830E+02  0.17902970238E+02  0.27965674330E+02  0.51100000000E-03 0. -1.
         12    1    3    3    0    0 -0.12257822446E+02  0.49205613951E+00 -0.52360993478E+00  0.12278863861E+02  0.00000000000E+00 0. -1.
</event>
<event>
 7    1  0.5019004E-011  0.5052886E+02  0.7816164E-02  0.1300439E+00
        -11   -1    0    0    0    0  0.00000000000E+00  0.00000000000E+00  0.45593999997E+02  0.45594000000E+02  0.51100000000E-03 0. -1.
         11   -1    0    0    0    0 -0.00000000000E+00 -0.00000000000E+00 -0.45593999997E+02  0.45594000000E+02  0.51100000000E-03 0.  1.
    9900012    2    1    2    0    0  0.80400054250E+01  0.39839385609E+02 -0.11608545099E+01  0.50528856919E+02  0.29999991091E+02 0.  0.
        -12    1    1    2    0    0 -0.80400054250E+01 -0.39839385609E+02  0.11608545099E+01  0.40659143081E+02  0.00000000000E+00 0.  1.
         11    1    3    3    0    0  0.29862541573E+01  0.23398226430E+02 -0.27000508129E+01  0.23742051062E+02  0.51100000000E-03 0. -1.
        -11    1    3    3    0    0  0.10816838815E+02  0.30591906347E+01 -0.27992875053E+01  0.11584414534E+02  0.51100000000E-03 0.  1.
        -12    1    3    3    0    0 -0.57630875477E+01  0.13381968543E+02  0.43384838082E+01  0.15202391323E+02  0.00000000000E+00 0.  1.
</event>
<event>
 7    1  0.5019004E-011  0.5052882E+02  0.7816164E-02  0.1300439E+00
        -11   -1    0    0    0    0  0.00000000000E+00  0.00000000000E+00  0.45593999997E+02  0.45594000000E+02  0.51100000000E-03 0. -1.
         11   -1    0    0    0    0 -0.00000000000E+00 -0.00000000000E+00 -0.45593999997E+02  0.45594000000E+02  0.51100000000E-03 0.  1.
    9900012    2    1    2    0    0 -0.15422653794E+02  0.67505297728E+01  0.37010009495E+02  0.50528822622E+02  0.29999886841E+02 0.  0.
        -12    1    1    2    0    0  0.15422653794E+02 -0.67505297728E+01 -0.37010009495E+02  0.40659177378E+02  0.00000000000E+00 0.  1.
         11    1    3    3    0    0 -0.17909237903E+02  0.86533734002E+01  0.22821296229E+02  0.30272648303E+02  0.51100000000E-03 0. -1.
        -11    1    3    3    0    0  0.75992269263E+01 -0.70617291943E+00  0.12668372878E+02  0.14789678892E+02  0.51100000000E-03 0.  1.
         12    1    3    3    0    0 -0.51126428167E+01 -0.11966707080E+01  0.15203403881E+01  0.54664954267E+01  0.00000000000E+00 0. -1.
</event>
<event>
 7    1  0.5019004E-011  0.5052886E+02  0.7816164E-02  0.1300439E+00
        -11   -1    0    0    0    0  0.00000000000E+00  0.00000000000E+00  0.45593999997E+02  0.45594000000E+02  0.51100000000E-03 0. -1.
         11   -1    0    0    0    0 -0.00000000000E+00 -0.00000000000E+00 -0.45593999997E+02  0.45594000000E+02  0.51100000000E-03 0.  1.
    9900012    2    1    2    0    0 -0.28496464905E+02  0.13789627238E+02  0.25513982059E+02  0.50528860659E+02  0.30000002460E+02 0.  0.
        -12    1    1    2    0    0  0.28496464905E+02 -0.13789627238E+02 -0.25513982059E+02  0.40659139341E+02  0.00000000000E+00 0.  1.
         11    1    3    3    0    0 -0.42027242469E+01  0.69158589627E+01  0.21587652032E+02  0.23054689692E+02  0.51100000000E-03 0. -1.
        -11    1    3    3    0    0 -0.20414801639E+01  0.26975242618E+01 -0.21798733007E+01  0.40244411129E+01  0.51100000000E-03 0.  1.
         12    1    3    3    0    0 -0.22252260494E+02  0.41762440133E+01  0.61062033276E+01  0.23449729854E+02  0.00000000000E+00 0. -1.
</event>
<event>
 7    1  0.5019004E-011  0.5052885E+02  0.7816164E-02  0.1300439E+00
        -11   -1    0    0    0    0  0.00000000000E+00  0.00000000000E+00  0.45593999997E+02  0.45594000000E+02  0.51100000000E-03 0.  1.
         11   -1    0    0    0    0 -0.00000000000E+00 -0.00000000000E+00 -0.45593999997E+02  0.45594000000E+02  0.51100000000E-03 0. -1.
    9900012    2    1    2    0    0 -0.12717082862E+02 -0.37887776614E+02 -0.74805322923E+01  0.50528853715E+02  0.29999981351E+02 0.  0.
        -12    1    1    2    0    0  0.12717082862E+02  0.37887776614E+02  0.74805322923E+01  0.40659146285E+02  0.00000000000E+00 0.  1.
         11    1    3    3    0    0 -0.14119841094E+02 -0.23272501112E+02  0.64536364533E+01  0.27975500786E+02  0.51100000000E-03 0. -1.
        -11    1    3    3    0    0  0.33388949028E-01 -0.72176338852E+00  0.15467335523E+01  0.17071737328E+01  0.51100000000E-03 0.  1.
         12    1    3    3    0    0  0.13693692831E+01 -0.13893512114E+02 -0.15480902298E+02  0.20846179195E+02  0.00000000000E+00 0. -1.
</event>
<event>
 7    1  0.5019004E-011  0.5052886E+02  0.7816164E-02  0.1300439E+00
        -11   -1    0    0    0    0  0.00000000000E+00  0.00000000000E+00  0.45593999997E+02  0.45594000000E+02  0.51100000000E-03 0.  1.
         11   -1    0    0    0    0 -0.00000000000E+00 -0.00000000000E+00 -0.45593999997E+02  0.45594000000E+02  0.51100000000E-03 0. -1.
    9900012    2    1    2    0    0 -0.34523531265E+01  0.26558922827E+02 -0.30591997998E+02  0.50528862462E+02  0.30000007938E+02 0.  0.
        -12    1    1    2    0    0  0.34523531265E+01 -0.26558922827E+02  0.30591997998E+02  0.40659137538E+02  0.00000000000E+00 0.  1.
         11    1    3    3    0    0  0.25224666555E+01 -0.13302640650E+01 -0.16710939600E+02  0.16952520258E+02  0.51100000000E-03 0. -1.
        -11    1    3    3    0    0 -0.18123793368E+01  0.84714998416E+01  0.10555978048E+01  0.87272742258E+01  0.51100000000E-03 0.  1.
         12    1    3    3    0    0 -0.41624404452E+01  0.19417687050E+02 -0.14936656203E+02  0.24849067978E+02  0.00000000000E+00 0. -1.
</event>
<event>
 7    1  0.5019004E-011  0.5052886E+02  0.7816164E-02  0.1300439E+00
        -11   -1    0    0    0    0  0.00000000000E+00  0.00000000000E+00  0.45593999997E+02  0.45594000000E+02  0.51100000000E-03 0. -1.
         11   -1    0    0    0    0 -0.00000000000E+00 -0.00000000000E+00 -0.45593999997E+02  0.45594000000E+02  0.51100000000E-03 0.  1.
    9900012    2    1    2    0    0 -0.17885532880E+02 -0.21782903581E+02  0.29304924401E+02  0.50528858729E+02  0.29999996591E+02 0.  0.
        -12    1    1    2    0    0  0.17885532880E+02  0.21782903581E+02 -0.29304924401E+02  0.40659141271E+02  0.00000000000E+00 0.  1.
         11    1    3    3    0    0 -0.18272136514E+02 -0.17301773920E+02  0.16318323416E+02  0.29991832771E+02  0.51100000000E-03 0. -1.
        -11    1    3    3    0    0  0.73393367269E+01 -0.48565740815E+01  0.58573016686E+01  0.10571667725E+02  0.51100000000E-03 0.  1.
        -12    1    3    3    0    0 -0.69527330923E+01  0.37544442010E+00  0.71292993159E+01  0.99653582324E+01  0.00000000000E+00 0.  1.
</event>
<event>
 7    1  0.5019004E-011  0.5052885E+02  0.7816164E-02  0.1300439E+00
        -11   -1    0    0    0    0  0.00000000000E+00  0.00000000000E+00  0.45593999997E+02  0.45594000000E+02  0.51100000000E-03 0.  1.
         11   -1    0    0    0    0 -0.00000000000E+00 -0.00000000000E+00 -0.45593999997E+02  0.45594000000E+02  0.51100000000E-03 0. -1.
    9900012    2    1    2    0    0  0.25545458541E+02  0.18782743660E+02 -0.25452008128E+02  0.50528848149E+02  0.29999964433E+02 0.  0.
        -12    1    1    2    0    0 -0.25545458541E+02 -0.18782743660E+02  0.25452008128E+02  0.40659151851E+02  0.00000000000E+00 0.  1.
         11    1    3    3    0    0  0.26159148971E+02  0.15091678655E+02 -0.79279992622E+01  0.31223597039E+02  0.51100000000E-03 0. -1.
        -11    1    3    3    0    0  0.23953398443E+01 -0.86349334285E+00 -0.70197577171E+01  0.74672801200E+01  0.51100000000E-03 0.  1.
         12    1    3    3    0    0 -0.30090302745E+01  0.45545583483E+01 -0.10504251149E+02  0.11837970989E+02  0.00000000000E+00 0. -1.
</event>
<event>
 7    1  0.5019004E-011  0.5052886E+02  0.7816164E-02  0.1300439E+00
        -11   -1    0    0    0    0  0.00000000000E+00  0.00000000000E+00  0.45593999997E+02  0.45594000000E+02  0.51100000000E-03 0.  1.
         11   -1    0    0    0    0 -0.00000000000E+00 -0.00000000000E+00 -0.45593999997E+02  0.45594000000E+02  0.51100000000E-03 0. -1.
    9900012    2    1    2    0    0 -0.17187015057E+02 -0.14009393209E+01 -0.36821316887E+02  0.50528862099E+02  0.30000006835E+02 0.  0.
        -12    1    1    2    0    0  0.17187015057E+02  0.14009393209E+01  0.36821316887E+02  0.40659137901E+02  0.00000000000E+00 0.  1.
         11    1    3    3    0    0 -0.11083270579E+02  0.40085623245E+00 -0.28344465665E+02  0.30436956262E+02  0.51100000000E-03 0. -1.
        -11    1    3    3    0    0 -0.17483391180E+01  0.21990066040E+01  0.47976103572E+01  0.55596209508E+01  0.51100000000E-03 0.  1.
         12    1    3    3    0    0 -0.43554053606E+01 -0.40008021573E+01 -0.13274461580E+02  0.14532284886E+02  0.00000000000E+00 0. -1.
</event>
<event>
 7    1  0.5019004E-011  0.5052885E+02  0.7816164E-02  0.1300439E+00
        -11   -1    0    0    0    0  0.00000000000E+00  0.00000000000E+00  0.45593999997E+02  0.45594000000E+02  0.51100000000E-03 0.  1.
         11   -1    0    0    0    0 -0.00000000000E+00 -0.00000000000E+00 -0.45593999997E+02  0.45594000000E+02  0.51100000000E-03 0. -1.
    9900012    2    1    2    0    0 -0.58437787003E-01 -0.40092945681E+02 -0.67615667926E+01  0.50528849814E+02  0.29999969495E+02 0.  0.
        -12    1    1    2    0    0  0.58437787003E-01  0.40092945681E+02  0.67615667926E+01  0.40659150186E+02  0.00000000000E+00 0.  1.
         11    1    3    3    0    0 -0.14924784896E+01 -0.74841041913E+01  0.82414245475E+01  0.11232114067E+02  0.51100000000E-03 0. -1.
        -11    1    3    3    0    0  0.93818211727E-01 -0.52388558271E+01 -0.10212715833E+02  0.11478413531E+02  0.51100000000E-03 0.  1.
         12    1    3    3    0    0  0.13402224909E+01 -0.27369985662E+02 -0.47902755070E+01  0.27818322216E+02  0.00000000000E+00 0. -1.
</event>
<event>
 7    1  0.5019004E-011  0.5052886E+02  0.7816164E-02  0.1300439E+00
        -11   -1    0    0    0    0  0.00000000000E+00  0.00000000000E+00  0.45593999997E+02  0.45594000000E+02  0.51100000000E-03 0. -1.
         11   -1    0    0    0    0 -0.00000000000E+00 -0.00000000000E+00 -0.45593999997E+02  0.45594000000E+02  0.51100000000E-03 0.  1.
    9900012    2    1    2    0    0 -0.35232806257E+02  0.12542108851E+02  0.15953382414E+02  0.50528861524E+02  0.30000005088E+02 0.  0.
        -12    1    1    2    0    0  0.35232806257E+02 -0.12542108851E+02 -0.15953382414E+02  0.40659138476E+02  0.00000000000E+00 0.  1.
         11    1    3    3    0    0 -0.57090684525E+01 -0.43608205331E+01  0.12502528911E+02  0.14419550886E+02  0.51100000000E-03 0. -1.
        -11    1    3    3    0    0 -0.72559421063E+01  0.65724029949E+01  0.59155655327E+01  0.11438491719E+02  0.51100000000E-03 0.  1.
         12    1    3    3    0    0 -0.22267795698E+02  0.10330526389E+02 -0.24647120297E+01  0.24670818919E+02  0.00000000000E+00 0. -1.
</event>
<event>
 7    1  0.5019004E-011  0.5052885E+02  0.7816164E-02  0.1300439E+00
        -11   -1    0    0    0    0  0.00000000000E+00  0.00000000000E+00  0.45593999997E+02  0.45594000000E+02  0.51100000000E-03 0.  1.
         11   -1    0    0    0    0 -0.00000000000E+00 -0.00000000000E+00 -0.45593999997E+02  0.45594000000E+02  0.51100000000E-03 0. -1.
    9900012    2    1    2    0    0  0.26153637281E+01 -0.52964763745E+01 -0.40227771873E+02  0.50528850731E+02  0.29999972281E+02 0.  0.
        -12    1    1    2    0    0 -0.26153637281E+01  0.52964763745E+01  0.40227771873E+02  0.40659149269E+02  0.00000000000E+00 0.  1.
         11    1    3    3    0    0  0.67247884478E+01  0.66529606244E+01 -0.34965144732E+01  0.10085151385E+02  0.51100000000E-03 0.  1.
        -11    1    3    3    0    0 -0.43729633861E+01 -0.13661792301E+02 -0.35582035178E+02  0.38364679137E+02  0.51100000000E-03 0. -1.
         12    1    3    3    0    0  0.26353866634E+00  0.17123553024E+01 -0.11492222225E+01  0.20790202084E+01  0.00000000000E+00 0. -1.
</event>
<event>
 7    1  0.5019004E-011  0.5052886E+02  0.7816164E-02  0.1300439E+00
        -11   -1    0    0    0    0  0.00000000000E+00  0.00000000000E+00  0.45593999997E+02  0.45594000000E+02  0.51100000000E-03 0. -1.
         11   -1    0    0    0    0 -0.00000000000E+00 -0.00000000000E+00 -0.45593999997E+02  0.45594000000E+02  0.51100000000E-03 0.  1.
    9900012    2    1    2    0    0 -0.34902029043E+02  0.51419405676E+01  0.20213223819E+02  0.50528860790E+02  0.30000002857E+02 0.  0.
        -12    1    1    2    0    0  0.34902029043E+02 -0.51419405676E+01 -0.20213223819E+02  0.40659139210E+02  0.00000000000E+00 0.  1.
         11    1    3    3    0    0 -0.97123158589E+01  0.36190389258E+01  0.34228258482E+00  0.10370326886E+02  0.51100000000E-03 0. -1.
        -11    1    3    3    0    0 -0.66512726012E+01 -0.10576389462E+02  0.95904733583E+01  0.15750448272E+02  0.51100000000E-03 0.  1.
        -12    1    3    3    0    0 -0.18538440583E+02  0.12099291104E+02  0.10280467876E+02  0.24408085632E+02  0.00000000000E+00 0.  1.
</event>
<event>
 7    1  0.5019004E-011  0.5052886E+02  0.7816164E-02  0.1300439E+00
        -11   -1    0    0    0    0  0.00000000000E+00  0.00000000000E+00  0.45593999997E+02  0.45594000000E+02  0.51100000000E-03 0.  1.
         11   -1    0    0    0    0 -0.00000000000E+00 -0.00000000000E+00 -0.45593999997E+02  0.45594000000E+02  0.51100000000E-03 0. -1.
    9900012    2    1    2    0    0 -0.69773423849E+01  0.54038204030E+00 -0.40052342878E+02  0.50528862164E+02  0.30000007035E+02 0.  0.
        -12    1    1    2    0    0  0.69773423849E+01 -0.54038204030E+00  0.40052342878E+02  0.40659137836E+02  0.00000000000E+00 0.  1.
         11    1    3    3    0    0  0.76100736579E+01  0.64226990997E+01 -0.93645591520E+01  0.13669647149E+02  0.51100000000E-03 0. -1.
        -11    1    3    3    0    0 -0.16395071361E+02 -0.35051068102E+01 -0.21918631678E+02  0.27595480673E+02  0.51100000000E-03 0.  1.
        -12    1    3    3    0    0  0.18076553186E+01 -0.23772102492E+01 -0.87691520485E+01  0.92637343426E+01  0.00000000000E+00 0.  1.
</event>
<event>
 7    1  0.5019004E-011  0.5052886E+02  0.7816164E-02  0.1300439E+00
        -11   -1    0    0    0    0  0.00000000000E+00  0.00000000000E+00  0.45593999997E+02  0.45594000000E+02  0.51100000000E-03 0.  1.
         11   -1    0    0    0    0 -0.00000000000E+00 -0.00000000000E+00 -0.45593999997E+02  0.45594000000E+02  0.51100000000E-03 0. -1.
    9900012    2    1    2    0    0 -0.61556678076E+01  0.33271374006E+02 -0.22545269989E+02  0.50528858674E+02  0.29999996427E+02 0.  0.
        -12    1    1    2    0    0  0.61556678076E+01 -0.33271374006E+02  0.22545269989E+02  0.40659141326E+02  0.00000000000E+00 0.  1.
         11    1    3    3    0    0 -0.69367647188E+01  0.57575225940E+01 -0.59209059528E+01  0.10785402113E+02  0.51100000000E-03 0. -1.
        -11    1    3    3    0    0  0.87602945925E+01  0.20338291415E+02 -0.29182772804E+01  0.22336185922E+02  0.51100000000E-03 0.  1.
        -12    1    3    3    0    0 -0.79791976813E+01  0.71755599979E+01 -0.13706086756E+02  0.17407270639E+02  0.00000000000E+00 0.  1.
</event>
<event>
 7    1  0.5019004E-011  0.5052886E+02  0.7816164E-02  0.1300439E+00
        -11   -1    0    0    0    0  0.00000000000E+00  0.00000000000E+00  0.45593999997E+02  0.45594000000E+02  0.51100000000E-03 0.  1.
         11   -1    0    0    0    0 -0.00000000000E+00 -0.00000000000E+00 -0.45593999997E+02  0.45594000000E+02  0.51100000000E-03 0. -1.
    9900012    2    1    2    0    0 -0.24905557319E+02  0.32043564173E+02 -0.24675993416E+01  0.50528857894E+02  0.29999994053E+02 0.  0.
        -12    1    1    2    0    0  0.24905557319E+02 -0.32043564173E+02  0.24675993416E+01  0.40659142106E+02  0.00000000000E+00 0.  1.
         11    1    3    3    0    0 -0.14789400623E+02  0.26740205402E+02 -0.62509200017E+01  0.31190366411E+02  0.51100000000E-03 0. -1.
        -11    1    3    3    0    0  0.28978517291E+01 -0.20649693192E+01 -0.89411020138E+00  0.36689339387E+01  0.51100000000E-03 0.  1.
        -12    1    3    3    0    0 -0.13014008425E+02  0.73683280903E+01  0.46774308615E+01  0.15669557543E+02  0.00000000000E+00 0.  1.
</event>
<event>
 7    1  0.5019004E-011  0.5052886E+02  0.7816164E-02  0.1300439E+00
        -11   -1    0    0    0    0  0.00000000000E+00  0.00000000000E+00  0.45593999997E+02  0.45594000000E+02  0.51100000000E-03 0.  1.
         11   -1    0    0    0    0 -0.00000000000E+00 -0.00000000000E+00 -0.45593999997E+02  0.45594000000E+02  0.51100000000E-03 0. -1.
    9900012    2    1    2    0    0 -0.12694604162E+02  0.22935649034E+02 -0.31080040689E+02  0.50528857109E+02  0.29999991667E+02 0.  0.
        -12    1    1    2    0    0  0.12694604162E+02 -0.22935649034E+02  0.31080040689E+02  0.40659142891E+02  0.00000000000E+00 0.  1.
         11    1    3    3    0    0  0.10814773592E+01  0.57130618111E+01 -0.25894146567E+02  0.26538942993E+02  0.51100000000E-03 0. -1.
        -11    1    3    3    0    0 -0.10475568534E+02  0.16900841440E+02 -0.55754654605E+01  0.20650951379E+02  0.51100000000E-03 0.  1.
         12    1    3    3    0    0 -0.33005129869E+01  0.32174578280E+00  0.38957133813E+00  0.33389627361E+01  0.00000000000E+00 0. -1.
</event>
<event>
 7    1  0.5019004E-011  0.5052886E+02  0.7816164E-02  0.1300439E+00
        -11   -1    0    0    0    0  0.00000000000E+00  0.00000000000E+00  0.45593999997E+02  0.45594000000E+02  0.51100000000E-03 0.  1.
         11   -1    0    0    0    0 -0.00000000000E+00 -0.00000000000E+00 -0.45593999997E+02  0.45594000000E+02  0.51100000000E-03 0. -1.
    9900012    2    1    2    0    0  0.38915422439E+02  0.11682692019E+02  0.15067654585E+01  0.50528859102E+02  0.29999997727E+02 0.  0.
        -12    1    1    2    0    0 -0.38915422439E+02 -0.11682692019E+02 -0.15067654585E+01  0.40659140898E+02  0.00000000000E+00 0.  1.
         11    1    3    3    0    0  0.91039023482E+01  0.11455744291E+02 -0.50281406588E+01  0.15472469550E+02  0.51100000000E-03 0. -1.
        -11    1    3    3    0    0  0.18965357407E+02  0.12895119684E+01  0.12384617149E+02  0.22687581732E+02  0.51100000000E-03 0.  1.
        -12    1    3    3    0    0  0.10846162684E+02 -0.10625642408E+01 -0.58497110314E+01  0.12368807820E+02  0.00000000000E+00 0.  1.
</event>
<event>
 7    1  0.5019004E-011  0.5052893E+02  0.7816164E-02  0.1300439E+00
        -11   -1    0    0    0    0  0.00000000000E+00  0.00000000000E+00  0.45593999997E+02  0.45594000000E+02  0.51100000000E-03 0.  1.
         11   -1    0    0    0    0 -0.00000000000E+00 -0.00000000000E+00 -0.45593999997E+02  0.45594000000E+02  0.51100000000E-03 0. -1.
    9900012    2    1    2    0    0  0.28480369992E+02 -0.28515856864E+02 -0.53734672156E+01  0.50528933145E+02  0.30000222788E+02 0.  0.
        -12    1    1    2    0    0 -0.28480369992E+02  0.28515856864E+02  0.53734672156E+01  0.40659066855E+02  0.00000000000E+00 0.  1.
         11    1    3    3    0    0  0.22067592655E+02 -0.17936418381E+02 -0.11964112595E+02  0.30851802871E+02  0.51100000000E-03 0. -1.
        -11    1    3    3    0    0  0.49844729828E+00  0.24770676794E+01 -0.17685120820E+01  0.30841448155E+01  0.51100000000E-03 0.  1.
         12    1    3    3    0    0  0.59143300392E+01 -0.13056506162E+02  0.83591574616E+01  0.16592985459E+02  0.00000000000E+00 0. -1.
</event>
<event>
 7    1  0.5019004E-011  0.5052886E+02  0.7816164E-02  0.1300439E+00
        -11   -1    0    0    0    0  0.00000000000E+00  0.00000000000E+00  0.45593999997E+02  0.45594000000E+02  0.51100000000E-03 0.  1.
         11   -1    0    0    0    0 -0.00000000000E+00 -0.00000000000E+00 -0.45593999997E+02  0.45594000000E+02  0.51100000000E-03 0. -1.
    9900012    2    1    2    0    0  0.38003209418E+02  0.65501050541E+01 -0.12884783573E+02  0.50528862651E+02  0.30000008513E+02 0.  0.
        -12    1    1    2    0    0 -0.38003209418E+02 -0.65501050541E+01  0.12884783573E+02  0.40659137349E+02  0.00000000000E+00 0.  1.
         11    1    3    3    0    0  0.92263195218E+01  0.68202442562E+01  0.27220378374E+01  0.11791954625E+02  0.51100000000E-03 0. -1.
        -11    1    3    3    0    0  0.10230971689E+02 -0.94394825233E+01 -0.22239052052E+01  0.14096892091E+02  0.51100000000E-03 0.  1.
        -12    1    3    3    0    0  0.18545918207E+02  0.91693433212E+01 -0.13382916205E+02  0.24640015934E+02  0.00000000000E+00 0.  1.
</event>
<event>
 7    1  0.5019004E-011  0.5052886E+02  0.7816164E-02  0.1300439E+00
        -11   -1    0    0    0    0  0.00000000000E+00  0.00000000000E+00  0.45593999997E+02  0.45594000000E+02  0.51100000000E-03 0. -1.
         11   -1    0    0    0    0 -0.00000000000E+00 -0.00000000000E+00 -0.45593999997E+02  0.45594000000E+02  0.51100000000E-03 0.  1.
    9900012    2    1    2    0    0 -0.41402228698E+01  0.38685678531E+02  0.11808584617E+02  0.50528857861E+02  0.29999993954E+02 0.  0.
        -12    1    1    2    0    0  0.41402228698E+01 -0.38685678531E+02 -0.11808584617E+02  0.40659142139E+02  0.00000000000E+00 0.  1.
         11    1    3    3    0    0 -0.74748503639E+01  0.37516243356E+02  0.61945315205E+01  0.38751956396E+02  0.51100000000E-03 0.  1.
        -11    1    3    3    0    0  0.53084392137E+01  0.24491063635E+01  0.69419045604E+01  0.90756646066E+01  0.51100000000E-03 0. -1.
        -12    1    3    3    0    0 -0.19738117196E+01 -0.12796711884E+01 -0.13278514636E+01  0.27012368582E+01  0.00000000000E+00 0.  1.
</event>
<event>
 7    1  0.5019004E-011  0.5052886E+02  0.7816164E-02  0.1300439E+00
        -11   -1    0    0    0    0  0.00000000000E+00  0.00000000000E+00  0.45593999997E+02  0.45594000000E+02  0.51100000000E-03 0. -1.
         11   -1    0    0    0    0 -0.00000000000E+00 -0.00000000000E+00 -0.45593999997E+02  0.45594000000E+02  0.51100000000E-03 0.  1.
    9900012    2    1    2    0    0 -0.81670958133E+00  0.26511491624E+02  0.30816216185E+02  0.50528863479E+02  0.30000011030E+02 0.  0.
        -12    1    1    2    0    0  0.81670958133E+00 -0.26511491624E+02 -0.30816216185E+02  0.40659136521E+02  0.00000000000E+00 0.  1.
         11    1    3    3    0    0 -0.15887949953E+01  0.12048055836E+02  0.10785097204E+02  0.16248022678E+02  0.51100000000E-03 0. -1.
        -11    1    3    3    0    0  0.11147157837E+02  0.15719082789E+01  0.86502427793E+01  0.14197067440E+02  0.51100000000E-03 0.  1.
        -12    1    3    3    0    0 -0.10375072423E+02  0.12891527509E+02  0.11380876202E+02  0.20083773361E+02  0.00000000000E+00 0.  1.
</event>
<event>
 7    1  0.5019004E-011  0.5052885E+02  0.7816164E-02  0.1300439E+00
        -11   -1    0    0    0    0  0.00000000000E+00  0.00000000000E+00  0.45593999997E+02  0.45594000000E+02  0.51100000000E-03 0.  1.
         11   -1    0    0    0    0 -0.00000000000E+00 -0.00000000000E+00 -0.45593999997E+02  0.45594000000E+02  0.51100000000E-03 0. -1.
    9900012    2    1    2    0    0  0.13510621746E+02 -0.15396116047E+02 -0.35122484359E+02  0.50528853466E+02  0.29999980597E+02 0.  0.
        -12    1    1    2    0    0 -0.13510621746E+02  0.15396116047E+02  0.35122484359E+02  0.40659146534E+02  0.00000000000E+00 0.  1.
         11    1    3    3    0    0  0.12766439813E+02 -0.13340305096E+02 -0.27037847144E+02  0.32741272180E+02  0.51100000000E-03 0. -1.
        -11    1    3    3    0    0 -0.73410684902E+01 -0.69611443084E-01 -0.51175046319E+01  0.89490215247E+01  0.51100000000E-03 0.  1.
        -12    1    3    3    0    0  0.80852504234E+01 -0.19861995081E+01 -0.29671325831E+01  0.88385597616E+01  0.00000000000E+00 0.  1.
</event>
<event>
 7    1  0.5019004E-011  0.5052887E+02  0.7816164E-02  0.1300439E+00
        -11   -1    0    0    0    0  0.00000000000E+00  0.00000000000E+00  0.45593999997E+02  0.45594000000E+02  0.51100000000E-03 0.  1.
         11   -1    0    0    0    0 -0.00000000000E+00 -0.00000000000E+00 -0.45593999997E+02  0.45594000000E+02  0.51100000000E-03 0. -1.
    9900012    2    1    2    0    0 -0.39966199042E+01  0.36836083054E+02 -0.16742001769E+02  0.50528872998E+02  0.30000039963E+02 0.  0.
        -12    1    1    2    0    0  0.39966199042E+01 -0.36836083054E+02  0.16742001769E+02  0.40659127002E+02  0.00000000000E+00 0.  1.
         11    1    3    3    0    0 -0.12158183590E+02  0.20812860618E+02 -0.19318418853E+02  0.30890093923E+02  0.51100000000E-03 0. -1.
        -11    1    3    3    0    0  0.75420317336E+01  0.94702516550E+01 -0.99993592382E+00  0.12147747989E+02  0.51100000000E-03 0.  1.
         12    1    3    3    0    0  0.61953195201E+00  0.65529707806E+01  0.35763530087E+01  0.74910310861E+01  0.00000000000E+00 0. -1.
</event>
<event>
 7    1  0.5019004E-011  0.5052886E+02  0.7816164E-02  0.1300439E+00
        -11   -1    0    0    0    0  0.00000000000E+00  0.00000000000E+00  0.45593999997E+02  0.45594000000E+02  0.51100000000E-03 0. -1.
         11   -1    0    0    0    0 -0.00000000000E+00 -0.00000000000E+00 -0.45593999997E+02  0.45594000000E+02  0.51100000000E-03 0.  1.
    9900012    2    1    2    0    0 -0.34566698209E+02  0.84137634300E+01  0.19685458157E+02  0.50528864458E+02  0.30000014007E+02 0.  0.
        -12    1    1    2    0    0  0.34566698209E+02 -0.84137634300E+01 -0.19685458157E+02  0.40659135542E+02  0.00000000000E+00 0.  1.
         11    1    3    3    0    0 -0.82881481013E+01  0.10597682307E+02  0.39270714244E+01  0.14015211717E+02  0.51100000000E-03 0.  1.
        -11    1    3    3    0    0 -0.15787715786E+02 -0.17854427737E+01  0.19692042319E+02  0.25302496055E+02  0.51100000000E-03 0. -1.
        -12    1    3    3    0    0 -0.10490834322E+02 -0.39847610364E+00 -0.39336555867E+01  0.11211156686E+02  0.00000000000E+00 0.  1.
</event>
<event>
 7    1  0.5019004E-011  0.5052886E+02  0.7816164E-02  0.1300439E+00
        -11   -1    0    0    0    0  0.00000000000E+00  0.00000000000E+00  0.45593999997E+02  0.45594000000E+02  0.51100000000E-03 0.  1.
         11   -1    0    0    0    0 -0.00000000000E+00 -0.00000000000E+00 -0.45593999997E+02  0.45594000000E+02  0.51100000000E-03 0. -1.
    9900012    2    1    2    0    0  0.11383367773E+02 -0.22160320177E+01 -0.38970162899E+02  0.50528862575E+02  0.30000008284E+02 0.  0.
        -12    1    1    2    0    0 -0.11383367773E+02  0.22160320177E+01  0.38970162899E+02  0.40659137425E+02  0.00000000000E+00 0.  1.
         11    1    3    3    0    0 -0.24361769321E+01  0.91746343067E+01 -0.17506320873E+02  0.19914320061E+02  0.51100000000E-03 0. -1.
        -11    1    3    3    0    0  0.10765927197E+02 -0.29380689531E+01 -0.58527054047E+01  0.12601253842E+02  0.51100000000E-03 0.  1.
         12    1    3    3    0    0  0.30536175086E+01 -0.84525973713E+01 -0.15611136621E+02  0.18013288673E+02  0.00000000000E+00 0. -1.
</event>
<event>
 7    1  0.5019004E-011  0.5052886E+02  0.7816164E-02  0.1300439E+00
        -11   -1    0    0    0    0  0.00000000000E+00  0.00000000000E+00  0.45593999997E+02  0.45594000000E+02  0.51100000000E-03 0.  1.
         11   -1    0    0    0    0 -0.00000000000E+00 -0.00000000000E+00 -0.45593999997E+02  0.45594000000E+02  0.51100000000E-03 0. -1.
    9900012    2    1    2    0    0 -0.24775454229E+02 -0.25790622181E+02 -0.19343903107E+02  0.50528856967E+02  0.29999991237E+02 0.  0.
        -12    1    1    2    0    0  0.24775454229E+02  0.25790622181E+02  0.19343903107E+02  0.40659143033E+02  0.00000000000E+00 0.  1.
         11    1    3    3    0    0 -0.56482394778E+01 -0.20665234451E+02 -0.33287271831E+01  0.21680289413E+02  0.51100000000E-03 0. -1.
        -11    1    3    3    0    0 -0.20000864025E+02 -0.69967368685E+01 -0.16340070565E+02  0.26757929570E+02  0.51100000000E-03 0.  1.
         12    1    3    3    0    0  0.87364927348E+00  0.18713491384E+01  0.32489464131E+00  0.20906379837E+01  0.00000000000E+00 0. -1.
</event>
<event>
 7    1  0.5019004E-011  0.5052887E+02  0.7816164E-02  0.1300439E+00
        -11   -1    0    0    0    0  0.00000000000E+00  0.00000000000E+00  0.45593999997E+02  0.45594000000E+02  0.51100000000E-03 0.  1.
         11   -1    0    0    0    0 -0.00000000000E+00 -0.00000000000E+00 -0.45593999997E+02  0.45594000000E+02  0.51100000000E-03 0. -1.
    9900012    2    1    2    0    0  0.21994215034E+02  0.38098694702E+01 -0.33983885211E+02  0.50528867515E+02  0.30000023300E+02 0.  0.
        -12    1    1    2    0    0 -0.21994215034E+02 -0.38098694702E+01  0.33983885211E+02  0.40659132485E+02  0.00000000000E+00 0.  1.
         11    1    3    3    0    0  0.10553199110E+02 -0.43926815283E+01  0.69475841935E+00  0.11452002095E+02  0.51100000000E-03 0. -1.
        -11    1    3    3    0    0  0.17713934423E+01  0.74549565157E+01 -0.10282043258E+02  0.12823206510E+02  0.51100000000E-03 0.  1.
         12    1    3    3    0    0  0.96696224824E+01  0.74759448274E+00 -0.24396600372E+02  0.26253658910E+02  0.00000000000E+00 0. -1.
</event>
<event>
 7    1  0.5019004E-011  0.5052892E+02  0.7816164E-02  0.1300439E+00
        -11   -1    0    0    0    0  0.00000000000E+00  0.00000000000E+00  0.45593999997E+02  0.45594000000E+02  0.51100000000E-03 0.  1.
         11   -1    0    0    0    0 -0.00000000000E+00 -0.00000000000E+00 -0.45593999997E+02  0.45594000000E+02  0.51100000000E-03 0. -1.
    9900012    2    1    2    0    0 -0.17031263672E+02  0.12400266779E+02 -0.34775428113E+02  0.50528917879E+02  0.30000176385E+02 0.  0.
        -12    1    1    2    0    0  0.17031263672E+02 -0.12400266779E+02  0.34775428113E+02  0.40659082121E+02  0.00000000000E+00 0.  1.
         11    1    3    3    0    0 -0.60054643396E+01  0.13372949596E+02 -0.15031889351E+02  0.20996644507E+02  0.51100000000E-03 0. -1.
        -11    1    3    3    0    0 -0.91506619821E+01 -0.22060705188E+01  0.24706383358E+00  0.94160715079E+01  0.51100000000E-03 0.  1.
        -12    1    3    3    0    0 -0.18751373507E+01  0.12333877020E+01 -0.19990602595E+02  0.20116201864E+02  0.00000000000E+00 0.  1.
</event>
<event>
 7    1  0.5019004E-011  0.5052884E+02  0.7816164E-02  0.1300439E+00
        -11   -1    0    0    0    0  0.00000000000E+00  0.00000000000E+00  0.45593999997E+02  0.45594000000E+02  0.51100000000E-03 0. -1.
         11   -1    0    0    0    0 -0.00000000000E+00 -0.00000000000E+00 -0.45593999997E+02  0.45594000000E+02  0.51100000000E-03 0.  1.
    9900012    2    1    2    0    0  0.16993876542E+02 -0.36067810703E+02  0.79679748311E+01  0.50528838280E+02  0.29999934436E+02 0.  0.
        -12    1    1    2    0    0 -0.16993876542E+02  0.36067810703E+02 -0.79679748311E+01  0.40659161720E+02  0.00000000000E+00 0.  1.
         11    1    3    3    0    0  0.14917957480E+02 -0.84188268085E+01 -0.43428109264E+01  0.17671505517E+02  0.51100000000E-03 0. -1.
        -11    1    3    3    0    0 -0.32673147797E+01 -0.12511654186E+02  0.10587078048E+02  0.16712362436E+02  0.51100000000E-03 0.  1.
        -12    1    3    3    0    0  0.53432338416E+01 -0.15137329709E+02  0.17237077092E+01  0.16144970327E+02  0.00000000000E+00 0.  1.
</event>
<event>
 7    1  0.5019004E-011  0.5052886E+02  0.7816164E-02  0.1300439E+00
        -11   -1    0    0    0    0  0.00000000000E+00  0.00000000000E+00  0.45593999997E+02  0.45594000000E+02  0.51100000000E-03 0.  1.
         11   -1    0    0    0    0 -0.00000000000E+00 -0.00000000000E+00 -0.45593999997E+02  0.45594000000E+02  0.51100000000E-03 0. -1.
    9900012    2    1    2    0    0  0.77682116249E+00  0.36288141517E+02 -0.18323016443E+02  0.50528860837E+02  0.30000003000E+02 0.  0.
        -12    1    1    2    0    0 -0.77682116249E+00 -0.36288141517E+02  0.18323016443E+02  0.40659139163E+02  0.00000000000E+00 0.  1.
         11    1    3    3    0    0 -0.45977453202E+01  0.34963713486E+02 -0.11628455824E+02  0.37132485883E+02  0.51100000000E-03 0. -1.
        -11    1    3    3    0    0 -0.25763873151E+01 -0.93528990751E+00  0.29409076773E-01  0.27410589128E+01  0.51100000000E-03 0.  1.
         12    1    3    3    0    0  0.79509537978E+01  0.22597179386E+01 -0.67239696959E+01  0.10655316041E+02  0.00000000000E+00 0. -1.
</event>
<event>
 7    1  0.5019004E-011  0.5052887E+02  0.7816164E-02  0.1300439E+00
        -11   -1    0    0    0    0  0.00000000000E+00  0.00000000000E+00  0.45593999997E+02  0.45594000000E+02  0.51100000000E-03 0.  1.
         11   -1    0    0    0    0 -0.00000000000E+00 -0.00000000000E+00 -0.45593999997E+02  0.45594000000E+02  0.51100000000E-03 0. -1.
    9900012    2    1    2    0    0  0.31204365445E+02  0.19463256692E+02 -0.17338813730E+02  0.50528865166E+02  0.30000016158E+02 0.  0.
        -12    1    1    2    0    0 -0.31204365445E+02 -0.19463256692E+02  0.17338813730E+02  0.40659134834E+02  0.00000000000E+00 0.  1.
         11    1    3    3    0    0  0.10328974866E+02  0.69357711159E+01 -0.13101170994E+02  0.18067465910E+02  0.51100000000E-03 0. -1.
        -11    1    3    3    0    0  0.13196556087E+02 -0.29759917532E+01  0.27465029044E+01  0.13803945013E+02  0.51100000000E-03 0.  1.
        -12    1    3    3    0    0  0.76788344919E+01  0.15503477329E+02 -0.69841456411E+01  0.18657454242E+02  0.00000000000E+00 0.  1.
</event>
<event>
 7    1  0.5019004E-011  0.5052882E+02  0.7816164E-02  0.1300439E+00
        -11   -1    0    0    0    0  0.00000000000E+00  0.00000000000E+00  0.45593999997E+02  0.45594000000E+02  0.51100000000E-03 0. -1.
         11   -1    0    0    0    0 -0.00000000000E+00 -0.00000000000E+00 -0.45593999997E+02  0.45594000000E+02  0.51100000000E-03 0.  1.
    9900012    2    1    2    0    0 -0.67048322111E+01 -0.38092152130E+02  0.12538025619E+02  0.50528820036E+02  0.29999878981E+02 0.  0.
        -12    1    1    2    0    0  0.67048322111E+01  0.38092152130E+02 -0.12538025619E+02  0.40659179964E+02  0.00000000000E+00 0.  1.
         11    1    3    3    0    0 -0.99998272527E+00  0.67561831786E+00  0.72780792547E+01  0.73774564357E+01  0.51100000000E-03 0. -1.
        -11    1    3    3    0    0  0.59718145166E+01 -0.18445418446E+02  0.21071760222E+01  0.19502210677E+02  0.51100000000E-03 0.  1.
         12    1    3    3    0    0 -0.11676664002E+02 -0.20322352003E+02  0.31527703426E+01  0.23649152923E+02  0.00000000000E+00 0. -1.
</event>
<event>
 7    1  0.5019004E-011  0.5052887E+02  0.7816164E-02  0.1300439E+00
        -11   -1    0    0    0    0  0.00000000000E+00  0.00000000000E+00  0.45593999997E+02  0.45594000000E+02  0.51100000000E-03 0. -1.
         11   -1    0    0    0    0 -0.00000000000E+00 -0.00000000000E+00 -0.45593999997E+02  0.45594000000E+02  0.51100000000E-03 0.  1.
    9900012    2    1    2    0    0 -0.25627085542E+02 -0.30910065414E+02 -0.64019487633E+01  0.50528873039E+02  0.30000040090E+02 0.  0.
        -12    1    1    2    0    0  0.25627085542E+02  0.30910065414E+02  0.64019487633E+01  0.40659126961E+02  0.00000000000E+00 0.  1.
         11    1    3    3    0    0 -0.23320204386E+02 -0.33031282891E+02 -0.10484126621E+02  0.41770976686E+02  0.51100000000E-03 0. -1.
        -11    1    3    3    0    0 -0.73144528306E+00  0.10034920434E+01 -0.20123085351E+01  0.23646129461E+01  0.51100000000E-03 0.  1.
         12    1    3    3    0    0 -0.15754358729E+01  0.11177254345E+01  0.60944863925E+01  0.63932834072E+01  0.00000000000E+00 0. -1.
</event>
<event>
 7    1  0.5019004E-011  0.5052885E+02  0.7816164E-02  0.1300439E+00
        -11   -1    0    0    0    0  0.00000000000E+00  0.00000000000E+00  0.45593999997E+02  0.45594000000E+02  0.51100000000E-03 0. -1.
         11   -1    0    0    0    0 -0.00000000000E+00 -0.00000000000E+00 -0.45593999997E+02  0.45594000000E+02  0.51100000000E-03 0.  1.
    9900012    2    1    2    0    0  0.16804029964E+02 -0.36293573113E+02  0.73190050081E+01  0.50528847197E+02  0.29999961539E+02 0.  0.
        -12    1    1    2    0    0 -0.16804029964E+02  0.36293573113E+02 -0.73190050081E+01  0.40659152803E+02  0.00000000000E+00 0.  1.
         11    1    3    3    0    0  0.12146976386E+02 -0.23450537544E+02 -0.15483389582E+01  0.26455133721E+02  0.51100000000E-03 0. -1.
        -11    1    3    3    0    0  0.92370701104E+00 -0.89946204872E+00  0.11259985472E+02  0.11333558123E+02  0.51100000000E-03 0.  1.
        -12    1    3    3    0    0  0.37333465667E+01 -0.11943573521E+02 -0.23926415062E+01  0.12740155353E+02  0.00000000000E+00 0.  1.
</event>
<event>
 7    1  0.5019004E-011  0.5052885E+02  0.7816164E-02  0.1300439E+00
        -11   -1    0    0    0    0  0.00000000000E+00  0.00000000000E+00  0.45593999997E+02  0.45594000000E+02  0.51100000000E-03 0. -1.
         11   -1    0    0    0    0 -0.00000000000E+00 -0.00000000000E+00 -0.45593999997E+02  0.45594000000E+02  0.51100000000E-03 0.  1.
    9900012    2    1    2    0    0 -0.35374573688E+02  0.38563587772E+01  0.19670642295E+02  0.50528854228E+02  0.29999982911E+02 0.  0.
        -12    1    1    2    0    0  0.35374573688E+02 -0.38563587772E+01 -0.19670642295E+02  0.40659145772E+02  0.00000000000E+00 0.  1.
         11    1    3    3    0    0 -0.82644486855E+01  0.12004862569E+01  0.14149015795E+01  0.84701963418E+01  0.51100000000E-03 0. -1.
        -11    1    3    3    0    0 -0.13274734136E+01 -0.54196715069E+01 -0.41541882504E+01  0.69564578046E+01  0.51100000000E-03 0.  1.
        -12    1    3    3    0    0 -0.25782651589E+02  0.80755440271E+01  0.22409928966E+02  0.35102200081E+02  0.00000000000E+00 0.  1.
</event>
<event>
 7    1  0.5019004E-011  0.5052885E+02  0.7816164E-02  0.1300439E+00
        -11   -1    0    0    0    0  0.00000000000E+00  0.00000000000E+00  0.45593999997E+02  0.45594000000E+02  0.51100000000E-03 0. -1.
         11   -1    0    0    0    0 -0.00000000000E+00 -0.00000000000E+00 -0.45593999997E+02  0.45594000000E+02  0.51100000000E-03 0.  1.
    9900012    2    1    2    0    0 -0.28946493545E+02 -0.27647065187E+02 -0.71349094036E+01  0.50528848088E+02  0.29999964248E+02 0.  0.
        -12    1    1    2    0    0  0.28946493545E+02  0.27647065187E+02  0.71349094036E+01  0.40659151912E+02  0.00000000000E+00 0.  1.
         11    1    3    3    0    0 -0.16124774366E+02 -0.25935074935E+02  0.33337343812E+01  0.30720518313E+02  0.51100000000E-03 0. -1.
        -11    1    3    3    0    0 -0.11242257395E+02 -0.30610092565E+01 -0.12369268923E+02  0.16992849760E+02  0.51100000000E-03 0.  1.
         12    1    3    3    0    0 -0.15794617844E+01  0.13490190041E+01  0.19006251385E+01  0.28154800157E+01  0.00000000000E+00 0. -1.
</event>
<event>
 7    1  0.5019004E-011  0.5052887E+02  0.7816164E-02  0.1300439E+00
        -11   -1    0    0    0    0  0.00000000000E+00  0.00000000000E+00  0.45593999997E+02  0.45594000000E+02  0.51100000000E-03 0. -1.
         11   -1    0    0    0    0 -0.00000000000E+00 -0.00000000000E+00 -0.45593999997E+02  0.45594000000E+02  0.51100000000E-03 0.  1.
    9900012    2    1    2    0    0  0.53368578237E+01 -0.34651290720E+00  0.40305868573E+02  0.50528866167E+02  0.30000019200E+02 0.  0.
        -12    1    1    2    0    0 -0.53368578237E+01  0.34651290720E+00 -0.40305868573E+02  0.40659133833E+02  0.00000000000E+00 0.  1.
         11    1    3    3    0    0  0.19836916312E+01  0.77391682525E+01  0.21674090623E+02  0.23099696153E+02  0.51100000000E-03 0. -1.
        -11    1    3    3    0    0 -0.16697759701E+01 -0.11963628564E+02  0.64502317344E+01  0.13693869062E+02  0.51100000000E-03 0.  1.
         12    1    3    3    0    0  0.50229421626E+01  0.38779474041E+01  0.12181546216E+02  0.13735300952E+02  0.00000000000E+00 0. -1.
</event>
<event>
 7    1  0.5019004E-011  0.5052890E+02  0.7816164E-02  0.1300439E+00
        -11   -1    0    0    0    0  0.00000000000E+00  0.00000000000E+00  0.45593999997E+02  0.45594000000E+02  0.51100000000E-03 0.  1.
         11   -1    0    0    0    0 -0.00000000000E+00 -0.00000000000E+00 -0.45593999997E+02  0.45594000000E+02  0.51100000000E-03 0. -1.
    9900012    2    1    2    0    0  0.29360179276E+02 -0.87575305717E+01 -0.26729160788E+02  0.50528898863E+02  0.30000118585E+02 0.  0.
        -12    1    1    2    0    0 -0.29360179276E+02  0.87575305717E+01  0.26729160788E+02  0.40659101137E+02  0.00000000000E+00 0.  1.
         11    1    3    3    0    0 -0.72461635022E+00  0.51801281584E+01  0.73999388761E+00  0.52826496957E+01  0.51100000000E-03 0.  1.
        -11    1    3    3    0    0  0.29932489343E+02 -0.15824964360E+02 -0.24780537240E+02  0.41957817405E+02  0.51100000000E-03 0. -1.
         12    1    3    3    0    0  0.15230628333E+00  0.18873056297E+01 -0.26886174358E+01  0.32884317630E+01  0.00000000000E+00 0. -1.
</event>
<event>
 7    1  0.5019004E-011  0.5052890E+02  0.7816164E-02  0.1300439E+00
        -11   -1    0    0    0    0  0.00000000000E+00  0.00000000000E+00  0.45593999997E+02  0.45594000000E+02  0.51100000000E-03 0.  1.
         11   -1    0    0    0    0 -0.00000000000E+00 -0.00000000000E+00 -0.45593999997E+02  0.45594000000E+02  0.51100000000E-03 0. -1.
    9900012    2    1    2    0    0 -0.10456536638E+02  0.21918450360E+02 -0.32609892423E+02  0.50528896364E+02  0.30000110989E+02 0.  0.
        -12    1    1    2    0    0  0.10456536638E+02 -0.21918450360E+02  0.32609892423E+02  0.40659103636E+02  0.00000000000E+00 0.  1.
         11    1    3    3    0    0 -0.63312303835E+01  0.11286817332E+02 -0.23150904700E+02  0.26522464296E+02  0.51100000000E-03 0. -1.
        -11    1    3    3    0    0 -0.20131984733E+01 -0.54473148146E+01 -0.31381240732E+01  0.66010627737E+01  0.51100000000E-03 0.  1.
        -12    1    3    3    0    0 -0.21121077808E+01  0.16078947842E+02 -0.63208636495E+01  0.17405369294E+02  0.00000000000E+00 0.  1.
</event>
<event>
 7    1  0.5019004E-011  0.5052886E+02  0.7816164E-02  0.1300439E+00
        -11   -1    0    0    0    0  0.00000000000E+00  0.00000000000E+00  0.45593999997E+02  0.45594000000E+02  0.51100000000E-03 0.  1.
         11   -1    0    0    0    0 -0.00000000000E+00 -0.00000000000E+00 -0.45593999997E+02  0.45594000000E+02  0.51100000000E-03 0. -1.
    9900012    2    1    2    0    0 -0.10889790806E+02  0.29093891055E+02 -0.26232111469E+02  0.50528859420E+02  0.29999998693E+02 0.  0.
        -12    1    1    2    0    0  0.10889790806E+02 -0.29093891055E+02  0.26232111469E+02  0.40659140580E+02  0.00000000000E+00 0.  1.
         11    1    3    3    0    0  0.54074764193E+01  0.12632305347E+02 -0.20228720795E+02  0.24454387845E+02  0.51100000000E-03 0. -1.
        -11    1    3    3    0    0 -0.15106031236E+02  0.10313006637E+02 -0.72738791637E+01  0.19683993598E+02  0.51100000000E-03 0.  1.
        -12    1    3    3    0    0 -0.11912359894E+01  0.61485790714E+01  0.12704884892E+01  0.63904779775E+01  0.00000000000E+00 0.  1.
</event>
<event>
 7    1  0.5019004E-011  0.5052886E+02  0.7816164E-02  0.1300439E+00
        -11   -1    0    0    0    0  0.00000000000E+00  0.00000000000E+00  0.45593999997E+02  0.45594000000E+02  0.51100000000E-03 0. -1.
         11   -1    0    0    0    0 -0.00000000000E+00 -0.00000000000E+00 -0.45593999997E+02  0.45594000000E+02  0.51100000000E-03 0.  1.
    9900012    2    1    2    0    0  0.39617483654E+01  0.39294217399E+02  0.96661808716E+01  0.50528855595E+02  0.29999987067E+02 0.  0.
        -12    1    1    2    0    0 -0.39617483654E+01 -0.39294217399E+02 -0.96661808716E+01  0.40659144405E+02  0.00000000000E+00 0.  1.
         11    1    3    3    0    0 -0.51534494611E+01  0.27539453294E+02  0.54891429225E+01  0.28550135190E+02  0.51100000000E-03 0. -1.
        -11    1    3    3    0    0  0.78904661318E+01  0.31305180105E+01  0.87071904720E+01  0.12160376843E+02  0.51100000000E-03 0.  1.
         12    1    3    3    0    0  0.12247316947E+01  0.86242460943E+01 -0.45301525228E+01  0.98183435619E+01  0.00000000000E+00 0. -1.
</event>
<event>
 7    1  0.5019004E-011  0.5052886E+02  0.7816164E-02  0.1300439E+00
        -11   -1    0    0    0    0  0.00000000000E+00  0.00000000000E+00  0.45593999997E+02  0.45594000000E+02  0.51100000000E-03 0.  1.
         11   -1    0    0    0    0 -0.00000000000E+00 -0.00000000000E+00 -0.45593999997E+02  0.45594000000E+02  0.51100000000E-03 0. -1.
    9900012    2    1    2    0    0 -0.16813428485E+02 -0.18740003337E+02 -0.31926264237E+02  0.50528862643E+02  0.30000008489E+02 0.  0.
        -12    1    1    2    0    0  0.16813428485E+02  0.18740003337E+02  0.31926264237E+02  0.40659137357E+02  0.00000000000E+00 0.  1.
         11    1    3    3    0    0 -0.35174456544E+00 -0.52485707013E+01 -0.21280066376E+02  0.21920594058E+02  0.51100000000E-03 0. -1.
        -11    1    3    3    0    0 -0.17409673131E+02 -0.14940044091E+02 -0.60923394505E+01  0.23736432677E+02  0.51100000000E-03 0.  1.
        -12    1    3    3    0    0  0.94798921171E+00  0.14486114547E+01 -0.45538584105E+01  0.48718359081E+01  0.00000000000E+00 0.  1.
</event>
<event>
 7    1  0.5019004E-011  0.5052886E+02  0.7816164E-02  0.1300439E+00
        -11   -1    0    0    0    0  0.00000000000E+00  0.00000000000E+00  0.45593999997E+02  0.45594000000E+02  0.51100000000E-03 0.  1.
         11   -1    0    0    0    0 -0.00000000000E+00 -0.00000000000E+00 -0.45593999997E+02  0.45594000000E+02  0.51100000000E-03 0. -1.
    9900012    2    1    2    0    0 -0.37907119982E+01 -0.25573692294E+02 -0.31381249315E+02  0.50528855351E+02  0.29999986324E+02 0.  0.
        -12    1    1    2    0    0  0.37907119982E+01  0.25573692294E+02  0.31381249315E+02  0.40659144649E+02  0.00000000000E+00 0.  1.
         11    1    3    3    0    0 -0.83881126309E+01 -0.53755360871E+01 -0.27197373297E+02  0.28964701556E+02  0.51100000000E-03 0. -1.
        -11    1    3    3    0    0  0.19786338171E+01 -0.64596451968E+01  0.60064377921E+00  0.67825350026E+01  0.51100000000E-03 0.  1.
         12    1    3    3    0    0  0.26187668156E+01 -0.13738511010E+02 -0.47845197977E+01  0.14781618792E+02  0.00000000000E+00 0. -1.
</event>
<event>
 7    1  0.5019004E-011  0.5052898E+02  0.7816164E-02  0.1300438E+00
        -11   -1    0    0    0    0  0.00000000000E+00  0.00000000000E+00  0.45593999997E+02  0.45594000000E+02  0.51100000000E-03 0. -1.
         11   -1    0    0    0    0 -0.00000000000E+00 -0.00000000000E+00 -0.45593999997E+02  0.45594000000E+02  0.51100000000E-03 0.  1.
    9900012    2    1    2    0    0 -0.25624357529E+02  0.17693459918E+02  0.26143636209E+02  0.50528979637E+02  0.30000364104E+02 0.  0.
        -12    1    1    2    0    0  0.25624357529E+02 -0.17693459918E+02 -0.26143636209E+02  0.40659020363E+02  0.00000000000E+00 0.  1.
         11    1    3    3    0    0 -0.28941414749E+02  0.59740114879E+01  0.23730163679E+02  0.37900065559E+02  0.51100000000E-03 0. -1.
        -11    1    3    3    0    0  0.13168769013E+01  0.49133618375E+01 -0.14199716823E+00  0.50887574885E+01  0.51100000000E-03 0.  1.
         12    1    3    3    0    0  0.20001803189E+01  0.68060865929E+01  0.25554696979E+01  0.75401565896E+01  0.00000000000E+00 0. -1.
</event>
<event>
 7    1  0.5019004E-011  0.5052886E+02  0.7816164E-02  0.1300439E+00
        -11   -1    0    0    0    0  0.00000000000E+00  0.00000000000E+00  0.45593999997E+02  0.45594000000E+02  0.51100000000E-03 0.  1.
         11   -1    0    0    0    0 -0.00000000000E+00 -0.00000000000E+00 -0.45593999997E+02  0.45594000000E+02  0.51100000000E-03 0. -1.
    9900012    2    1    2    0    0 -0.28504401046E+02 -0.31921600599E+01 -0.28817959402E+02  0.50528861434E+02  0.30000004815E+02 0.  0.
        -12    1    1    2    0    0  0.28504401046E+02  0.31921600599E+01  0.28817959402E+02  0.40659138566E+02  0.00000000000E+00 0.  1.
         11    1    3    3    0    0 -0.94181029537E+01 -0.26620891847E+01 -0.16745413928E+02  0.19395779694E+02  0.51100000000E-03 0. -1.
        -11    1    3    3    0    0 -0.20443884047E+02  0.56489523021E+01 -0.52934133602E+01  0.21860541674E+02  0.51100000000E-03 0.  1.
        -12    1    3    3    0    0  0.13575859545E+01 -0.61790231774E+01 -0.67791321140E+01  0.92725400657E+01  0.00000000000E+00 0.  1.
</event>
<event>
 7    1  0.5019004E-011  0.5052887E+02  0.7816164E-02  0.1300439E+00
        -11   -1    0    0    0    0  0.00000000000E+00  0.00000000000E+00  0.45593999997E+02  0.45594000000E+02  0.51100000000E-03 0.  1.
         11   -1    0    0    0    0 -0.00000000000E+00 -0.00000000000E+00 -0.45593999997E+02  0.45594000000E+02  0.51100000000E-03 0. -1.
    9900012    2    1    2    0    0  0.40508665995E+02  0.97533938830E+00  0.33558311210E+01  0.50528869289E+02  0.30000028692E+02 0.  0.
        -12    1    1    2    0    0 -0.40508665995E+02 -0.97533938830E+00 -0.33558311210E+01  0.40659130711E+02  0.00000000000E+00 0.  1.
         11    1    3    3    0    0  0.14371534396E+02  0.13216018621E+02  0.68670946547E+01  0.20696887166E+02  0.51100000000E-03 0. -1.
        -11    1    3    3    0    0  0.16795217104E+02 -0.56408974968E+01  0.46279722391E+00  0.17723239649E+02  0.51100000000E-03 0.  1.
         12    1    3    3    0    0  0.93419144952E+01 -0.65997817362E+01 -0.39740607576E+01  0.12108742474E+02  0.00000000000E+00 0. -1.
</event>
<event>
 7    1  0.5019004E-011  0.5052886E+02  0.7816164E-02  0.1300439E+00
        -11   -1    0    0    0    0  0.00000000000E+00  0.00000000000E+00  0.45593999997E+02  0.45594000000E+02  0.51100000000E-03 0. -1.
         11   -1    0    0    0    0 -0.00000000000E+00 -0.00000000000E+00 -0.45593999997E+02  0.45594000000E+02  0.51100000000E-03 0.  1.
    9900012    2    1    2    0    0 -0.27558365587E+02  0.78612768623E+01  0.28842715757E+02  0.50528862774E+02  0.30000008888E+02 0.  0.
        -12    1    1    2    0    0  0.27558365587E+02 -0.78612768623E+01 -0.28842715757E+02  0.40659137226E+02  0.00000000000E+00 0.  1.
         11    1    3    3    0    0 -0.47831450306E+01 -0.23168525921E+01 -0.23263087787E+01  0.58015510954E+01  0.51100000000E-03 0. -1.
        -11    1    3    3    0    0 -0.93379139356E+01 -0.68797683520E+00  0.24457890591E+02  0.26188897670E+02  0.51100000000E-03 0.  1.
         12    1    3    3    0    0 -0.13437306621E+02  0.10866106290E+02  0.67111339450E+01  0.18538414008E+02  0.00000000000E+00 0. -1.
</event>
<event>
 7    1  0.5019004E-011  0.5052886E+02  0.7816164E-02  0.1300439E+00
        -11   -1    0    0    0    0  0.00000000000E+00  0.00000000000E+00  0.45593999997E+02  0.45594000000E+02  0.51100000000E-03 0.  1.
         11   -1    0    0    0    0 -0.00000000000E+00 -0.00000000000E+00 -0.45593999997E+02  0.45594000000E+02  0.51100000000E-03 0. -1.
    9900012    2    1    2    0    0  0.26279962946E+02  0.30158901944E+02  0.72780453764E+01  0.50528858796E+02  0.29999996797E+02 0.  0.
        -12    1    1    2    0    0 -0.26279962946E+02 -0.30158901944E+02 -0.72780453764E+01  0.40659141204E+02  0.00000000000E+00 0.  1.
         11    1    3    3    0    0  0.27175460997E+02  0.22507135258E+02 -0.28515752596E+01  0.35400682192E+02  0.51100000000E-03 0. -1.
        -11    1    3    3    0    0 -0.26557318870E+01  0.46635417722E+01  0.11313042216E+01  0.54846497810E+01  0.51100000000E-03 0.  1.
         12    1    3    3    0    0  0.17602338362E+01  0.29882249133E+01  0.89983164144E+01  0.96435268230E+01  0.00000000000E+00 0. -1.
</event>
<event>
 7    1  0.5019004E-011  0.5052887E+02  0.7816164E-02  0.1300439E+00
        -11   -1    0    0    0    0  0.00000000000E+00  0.00000000000E+00  0.45593999997E+02  0.45594000000E+02  0.51100000000E-03 0.  1.
         11   -1    0    0    0    0 -0.00000000000E+00 -0.00000000000E+00 -0.45593999997E+02  0.45594000000E+02  0.51100000000E-03 0. -1.
    9900012    2    1    2    0    0 -0.32470112660E+02  0.10515428125E+01 -0.24448948768E+02  0.50528867516E+02  0.30000023303E+02 0.  0.
        -12    1    1    2    0    0  0.32470112660E+02 -0.10515428125E+01  0.24448948768E+02  0.40659132484E+02  0.00000000000E+00 0.  1.
         11    1    3    3    0    0 -0.41196015527E+00 -0.13471294573E+00  0.47584743738E+01  0.47781730164E+01  0.51100000000E-03 0.  1.
        -11    1    3    3    0    0 -0.31627075749E+02  0.43141927794E+01 -0.25322711510E+02  0.40744618028E+02  0.51100000000E-03 0. -1.
        -12    1    3    3    0    0 -0.43107675572E+00 -0.31279370212E+01 -0.38847116326E+01  0.50060764722E+01  0.00000000000E+00 0.  1.
</event>
<event>
 7    1  0.5019004E-011  0.5052886E+02  0.7816164E-02  0.1300439E+00
        -11   -1    0    0    0    0  0.00000000000E+00  0.00000000000E+00  0.45593999997E+02  0.45594000000E+02  0.51100000000E-03 0.  1.
         11   -1    0    0    0    0 -0.00000000000E+00 -0.00000000000E+00 -0.45593999997E+02  0.45594000000E+02  0.51100000000E-03 0. -1.
    9900012    2    1    2    0    0 -0.39623929648E+02 -0.19793301829E+01 -0.88990132574E+01  0.50528856064E+02  0.29999988491E+02 0.  0.
        -12    1    1    2    0    0  0.39623929648E+02  0.19793301829E+01  0.88990132574E+01  0.40659143936E+02  0.00000000000E+00 0.  1.
         11    1    3    3    0    0 -0.73185536140E+01 -0.21096782944E+00 -0.68942554421E+01  0.10056664098E+02  0.51100000000E-03 0. -1.
        -11    1    3    3    0    0 -0.34996004589E+02  0.84790874279E+00  0.18981128258E+01  0.35057697001E+02  0.51100000000E-03 0.  1.
        -12    1    3    3    0    0  0.26906285560E+01 -0.26162710962E+01 -0.39028706411E+01  0.54144949641E+01  0.00000000000E+00 0.  1.
</event>
<event>
 7    1  0.5019004E-011  0.5052889E+02  0.7816164E-02  0.1300439E+00
        -11   -1    0    0    0    0  0.00000000000E+00  0.00000000000E+00  0.45593999997E+02  0.45594000000E+02  0.51100000000E-03 0.  1.
         11   -1    0    0    0    0 -0.00000000000E+00 -0.00000000000E+00 -0.45593999997E+02  0.45594000000E+02  0.51100000000E-03 0. -1.
    9900012    2    1    2    0    0 -0.34776265367E+02 -0.18482031340E+02  0.10108845930E+02  0.50528894238E+02  0.30000104525E+02 0.  0.
        -12    1    1    2    0    0  0.34776265367E+02  0.18482031340E+02 -0.10108845930E+02  0.40659105762E+02  0.00000000000E+00 0.  1.
         11    1    3    3    0    0 -0.30223539274E+02 -0.21696481771E+02  0.90259794728E+01  0.38284043062E+02  0.51100000000E-03 0. -1.
        -11    1    3    3    0    0  0.11392925869E+01  0.57964662994E+01  0.10167573190E+01  0.59942309653E+01  0.51100000000E-03 0.  1.
         12    1    3    3    0    0 -0.56920186795E+01 -0.25820158688E+01  0.66109138578E-01  0.62506202102E+01  0.00000000000E+00 0. -1.
</event>
<event>
 7    1  0.5019004E-011  0.5052886E+02  0.7816164E-02  0.1300439E+00
        -11   -1    0    0    0    0  0.00000000000E+00  0.00000000000E+00  0.45593999997E+02  0.45594000000E+02  0.51100000000E-03 0.  1.
         11   -1    0    0    0    0 -0.00000000000E+00 -0.00000000000E+00 -0.45593999997E+02  0.45594000000E+02  0.51100000000E-03 0. -1.
    9900012    2    1    2    0    0 -0.33721641719E+02  0.21200208317E+02  0.81589033851E+01  0.50528860100E+02  0.30000000761E+02 0.  0.
        -12    1    1    2    0    0  0.33721641719E+02 -0.21200208317E+02 -0.81589033851E+01  0.40659139900E+02  0.00000000000E+00 0.  1.
         11    1    3    3    0    0 -0.24261588702E+02  0.27915063063E+01  0.13449592326E+02  0.27880256954E+02  0.51100000000E-03 0. -1.
        -11    1    3    3    0    0  0.91496412751E+00  0.38878775540E+01  0.13271558476E+00  0.39962938977E+01  0.51100000000E-03 0.  1.
         12    1    3    3    0    0 -0.10375017144E+02  0.14520824457E+02 -0.54234045259E+01  0.18652309249E+02  0.00000000000E+00 0. -1.
</event>
<event>
 7    1  0.5019004E-011  0.5052886E+02  0.7816164E-02  0.1300439E+00
        -11   -1    0    0    0    0  0.00000000000E+00  0.00000000000E+00  0.45593999997E+02  0.45594000000E+02  0.51100000000E-03 0.  1.
         11   -1    0    0    0    0 -0.00000000000E+00 -0.00000000000E+00 -0.45593999997E+02  0.45594000000E+02  0.51100000000E-03 0. -1.
    9900012    2    1    2    0    0 -0.14626444788E+02  0.35510422726E+02 -0.13350756116E+02  0.50528859599E+02  0.29999999237E+02 0.  0.
        -12    1    1    2    0    0  0.14626444788E+02 -0.35510422726E+02  0.13350756116E+02  0.40659140401E+02  0.00000000000E+00 0.  1.
         11    1    3    3    0    0 -0.66313023274E+01  0.23820270103E+02 -0.21473415613E+02  0.32748847562E+02  0.51100000000E-03 0. -1.
        -11    1    3    3    0    0 -0.70479662379E+01  0.41019124196E+01  0.45695852870E+01  0.93477603492E+01  0.51100000000E-03 0.  1.
        -12    1    3    3    0    0 -0.94717622244E+00  0.75882402036E+01  0.35530742098E+01  0.84322516877E+01  0.00000000000E+00 0.  1.
</event>
<event>
 7    1  0.5019004E-011  0.5052886E+02  0.7816164E-02  0.1300439E+00
        -11   -1    0    0    0    0  0.00000000000E+00  0.00000000000E+00  0.45593999997E+02  0.45594000000E+02  0.51100000000E-03 0.  1.
         11   -1    0    0    0    0 -0.00000000000E+00 -0.00000000000E+00 -0.45593999997E+02  0.45594000000E+02  0.51100000000E-03 0. -1.
    9900012    2    1    2    0    0  0.88176833547E+01  0.20765444199E+02 -0.33826181619E+02  0.50528858648E+02  0.29999996348E+02 0.  0.
        -12    1    1    2    0    0 -0.88176833547E+01 -0.20765444199E+02  0.33826181619E+02  0.40659141352E+02  0.00000000000E+00 0.  1.
         11    1    3    3    0    0 -0.53302985502E+01  0.86027938812E+01 -0.27928462196E+02  0.29705540663E+02  0.51100000000E-03 0. -1.
        -11    1    3    3    0    0  0.94075557295E+01  0.35145202393E+01 -0.38206344894E+01  0.10744822264E+02  0.51100000000E-03 0.  1.
         12    1    3    3    0    0  0.47404261754E+01  0.86481300789E+01 -0.20770849331E+01  0.10078495721E+02  0.00000000000E+00 0. -1.
</event>
<event>
 7    1  0.5019004E-011  0.5052887E+02  0.7816164E-02  0.1300439E+00
        -11   -1    0    0    0    0  0.00000000000E+00  0.00000000000E+00  0.45593999997E+02  0.45594000000E+02  0.51100000000E-03 0.  1.
         11   -1    0    0    0    0 -0.00000000000E+00 -0.00000000000E+00 -0.45593999997E+02  0.45594000000E+02  0.51100000000E-03 0. -1.
    9900012    2    1    2    0    0 -0.21705885590E+02  0.16392527687E+01 -0.34341405798E+02  0.50528871000E+02  0.30000033892E+02 0.  0.
        -12    1    1    2    0    0  0.21705885590E+02 -0.16392527687E+01  0.34341405798E+02  0.40659129000E+02  0.00000000000E+00 0.  1.
         11    1    3    3    0    0  0.64627632737E+01  0.46047799196E+01 -0.76850678236E+01  0.11046790256E+02  0.51100000000E-03 0. -1.
        -11    1    3    3    0    0 -0.16696844250E+02 -0.24493840527E+01 -0.11310290957E+02  0.20315185747E+02  0.51100000000E-03 0.  1.
         12    1    3    3    0    0 -0.11471804614E+02 -0.51614309812E+00 -0.15346047017E+02  0.19166894997E+02  0.00000000000E+00 0. -1.
</event>
<event>
 7    1  0.5019004E-011  0.5052885E+02  0.7816164E-02  0.1300439E+00
        -11   -1    0    0    0    0  0.00000000000E+00  0.00000000000E+00  0.45593999997E+02  0.45594000000E+02  0.51100000000E-03 0.  1.
         11   -1    0    0    0    0 -0.00000000000E+00 -0.00000000000E+00 -0.45593999997E+02  0.45594000000E+02  0.51100000000E-03 0. -1.
    9900012    2    1    2    0    0  0.33686048006E+02 -0.98067914786E+01 -0.20548563843E+02  0.50528850164E+02  0.29999970558E+02 0.  0.
        -12    1    1    2    0    0 -0.33686048006E+02  0.98067914786E+01  0.20548563843E+02  0.40659149836E+02  0.00000000000E+00 0.  1.
         11    1    3    3    0    0  0.58056585659E+01 -0.53953636466E+01 -0.73849920183E+01  0.10832992552E+02  0.51100000000E-03 0. -1.
        -11    1    3    3    0    0  0.21238967217E+01  0.79401689276E+01 -0.61967926223E+01  0.10293563958E+02  0.51100000000E-03 0.  1.
        -12    1    3    3    0    0  0.25756492719E+02 -0.12351596760E+02 -0.69667792025E+01  0.29402293654E+02  0.00000000000E+00 0.  1.
</event>
<event>
 7    1  0.5019004E-011  0.5052886E+02  0.7816164E-02  0.1300439E+00
        -11   -1    0    0    0    0  0.00000000000E+00  0.00000000000E+00  0.45593999997E+02  0.45594000000E+02  0.51100000000E-03 0.  1.
         11   -1    0    0    0    0 -0.00000000000E+00 -0.00000000000E+00 -0.45593999997E+02  0.45594000000E+02  0.51100000000E-03 0. -1.
    9900012    2    1    2    0    0 -0.36873801129E+01 -0.18012236283E+02 -0.36264698633E+02  0.50528858409E+02  0.29999995620E+02 0.  0.
        -12    1    1    2    0    0  0.36873801129E+01  0.18012236283E+02  0.36264698633E+02  0.40659141591E+02  0.00000000000E+00 0.  1.
         11    1    3    3    0    0  0.11457475868E+02 -0.30813945199E+01 -0.16806237797E+02  0.20572271985E+02  0.51100000000E-03 0. -1.
        -11    1    3    3    0    0 -0.12781282008E+02 -0.15726813165E+02 -0.17675105420E+02  0.26890577792E+02  0.51100000000E-03 0.  1.
         12    1    3    3    0    0 -0.23635739726E+01  0.79597140213E+00 -0.17833554148E+01  0.30660086322E+01  0.00000000000E+00 0. -1.
</event>
<event>
 7    1  0.5019004E-011  0.5052886E+02  0.7816164E-02  0.1300439E+00
        -11   -1    0    0    0    0  0.00000000000E+00  0.00000000000E+00  0.45593999997E+02  0.45594000000E+02  0.51100000000E-03 0.  1.
         11   -1    0    0    0    0 -0.00000000000E+00 -0.00000000000E+00 -0.45593999997E+02  0.45594000000E+02  0.51100000000E-03 0. -1.
    9900012    2    1    2    0    0 -0.29347229373E+02  0.12624247669E+02 -0.25150232392E+02  0.50528859693E+02  0.29999999524E+02 0.  0.
        -12    1    1    2    0    0  0.29347229373E+02 -0.12624247669E+02  0.25150232392E+02  0.40659140307E+02  0.00000000000E+00 0.  1.
         11    1    3    3    0    0 -0.11240466354E+02  0.15393327684E+02 -0.25849817692E+02  0.32117218062E+02  0.51100000000E-03 0. -1.
        -11    1    3    3    0    0 -0.59781727610E+01 -0.20696485439E+00  0.63354297831E+00  0.60152108008E+01  0.51100000000E-03 0.  1.
         12    1    3    3    0    0 -0.12128590258E+02 -0.25621151609E+01  0.66042321761E-01  0.12396430831E+02  0.00000000000E+00 0. -1.
</event>
<event>
 7    1  0.5019004E-011  0.5052886E+02  0.7816164E-02  0.1300439E+00
        -11   -1    0    0    0    0  0.00000000000E+00  0.00000000000E+00  0.45593999997E+02  0.45594000000E+02  0.51100000000E-03 0. -1.
         11   -1    0    0    0    0 -0.00000000000E+00 -0.00000000000E+00 -0.45593999997E+02  0.45594000000E+02  0.51100000000E-03 0.  1.
    9900012    2    1    2    0    0 -0.10887586121E+02 -0.31863632521E+01  0.39044506943E+02  0.50528856321E+02  0.29999989272E+02 0.  0.
        -12    1    1    2    0    0  0.10887586121E+02  0.31863632521E+01 -0.39044506943E+02  0.40659143679E+02  0.00000000000E+00 0.  1.
         11    1    3    3    0    0 -0.16276940997E+00 -0.17024861735E+01  0.22331257007E+02  0.22396651376E+02  0.51100000000E-03 0. -1.
        -11    1    3    3    0    0 -0.49599011449E+01 -0.57069699833E+01 -0.22322569952E+01  0.78837235690E+01  0.51100000000E-03 0.  1.
        -12    1    3    3    0    0 -0.57649155666E+01  0.42230929047E+01  0.18945506931E+02  0.20248481376E+02  0.00000000000E+00 0.  1.
</event>
<event>
 7    1  0.5019004E-011  0.5052886E+02  0.7816164E-02  0.1300439E+00
        -11   -1    0    0    0    0  0.00000000000E+00  0.00000000000E+00  0.45593999997E+02  0.45594000000E+02  0.51100000000E-03 0.  1.
         11   -1    0    0    0    0 -0.00000000000E+00 -0.00000000000E+00 -0.45593999997E+02  0.45594000000E+02  0.51100000000E-03 0. -1.
    9900012    2    1    2    0    0  0.35892777738E+02 -0.12683616755E+02 -0.14282859053E+02  0.50528859693E+02  0.29999999524E+02 0.  0.
        -12    1    1    2    0    0 -0.35892777738E+02  0.12683616755E+02  0.14282859053E+02  0.40659140307E+02  0.00000000000E+00 0.  1.
         11    1    3    3    0    0  0.20513942953E+02  0.19900768397E+01 -0.73642929244E+01  0.21886412951E+02  0.51100000000E-03 0. -1.
        -11    1    3    3    0    0 -0.31061073457E+01 -0.46346418777E+01 -0.50486273446E+01  0.75243901084E+01  0.51100000000E-03 0.  1.
        -12    1    3    3    0    0  0.18484942131E+02 -0.10039051717E+02 -0.18699387839E+01  0.21118056634E+02  0.00000000000E+00 0.  1.
</event>
<event>
 7    1  0.5019004E-011  0.5052886E+02  0.7816164E-02  0.1300439E+00
        -11   -1    0    0    0    0  0.00000000000E+00  0.00000000000E+00  0.45593999997E+02  0.45594000000E+02  0.51100000000E-03 0. -1.
         11   -1    0    0    0    0 -0.00000000000E+00 -0.00000000000E+00 -0.45593999997E+02  0.45594000000E+02  0.51100000000E-03 0.  1.
    9900012    2    1    2    0    0  0.46568766230E+01  0.38106745672E+02  0.13392351908E+02  0.50528860127E+02  0.30000000843E+02 0.  0.
        -12    1    1    2    0    0 -0.46568766230E+01 -0.38106745672E+02 -0.13392351908E+02  0.40659139873E+02  0.00000000000E+00 0.  1.
         11    1    3    3    0    0 -0.62615633726E+01  0.41530378456E+01 -0.28798371502E+01  0.80466366569E+01  0.51100000000E-03 0. -1.
        -11    1    3    3    0    0  0.82781380445E+01  0.46616902148E+01  0.64153588933E+01  0.11463671102E+02  0.51100000000E-03 0.  1.
         12    1    3    3    0    0  0.26403019511E+01  0.29292017611E+02  0.98568301647E+01  0.31018552368E+02  0.00000000000E+00 0. -1.
</event>
<event>
 7    1  0.5019004E-011  0.5052886E+02  0.7816164E-02  0.1300439E+00
        -11   -1    0    0    0    0  0.00000000000E+00  0.00000000000E+00  0.45593999997E+02  0.45594000000E+02  0.51100000000E-03 0.  1.
         11   -1    0    0    0    0 -0.00000000000E+00 -0.00000000000E+00 -0.45593999997E+02  0.45594000000E+02  0.51100000000E-03 0. -1.
    9900012    2    1    2    0    0  0.15337928944E+02  0.32002719066E+02 -0.19842877022E+02  0.50528857604E+02  0.29999993173E+02 0.  0.
        -12    1    1    2    0    0 -0.15337928944E+02 -0.32002719066E+02  0.19842877022E+02  0.40659142396E+02  0.00000000000E+00 0.  1.
         11    1    3    3    0    0  0.10661518102E+02  0.24917674324E+02 -0.26656721692E+02  0.38014987487E+02  0.51100000000E-03 0. -1.
        -11    1    3    3    0    0  0.35172931044E+01  0.10321474714E+01  0.51505974931E+00  0.37016166727E+01  0.51100000000E-03 0.  1.
         12    1    3    3    0    0  0.11591177379E+01  0.60528972697E+01  0.62987849212E+01  0.88122534445E+01  0.00000000000E+00 0. -1.
</event>
<event>
 7    1  0.5019004E-011  0.5052886E+02  0.7816164E-02  0.1300439E+00
        -11   -1    0    0    0    0  0.00000000000E+00  0.00000000000E+00  0.45593999997E+02  0.45594000000E+02  0.51100000000E-03 0.  1.
         11   -1    0    0    0    0 -0.00000000000E+00 -0.00000000000E+00 -0.45593999997E+02  0.45594000000E+02  0.51100000000E-03 0. -1.
    9900012    2    1    2    0    0  0.24419027357E+01  0.38786484749E+02 -0.11950367685E+02  0.50528861102E+02  0.30000003806E+02 0.  0.
        -12    1    1    2    0    0 -0.24419027357E+01 -0.38786484749E+02  0.11950367685E+02  0.40659138898E+02  0.00000000000E+00 0.  1.
         11    1    3    3    0    0  0.98978713396E+01  0.17281451835E+02 -0.12995477483E+02  0.23780220139E+02  0.51100000000E-03 0. -1.
        -11    1    3    3    0    0 -0.65339194289E+01  0.15222120715E+01 -0.12899893885E+00  0.67101321657E+01  0.51100000000E-03 0.  1.
        -12    1    3    3    0    0 -0.92204917491E+00  0.19982820842E+02  0.11741087373E+01  0.20038508798E+02  0.00000000000E+00 0.  1.
</event>
<event>
 7    1  0.5215534E-011  0.5052886E+02  0.7816164E-02  0.1300439E+00
        -11   -1    0    0    0    0  0.00000000000E+00  0.00000000000E+00  0.45593999997E+02  0.45594000000E+02  0.51100000000E-03 0.  1.
         11   -1    0    0    0    0 -0.00000000000E+00 -0.00000000000E+00 -0.45593999997E+02  0.45594000000E+02  0.51100000000E-03 0. -1.
    9900012    2    1    2    0    0 -0.79084437554E+01  0.26868676715E+02 -0.29473656945E+02  0.50528859271E+02  0.29999998242E+02 0.  0.
        -12    1    1    2    0    0  0.79084437554E+01 -0.26868676715E+02  0.29473656945E+02  0.40659140729E+02  0.00000000000E+00 0.  1.
         11    1    3    3    0    0 -0.10429641188E+02  0.11555364411E+02 -0.23288808506E+02  0.28012005710E+02  0.51100000000E-03 0. -1.
        -11    1    3    3    0    0  0.27254600919E+01 -0.14946494555E+01  0.21254400693E+01  0.37655816890E+01  0.51100000000E-03 0.  1.
         12    1    3    3    0    0 -0.20426265886E+00  0.16807961759E+02 -0.83102885084E+01  0.18751271872E+02  0.00000000000E+00 0. -1.
</event>
<event>
 7    1  0.5019004E-011  0.5052884E+02  0.7816164E-02  0.1300439E+00
        -11   -1    0    0    0    0  0.00000000000E+00  0.00000000000E+00  0.45593999997E+02  0.45594000000E+02  0.51100000000E-03 0. -1.
         11   -1    0    0    0    0 -0.00000000000E+00 -0.00000000000E+00 -0.45593999997E+02  0.45594000000E+02  0.51100000000E-03 0.  1.
    9900012    2    1    2    0    0 -0.21743767806E+02  0.26423756801E+02  0.21958159983E+02  0.50528841723E+02  0.29999944902E+02 0.  0.
        -12    1    1    2    0    0  0.21743767806E+02 -0.26423756801E+02 -0.21958159983E+02  0.40659158277E+02  0.00000000000E+00 0.  1.
         11    1    3    3    0    0 -0.20829851950E+02  0.63979676329E+01  0.16144146040E+02  0.27119184607E+02  0.51100000000E-03 0. -1.
        -11    1    3    3    0    0  0.77002995322E+00  0.18236770264E+01 -0.26152255075E+01  0.32799616982E+01  0.51100000000E-03 0.  1.
         12    1    3    3    0    0 -0.16839458093E+01  0.18202112142E+02  0.84292394504E+01  0.20129695418E+02  0.00000000000E+00 0. -1.
</event>
<event>
 7    1  0.5019004E-011  0.5052886E+02  0.7816164E-02  0.1300439E+00
        -11   -1    0    0    0    0  0.00000000000E+00  0.00000000000E+00  0.45593999997E+02  0.45594000000E+02  0.51100000000E-03 0. -1.
         11   -1    0    0    0    0 -0.00000000000E+00 -0.00000000000E+00 -0.45593999997E+02  0.45594000000E+02  0.51100000000E-03 0.  1.
    9900012    2    1    2    0    0  0.25759997326E+02 -0.24106360331E+02  0.20210683561E+02  0.50528858338E+02  0.29999995405E+02 0.  0.
        -12    1    1    2    0    0 -0.25759997326E+02  0.24106360331E+02 -0.20210683561E+02  0.40659141662E+02  0.00000000000E+00 0.  1.
         11    1    3    3    0    0  0.23971793780E+02 -0.24025732216E+02  0.17009646793E+02  0.37963282127E+02  0.51100000000E-03 0. -1.
        -11    1    3    3    0    0  0.14491452653E+01  0.31907559858E+01  0.68247365436E+01  0.76718951317E+01  0.51100000000E-03 0.  1.
        -12    1    3    3    0    0  0.33905828105E+00 -0.32713841003E+01 -0.36236997752E+01  0.48936810798E+01  0.00000000000E+00 0.  1.
</event>
<event>
 7    1  0.5019004E-011  0.5052885E+02  0.7816164E-02  0.1300439E+00
        -11   -1    0    0    0    0  0.00000000000E+00  0.00000000000E+00  0.45593999997E+02  0.45594000000E+02  0.51100000000E-03 0.  1.
         11   -1    0    0    0    0 -0.00000000000E+00 -0.00000000000E+00 -0.45593999997E+02  0.45594000000E+02  0.51100000000E-03 0. -1.
    9900012    2    1    2    0    0 -0.28951907226E+01  0.29228727600E+02 -0.28115217990E+02  0.50528854300E+02  0.29999983131E+02 0.  0.
        -12    1    1    2    0    0  0.28951907226E+01 -0.29228727600E+02  0.28115217990E+02  0.40659145700E+02  0.00000000000E+00 0.  1.
         11    1    3    3    0    0  0.20629818471E+00  0.36760826144E+01 -0.39453437901E+01  0.53964692357E+01  0.51100000000E-03 0. -1.
        -11    1    3    3    0    0  0.96967697537E+01  0.18296584940E+02 -0.22083117466E+02  0.30273031586E+02  0.51100000000E-03 0.  1.
        -12    1    3    3    0    0 -0.12798258661E+02  0.72560600454E+01 -0.20867567332E+01  0.14859353479E+02  0.00000000000E+00 0.  1.
</event>
<event>
 7    1  0.5019004E-011  0.5052886E+02  0.7816164E-02  0.1300439E+00
        -11   -1    0    0    0    0  0.00000000000E+00  0.00000000000E+00  0.45593999997E+02  0.45594000000E+02  0.51100000000E-03 0. -1.
         11   -1    0    0    0    0 -0.00000000000E+00 -0.00000000000E+00 -0.45593999997E+02  0.45594000000E+02  0.51100000000E-03 0.  1.
    9900012    2    1    2    0    0  0.38937305421E+02  0.45982539973E+01  0.10766053602E+02  0.50528860764E+02  0.30000002777E+02 0.  0.
        -12    1    1    2    0    0 -0.38937305421E+02 -0.45982539973E+01 -0.10766053602E+02  0.40659139236E+02  0.00000000000E+00 0.  1.
         11    1    3    3    0    0  0.17120646259E+02  0.15421117642E+01  0.60792221952E+00  0.17200703669E+02  0.51100000000E-03 0. -1.
        -11    1    3    3    0    0 -0.44815964990E+01  0.30222310186E+01  0.23592077651E+01  0.58978342678E+01  0.51100000000E-03 0.  1.
        -12    1    3    3    0    0  0.26298255661E+02  0.33911214546E-01  0.77989236175E+01  0.27430322827E+02  0.00000000000E+00 0.  1.
</event>
<event>
 7    1  0.5019004E-011  0.5052886E+02  0.7816164E-02  0.1300439E+00
        -11   -1    0    0    0    0  0.00000000000E+00  0.00000000000E+00  0.45593999997E+02  0.45594000000E+02  0.51100000000E-03 0.  1.
         11   -1    0    0    0    0 -0.00000000000E+00 -0.00000000000E+00 -0.45593999997E+02  0.45594000000E+02  0.51100000000E-03 0. -1.
    9900012    2    1    2    0    0  0.23525938251E+02 -0.24982511600E+02 -0.21807560321E+02  0.50528863959E+02  0.30000012490E+02 0.  0.
        -12    1    1    2    0    0 -0.23525938251E+02  0.24982511600E+02  0.21807560321E+02  0.40659136041E+02  0.00000000000E+00 0.  1.
         11    1    3    3    0    0  0.79639269071E+01  0.26023781041E-01 -0.12820594262E+02  0.15092794523E+02  0.51100000000E-03 0. -1.
        -11    1    3    3    0    0  0.28350056515E+01 -0.89133328037E+01  0.49974835658E+01  0.10604697118E+02  0.51100000000E-03 0.  1.
         12    1    3    3    0    0  0.12727005692E+02 -0.16095202578E+02 -0.13984449625E+02  0.24831372318E+02  0.00000000000E+00 0. -1.
</event>
<event>
 7    1  0.5019004E-011  0.5052886E+02  0.7816164E-02  0.1300439E+00
        -11   -1    0    0    0    0  0.00000000000E+00  0.00000000000E+00  0.45593999997E+02  0.45594000000E+02  0.51100000000E-03 0.  1.
         11   -1    0    0    0    0 -0.00000000000E+00 -0.00000000000E+00 -0.45593999997E+02  0.45594000000E+02  0.51100000000E-03 0. -1.
    9900012    2    1    2    0    0  0.27846017280E+02  0.29586473013E+02 -0.15510899458E+01  0.50528856579E+02  0.29999990059E+02 0.  0.
        -12    1    1    2    0    0 -0.27846017280E+02 -0.29586473013E+02  0.15510899458E+01  0.40659143421E+02  0.00000000000E+00 0.  1.
         11    1    3    3    0    0  0.14334412500E+02  0.15788444326E+02 -0.17813693693E+01  0.21399150288E+02  0.51100000000E-03 0. -1.
        -11    1    3    3    0    0  0.78743894152E+01 -0.51124060504E+01 -0.23629389926E+00  0.93914077408E+01  0.51100000000E-03 0.  1.
        -12    1    3    3    0    0  0.56372153650E+01  0.18910434737E+02  0.46657332276E+00  0.19738298551E+02  0.00000000000E+00 0.  1.
</event>
<event>
 7    1  0.5019004E-011  0.5052886E+02  0.7816164E-02  0.1300439E+00
        -11   -1    0    0    0    0  0.00000000000E+00  0.00000000000E+00  0.45593999997E+02  0.45594000000E+02  0.51100000000E-03 0.  1.
         11   -1    0    0    0    0 -0.00000000000E+00 -0.00000000000E+00 -0.45593999997E+02  0.45594000000E+02  0.51100000000E-03 0. -1.
    9900012    2    1    2    0    0 -0.24431095813E+01 -0.39272177835E+02 -0.10241726212E+02  0.50528859673E+02  0.29999999463E+02 0.  0.
        -12    1    1    2    0    0  0.24431095813E+01  0.39272177835E+02  0.10241726212E+02  0.40659140327E+02  0.00000000000E+00 0.  1.
         11    1    3    3    0    0  0.41280161492E+01 -0.38801821535E+02 -0.12204807644E+01  0.39039869945E+02  0.51100000000E-03 0. -1.
        -11    1    3    3    0    0 -0.40109743151E+01 -0.57954248236E+00 -0.74561909800E+01  0.84863754711E+01  0.51100000000E-03 0.  1.
         12    1    3    3    0    0 -0.25601514154E+01  0.10918618241E+00 -0.15650544680E+01  0.30026142576E+01  0.00000000000E+00 0. -1.
</event>
<event>
 7    1  0.5019004E-011  0.5052886E+02  0.7816164E-02  0.1300439E+00
        -11   -1    0    0    0    0  0.00000000000E+00  0.00000000000E+00  0.45593999997E+02  0.45594000000E+02  0.51100000000E-03 0. -1.
         11   -1    0    0    0    0 -0.00000000000E+00 -0.00000000000E+00 -0.45593999997E+02  0.45594000000E+02  0.51100000000E-03 0.  1.
    9900012    2    1    2    0    0 -0.99094891399E+01  0.25476283505E+02  0.30098619283E+02  0.50528857375E+02  0.29999992476E+02 0.  0.
        -12    1    1    2    0    0  0.99094891399E+01 -0.25476283505E+02 -0.30098619283E+02  0.40659142625E+02  0.00000000000E+00 0.  1.
         11    1    3    3    0    0 -0.52985405383E+01  0.29130968768E+02  0.21143465822E+02  0.36383155724E+02  0.51100000000E-03 0. -1.
        -11    1    3    3    0    0  0.22552318025E+01 -0.19595941662E+01  0.35136501927E+00  0.30082449065E+01  0.51100000000E-03 0.  1.
         12    1    3    3    0    0 -0.68661804041E+01 -0.16950910968E+01  0.86037884420E+01  0.11137456744E+02  0.00000000000E+00 0. -1.
</event>
<event>
 7    1  0.5019004E-011  0.5052885E+02  0.7816164E-02  0.1300439E+00
        -11   -1    0    0    0    0  0.00000000000E+00  0.00000000000E+00  0.45593999997E+02  0.45594000000E+02  0.51100000000E-03 0. -1.
         11   -1    0    0    0    0 -0.00000000000E+00 -0.00000000000E+00 -0.45593999997E+02  0.45594000000E+02  0.51100000000E-03 0.  1.
    9900012    2    1    2    0    0 -0.79588350967E+00 -0.29090765896E+02  0.28394723653E+02  0.50528850694E+02  0.29999972169E+02 0.  0.
        -12    1    1    2    0    0  0.79588350967E+00  0.29090765896E+02 -0.28394723653E+02  0.40659149306E+02  0.00000000000E+00 0.  1.
         11    1    3    3    0    0 -0.16880560487E+01  0.54982287790E+01  0.17263306442E+01  0.60050204566E+01  0.51100000000E-03 0. -1.
        -11    1    3    3    0    0 -0.12751795615E+01 -0.96088794375E+01  0.32744391701E+01  0.10231255988E+02  0.51100000000E-03 0.  1.
         12    1    3    3    0    0  0.21673521005E+01 -0.24980115237E+02  0.23393953839E+02  0.34292574249E+02  0.00000000000E+00 0. -1.
</event>
<event>
 7    1  0.5019004E-011  0.5052886E+02  0.7816164E-02  0.1300439E+00
        -11   -1    0    0    0    0  0.00000000000E+00  0.00000000000E+00  0.45593999997E+02  0.45594000000E+02  0.51100000000E-03 0.  1.
         11   -1    0    0    0    0 -0.00000000000E+00 -0.00000000000E+00 -0.45593999997E+02  0.45594000000E+02  0.51100000000E-03 0. -1.
    9900012    2    1    2    0    0 -0.36086899105E+02 -0.16336570674E+02 -0.91661339019E+01  0.50528857866E+02  0.29999993969E+02 0.  0.
        -12    1    1    2    0    0  0.36086899105E+02  0.16336570674E+02  0.91661339019E+01  0.40659142134E+02  0.00000000000E+00 0.  1.
         11    1    3    3    0    0 -0.19379101337E+02 -0.66955763046E+01 -0.13500897120E+02  0.24549023076E+02  0.51100000000E-03 0. -1.
        -11    1    3    3    0    0 -0.22325960578E+01 -0.10823243706E+02  0.26031660967E+01  0.11353570516E+02  0.51100000000E-03 0.  1.
        -12    1    3    3    0    0 -0.14475201710E+02  0.11822493361E+01  0.17315971210E+01  0.14626264274E+02  0.00000000000E+00 0.  1.
</event>
<event>
 7    1  0.5019004E-011  0.5052886E+02  0.7816164E-02  0.1300439E+00
        -11   -1    0    0    0    0  0.00000000000E+00  0.00000000000E+00  0.45593999997E+02  0.45594000000E+02  0.51100000000E-03 0.  1.
         11   -1    0    0    0    0 -0.00000000000E+00 -0.00000000000E+00 -0.45593999997E+02  0.45594000000E+02  0.51100000000E-03 0. -1.
    9900012    2    1    2    0    0  0.63063117752E+01 -0.12437213950E+02 -0.38193080820E+02  0.50528864721E+02  0.30000014807E+02 0.  0.
        -12    1    1    2    0    0 -0.63063117752E+01  0.12437213950E+02  0.38193080820E+02  0.40659135279E+02  0.00000000000E+00 0.  1.
         11    1    3    3    0    0 -0.22426365726E+01  0.12915064226E+01  0.18111062226E-01  0.25879984366E+01  0.51100000000E-03 0. -1.
        -11    1    3    3    0    0  0.47151953233E+01 -0.20110174160E+02 -0.22430142689E+02  0.30492023104E+02  0.51100000000E-03 0.  1.
        -12    1    3    3    0    0  0.38337530245E+01  0.63814537870E+01 -0.15781049193E+02  0.17448843180E+02  0.00000000000E+00 0.  1.
</event>
<event>
 7    1  0.5019004E-011  0.5052881E+02  0.7816164E-02  0.1300439E+00
        -11   -1    0    0    0    0  0.00000000000E+00  0.00000000000E+00  0.45593999997E+02  0.45594000000E+02  0.51100000000E-03 0. -1.
         11   -1    0    0    0    0 -0.00000000000E+00 -0.00000000000E+00 -0.45593999997E+02  0.45594000000E+02  0.51100000000E-03 0.  1.
    9900012    2    1    2    0    0 -0.32975028616E+02  0.24221793408E+01  0.23663263148E+02  0.50528812996E+02  0.29999857584E+02 0.  0.
        -12    1    1    2    0    0  0.32975028616E+02 -0.24221793408E+01 -0.23663263148E+02  0.40659187004E+02  0.00000000000E+00 0.  1.
         11    1    3    3    0    0 -0.70058013613E+01 -0.59799093814E+01  0.17509898444E+01  0.93758484747E+01  0.51100000000E-03 0. -1.
        -11    1    3    3    0    0 -0.29648738526E+02  0.88405755180E+01  0.20812793854E+02  0.37287744098E+02  0.51100000000E-03 0.  1.
        -12    1    3    3    0    0  0.36795112711E+01 -0.43848679578E+00  0.10994794497E+01  0.38652204238E+01  0.00000000000E+00 0.  1.
</event>
<event>
 7    1  0.5019004E-011  0.5052885E+02  0.7816164E-02  0.1300439E+00
        -11   -1    0    0    0    0  0.00000000000E+00  0.00000000000E+00  0.45593999997E+02  0.45594000000E+02  0.51100000000E-03 0. -1.
         11   -1    0    0    0    0 -0.00000000000E+00 -0.00000000000E+00 -0.45593999997E+02  0.45594000000E+02  0.51100000000E-03 0.  1.
    9900012    2    1    2    0    0  0.28987140739E+02 -0.10466806440E+02  0.26520896276E+02  0.50528852142E+02  0.29999976571E+02 0.  0.
        -12    1    1    2    0    0 -0.28987140739E+02  0.10466806440E+02 -0.26520896276E+02  0.40659147858E+02  0.00000000000E+00 0.  1.
         11    1    3    3    0    0  0.13774317903E+02 -0.14770192818E+02  0.22737575943E+02  0.30411967868E+02  0.51100000000E-03 0. -1.
        -11    1    3    3    0    0  0.16643789998E+02  0.50137348182E+01  0.50241105466E+01  0.18094058953E+02  0.51100000000E-03 0.  1.
         12    1    3    3    0    0 -0.14309671628E+01 -0.71034843967E+00 -0.12407902133E+01  0.20228253212E+01  0.00000000000E+00 0. -1.
</event>
<event>
 7    1  0.5019004E-011  0.5052887E+02  0.7816164E-02  0.1300439E+00
        -11   -1    0    0    0    0  0.00000000000E+00  0.00000000000E+00  0.45593999997E+02  0.45594000000E+02  0.51100000000E-03 0. -1.
         11   -1    0    0    0    0 -0.00000000000E+00 -0.00000000000E+00 -0.45593999997E+02  0.45594000000E+02  0.51100000000E-03 0.  1.
    9900012    2    1    2    0    0  0.70393738480E+01 -0.39940700993E+02 -0.28901243297E+01  0.50528865742E+02  0.30000017910E+02 0.  0.
        -12    1    1    2    0    0 -0.70393738480E+01  0.39940700993E+02  0.28901243297E+01  0.40659134258E+02  0.00000000000E+00 0.  1.
         11    1    3    3    0    0  0.75335493022E+01 -0.52538783143E+00  0.44785103349E+01  0.87799460444E+01  0.51100000000E-03 0. -1.
        -11    1    3    3    0    0 -0.12373824958E+01 -0.24895105238E+02  0.10505807264E+01  0.24947967860E+02  0.51100000000E-03 0.  1.
         12    1    3    3    0    0  0.74320704161E+00 -0.14520207923E+02 -0.84192153910E+01  0.16800951837E+02  0.00000000000E+00 0. -1.
</event>
<event>
 7    1  0.5019004E-011  0.5052886E+02  0.7816164E-02  0.1300439E+00
        -11   -1    0    0    0    0  0.00000000000E+00  0.00000000000E+00  0.45593999997E+02  0.45594000000E+02  0.51100000000E-03 0. -1.
         11   -1    0    0    0    0 -0.00000000000E+00 -0.00000000000E+00 -0.45593999997E+02  0.45594000000E+02  0.51100000000E-03 0.  1.
    9900012    2    1    2    0    0 -0.52154581755E+01 -0.32890072328E+02  0.23328266366E+02  0.50528857444E+02  0.29999992687E+02 0.  0.
        -12    1    1    2    0    0  0.52154581755E+01  0.32890072328E+02 -0.23328266366E+02  0.40659142556E+02  0.00000000000E+00 0.  1.
         11    1    3    3    0    0 -0.10568349296E+02 -0.19179077455E+02  0.89883660306E+00  0.21916544580E+02  0.51100000000E-03 0. -1.
        -11    1    3    3    0    0  0.79620021238E+01 -0.81687552346E+01  0.16705329555E+02  0.20228447190E+02  0.51100000000E-03 0.  1.
         12    1    3    3    0    0 -0.26091110034E+01 -0.55422396390E+01  0.57241002081E+01  0.83838656738E+01  0.00000000000E+00 0. -1.
</event>
<event>
 7    1  0.5019004E-011  0.5052886E+02  0.7816164E-02  0.1300439E+00
        -11   -1    0    0    0    0  0.00000000000E+00  0.00000000000E+00  0.45593999997E+02  0.45594000000E+02  0.51100000000E-03 0.  1.
         11   -1    0    0    0    0 -0.00000000000E+00 -0.00000000000E+00 -0.45593999997E+02  0.45594000000E+02  0.51100000000E-03 0. -1.
    9900012    2    1    2    0    0  0.26612383922E+02 -0.29532415133E+01 -0.30597795227E+02  0.50528859746E+02  0.29999999685E+02 0.  0.
        -12    1    1    2    0    0 -0.26612383922E+02  0.29532415133E+01  0.30597795227E+02  0.40659140254E+02  0.00000000000E+00 0.  1.
         11    1    3    3    0    0  0.84216533494E+01 -0.14128983257E+00 -0.18407456162E+01  0.86216328290E+01  0.51100000000E-03 0. -1.
        -11    1    3    3    0    0  0.71380649069E+01  0.17306459649E+01 -0.29039677801E+02  0.29954131486E+02  0.51100000000E-03 0.  1.
        -12    1    3    3    0    0  0.11052665666E+02 -0.45425976457E+01  0.28262819032E+00  0.11953095431E+02  0.00000000000E+00 0.  1.
</event>
<event>
 7    1  0.5019004E-011  0.5052886E+02  0.7816164E-02  0.1300439E+00
        -11   -1    0    0    0    0  0.00000000000E+00  0.00000000000E+00  0.45593999997E+02  0.45594000000E+02  0.51100000000E-03 0.  1.
         11   -1    0    0    0    0 -0.00000000000E+00 -0.00000000000E+00 -0.45593999997E+02  0.45594000000E+02  0.51100000000E-03 0. -1.
    9900012    2    1    2    0    0 -0.65212855253E+01  0.23758034657E+02 -0.32344929194E+02  0.50528858098E+02  0.29999994674E+02 0.  0.
        -12    1    1    2    0    0  0.65212855253E+01 -0.23758034657E+02  0.32344929194E+02  0.40659141902E+02  0.00000000000E+00 0.  1.
         11    1    3    3    0    0 -0.11275835024E+02  0.21546875145E+02 -0.96987587523E+01  0.26181638711E+02  0.51100000000E-03 0. -1.
        -11    1    3    3    0    0  0.66910053824E+01  0.20347503495E+01 -0.17966120961E+02  0.19279296270E+02  0.51100000000E-03 0.  1.
        -12    1    3    3    0    0 -0.19364558833E+01  0.17640916294E+00 -0.46800494802E+01  0.50679231168E+01  0.00000000000E+00 0.  1.
</event>
<event>
 7    1  0.5019004E-011  0.5052887E+02  0.7816164E-02  0.1300439E+00
        -11   -1    0    0    0    0  0.00000000000E+00  0.00000000000E+00  0.45593999997E+02  0.45594000000E+02  0.51100000000E-03 0.  1.
         11   -1    0    0    0    0 -0.00000000000E+00 -0.00000000000E+00 -0.45593999997E+02  0.45594000000E+02  0.51100000000E-03 0. -1.
    9900012    2    1    2    0    0  0.12238168077E+02 -0.19767183969E+02 -0.33356413444E+02  0.50528872639E+02  0.30000038873E+02 0.  0.
        -12    1    1    2    0    0 -0.12238168077E+02  0.19767183969E+02  0.33356413444E+02  0.40659127361E+02  0.00000000000E+00 0.  1.
         11    1    3    3    0    0  0.69850870772E+01 -0.22762419869E+02 -0.33335272139E+02  0.40965345948E+02  0.51100000000E-03 0. -1.
        -11    1    3    3    0    0 -0.34762755083E+00 -0.27967018651E-01  0.26415148255E+01  0.26644376335E+01  0.51100000000E-03 0.  1.
         12    1    3    3    0    0  0.56007085504E+01  0.30232029189E+01 -0.26626561301E+01  0.68990890575E+01  0.00000000000E+00 0. -1.
</event>
<event>
 7    1  0.5019004E-011  0.5052891E+02  0.7816164E-02  0.1300439E+00
        -11   -1    0    0    0    0  0.00000000000E+00  0.00000000000E+00  0.45593999997E+02  0.45594000000E+02  0.51100000000E-03 0. -1.
         11   -1    0    0    0    0 -0.00000000000E+00 -0.00000000000E+00 -0.45593999997E+02  0.45594000000E+02  0.51100000000E-03 0.  1.
    9900012    2    1    2    0    0  0.30759528121E+01  0.24279482879E+02  0.32468554952E+02  0.50528907103E+02  0.30000143630E+02 0.  0.
        -12    1    1    2    0    0 -0.30759528121E+01 -0.24279482879E+02 -0.32468554952E+02  0.40659092897E+02  0.00000000000E+00 0.  1.
         11    1    3    3    0    0  0.13054159271E+02  0.14706977414E+02  0.13573812766E+02  0.23894657399E+02  0.51100000000E-03 0. -1.
        -11    1    3    3    0    0 -0.66804385348E+01  0.10914606473E+02  0.19185856533E+02  0.23061959688E+02  0.51100000000E-03 0.  1.
         12    1    3    3    0    0 -0.32977679244E+01 -0.13421010077E+01 -0.29111434784E+00  0.35722900165E+01  0.00000000000E+00 0. -1.
</event>
<event>
 7    1  0.5019004E-011  0.5052886E+02  0.7816164E-02  0.1300439E+00
        -11   -1    0    0    0    0  0.00000000000E+00  0.00000000000E+00  0.45593999997E+02  0.45594000000E+02  0.51100000000E-03 0.  1.
         11   -1    0    0    0    0 -0.00000000000E+00 -0.00000000000E+00 -0.45593999997E+02  0.45594000000E+02  0.51100000000E-03 0. -1.
    9900012    2    1    2    0    0  0.23122232420E+02 -0.26135765376E+02 -0.20867428785E+02  0.50528862675E+02  0.30000008588E+02 0.  0.
        -12    1    1    2    0    0 -0.23122232420E+02  0.26135765376E+02  0.20867428785E+02  0.40659137325E+02  0.00000000000E+00 0.  1.
         11    1    3    3    0    0  0.23963174935E+02 -0.28121499687E+02 -0.20435253343E+02  0.42221464649E+02  0.51100000000E-03 0. -1.
        -11    1    3    3    0    0  0.27275448147E+01  0.75822830716E-01  0.21780226164E+01  0.34912795071E+01  0.51100000000E-03 0.  1.
         12    1    3    3    0    0 -0.35684873300E+01  0.19099114807E+01 -0.26101980588E+01  0.48161185196E+01  0.00000000000E+00 0. -1.
</event>
<event>
 7    1  0.5179663E-011  0.5052887E+02  0.7816164E-02  0.1300439E+00
        -11   -1    0    0    0    0  0.00000000000E+00  0.00000000000E+00  0.45593999997E+02  0.45594000000E+02  0.51100000000E-03 0. -1.
         11   -1    0    0    0    0 -0.00000000000E+00 -0.00000000000E+00 -0.45593999997E+02  0.45594000000E+02  0.51100000000E-03 0.  1.
    9900012    2    1    2    0    0  0.19904667032E+02 -0.59141522952E+01  0.34957004964E+02  0.50528866179E+02  0.30000019236E+02 0.  0.
        -12    1    1    2    0    0 -0.19904667032E+02  0.59141522952E+01 -0.34957004964E+02  0.40659133821E+02  0.00000000000E+00 0.  1.
         11    1    3    3    0    0  0.34053349062E+00 -0.94553803231E+01  0.23672327467E+02  0.25493121976E+02  0.51100000000E-03 0. -1.
        -11    1    3    3    0    0  0.50796639606E+01 -0.15968521722E+01 -0.92853261921E+00  0.54050990647E+01  0.51100000000E-03 0.  1.
         12    1    3    3    0    0  0.14484469581E+02  0.51380802001E+01  0.12213210117E+02  0.19630645138E+02  0.00000000000E+00 0. -1.
</event>
<event>
 7    1  0.5019004E-011  0.5052885E+02  0.7816164E-02  0.1300439E+00
        -11   -1    0    0    0    0  0.00000000000E+00  0.00000000000E+00  0.45593999997E+02  0.45594000000E+02  0.51100000000E-03 0.  1.
         11   -1    0    0    0    0 -0.00000000000E+00 -0.00000000000E+00 -0.45593999997E+02  0.45594000000E+02  0.51100000000E-03 0. -1.
    9900012    2    1    2    0    0 -0.77227357887E+01  0.26621227335E+02 -0.29746190944E+02  0.50528852584E+02  0.29999977916E+02 0.  0.
        -12    1    1    2    0    0  0.77227357887E+01 -0.26621227335E+02  0.29746190944E+02  0.40659147416E+02  0.00000000000E+00 0.  1.
         11    1    3    3    0    0 -0.54216950467E+01  0.27373572801E+02 -0.28988086283E+02  0.40237003016E+02  0.51100000000E-03 0. -1.
        -11    1    3    3    0    0 -0.31616694591E+01  0.11039727739E+00 -0.49787307148E+01  0.58988220111E+01  0.51100000000E-03 0.  1.
         12    1    3    3    0    0  0.86062871706E+00 -0.86274274355E+00  0.42206260542E+01  0.43930275573E+01  0.00000000000E+00 0. -1.
</event>
<event>
 7    1  0.5019004E-011  0.5052886E+02  0.7816164E-02  0.1300439E+00
        -11   -1    0    0    0    0  0.00000000000E+00  0.00000000000E+00  0.45593999997E+02  0.45594000000E+02  0.51100000000E-03 0. -1.
         11   -1    0    0    0    0 -0.00000000000E+00 -0.00000000000E+00 -0.45593999997E+02  0.45594000000E+02  0.51100000000E-03 0.  1.
    9900012    2    1    2    0    0  0.47716879891E+01  0.40355073004E+02  0.13655614814E+01  0.50528859803E+02  0.29999999856E+02 0.  0.
        -12    1    1    2    0    0 -0.47716879891E+01 -0.40355073004E+02 -0.13655614814E+01  0.40659140197E+02  0.00000000000E+00 0.  1.
         11    1    3    3    0    0 -0.11560480887E+02  0.21467023885E+02  0.11486676951E+01  0.24408958818E+02  0.51100000000E-03 0. -1.
        -11    1    3    3    0    0  0.73631252139E+01  0.42850126278E+01  0.23826749247E+01  0.88461339688E+01  0.51100000000E-03 0.  1.
         12    1    3    3    0    0  0.89690436627E+01  0.14603036491E+02 -0.21657811385E+01  0.17273767016E+02  0.00000000000E+00 0. -1.
</event>
<event>
 7    1  0.5019004E-011  0.5052888E+02  0.7816164E-02  0.1300439E+00
        -11   -1    0    0    0    0  0.00000000000E+00  0.00000000000E+00  0.45593999997E+02  0.45594000000E+02  0.51100000000E-03 0.  1.
         11   -1    0    0    0    0 -0.00000000000E+00 -0.00000000000E+00 -0.45593999997E+02  0.45594000000E+02  0.51100000000E-03 0. -1.
    9900012    2    1    2    0    0 -0.15191936661E+02  0.21985376661E+02 -0.30643302698E+02  0.50528883843E+02  0.30000072930E+02 0.  0.
        -12    1    1    2    0    0  0.15191936661E+02 -0.21985376661E+02  0.30643302698E+02  0.40659116157E+02  0.00000000000E+00 0.  1.
         11    1    3    3    0    0  0.24883329967E+01  0.15414323273E+02 -0.50371556189E+01  0.16406282335E+02  0.51100000000E-03 0. -1.
        -11    1    3    3    0    0 -0.17185925096E+02  0.12881491866E+01 -0.19064493444E+02  0.25699615955E+02  0.51100000000E-03 0.  1.
        -12    1    3    3    0    0 -0.49434456221E+00  0.52829042011E+01 -0.65416536351E+01  0.84229855530E+01  0.00000000000E+00 0.  1.
</event>
<event>
 7    1  0.5019004E-011  0.5052886E+02  0.7816164E-02  0.1300439E+00
        -11   -1    0    0    0    0  0.00000000000E+00  0.00000000000E+00  0.45593999997E+02  0.45594000000E+02  0.51100000000E-03 0.  1.
         11   -1    0    0    0    0 -0.00000000000E+00 -0.00000000000E+00 -0.45593999997E+02  0.45594000000E+02  0.51100000000E-03 0. -1.
    9900012    2    1    2    0    0  0.91702586471E+00  0.87120842547E+01 -0.39704211117E+02  0.50528859220E+02  0.29999998087E+02 0.  0.
        -12    1    1    2    0    0 -0.91702586471E+00 -0.87120842547E+01  0.39704211117E+02  0.40659140780E+02  0.00000000000E+00 0.  1.
         11    1    3    3    0    0  0.46220200085E+01  0.61110493591E+01 -0.20149696528E+02  0.21557325058E+02  0.51100000000E-03 0. -1.
        -11    1    3    3    0    0 -0.44308948824E+01 -0.24298237614E+01  0.29828601663E+01  0.58680770277E+01  0.51100000000E-03 0.  1.
        -12    1    3    3    0    0  0.72590073865E+00  0.50308586571E+01 -0.22537374755E+02  0.23103457134E+02  0.00000000000E+00 0.  1.
</event>
<event>
 7    1  0.5019004E-011  0.5052887E+02  0.7816164E-02  0.1300439E+00
        -11   -1    0    0    0    0  0.00000000000E+00  0.00000000000E+00  0.45593999997E+02  0.45594000000E+02  0.51100000000E-03 0. -1.
         11   -1    0    0    0    0 -0.00000000000E+00 -0.00000000000E+00 -0.45593999997E+02  0.45594000000E+02  0.51100000000E-03 0.  1.
    9900012    2    1    2    0    0  0.46292018520E+01 -0.71310301349E+01  0.39760327795E+02  0.50528871051E+02  0.30000034045E+02 0.  0.
        -12    1    1    2    0    0 -0.46292018520E+01  0.71310301349E+01 -0.39760327795E+02  0.40659128949E+02  0.00000000000E+00 0.  1.
         11    1    3    3    0    0  0.19184990275E+01  0.43805625259E+01  0.17702863708E+02  0.18337430308E+02  0.51100000000E-03 0. -1.
        -11    1    3    3    0    0 -0.84454368471E+01 -0.33974936411E+01  0.54814239373E+01  0.10626117599E+02  0.51100000000E-03 0.  1.
         12    1    3    3    0    0  0.11156139672E+02 -0.81140990196E+01  0.16576040150E+02  0.21565323144E+02  0.00000000000E+00 0. -1.
</event>
<event>
 7    1  0.5019004E-011  0.5052881E+02  0.7816164E-02  0.1300439E+00
        -11   -1    0    0    0    0  0.00000000000E+00  0.00000000000E+00  0.45593999997E+02  0.45594000000E+02  0.51100000000E-03 0. -1.
         11   -1    0    0    0    0 -0.00000000000E+00 -0.00000000000E+00 -0.45593999997E+02  0.45594000000E+02  0.51100000000E-03 0.  1.
    9900012    2    1    2    0    0 -0.30293434455E+02  0.24302649544E+02 -0.12035743514E+02  0.50528805863E+02  0.29999835899E+02 0.  0.
        -12    1    1    2    0    0  0.30293434455E+02 -0.24302649544E+02  0.12035743514E+02  0.40659194137E+02  0.00000000000E+00 0.  1.
         11    1    3    3    0    0 -0.17409820096E+02  0.18968057778E+02 -0.92638925902E+01  0.27362542971E+02  0.51100000000E-03 0. -1.
        -11    1    3    3    0    0  0.47170534717E+01  0.47799582900E+00 -0.61097180483E+00  0.47804142367E+01  0.51100000000E-03 0.  1.
         12    1    3    3    0    0 -0.17600667831E+02  0.48565959370E+01 -0.21608791191E+01  0.18385848655E+02  0.00000000000E+00 0. -1.
</event>
<event>
 7    1  0.5019004E-011  0.5052887E+02  0.7816164E-02  0.1300439E+00
        -11   -1    0    0    0    0  0.00000000000E+00  0.00000000000E+00  0.45593999997E+02  0.45594000000E+02  0.51100000000E-03 0.  1.
         11   -1    0    0    0    0 -0.00000000000E+00 -0.00000000000E+00 -0.45593999997E+02  0.45594000000E+02  0.51100000000E-03 0. -1.
    9900012    2    1    2    0    0 -0.29260568998E+02 -0.16479369386E+02 -0.22921914116E+02  0.50528872363E+02  0.30000038034E+02 0.  0.
        -12    1    1    2    0    0  0.29260568998E+02  0.16479369386E+02  0.22921914116E+02  0.40659127637E+02  0.00000000000E+00 0.  1.
         11    1    3    3    0    0 -0.19211571413E+02 -0.20490820238E+02 -0.15029576211E+02  0.31856653176E+02  0.51100000000E-03 0. -1.
        -11    1    3    3    0    0  0.13951024024E+01  0.51891499670E+01 -0.18909124932E+01  0.56964145224E+01  0.51100000000E-03 0.  1.
        -12    1    3    3    0    0 -0.11444099988E+02 -0.11776991147E+01 -0.60014254113E+01  0.12975804665E+02  0.00000000000E+00 0.  1.
</event>
<event>
 7    1  0.5019004E-011  0.5052889E+02  0.7816164E-02  0.1300439E+00
        -11   -1    0    0    0    0  0.00000000000E+00  0.00000000000E+00  0.45593999997E+02  0.45594000000E+02  0.51100000000E-03 0.  1.
         11   -1    0    0    0    0 -0.00000000000E+00 -0.00000000000E+00 -0.45593999997E+02  0.45594000000E+02  0.51100000000E-03 0. -1.
    9900012    2    1    2    0    0  0.13007583309E+02  0.99409308307E+01 -0.37217523275E+02  0.50528888253E+02  0.30000086333E+02 0.  0.
        -12    1    1    2    0    0 -0.13007583309E+02 -0.99409308307E+01  0.37217523275E+02  0.40659111747E+02  0.00000000000E+00 0.  1.
         11    1    3    3    0    0  0.17120245227E+01  0.14325732096E+02 -0.14670091119E+02  0.20575937445E+02  0.51100000000E-03 0. -1.
        -11    1    3    3    0    0  0.60725533691E+00 -0.34218694707E+01 -0.17940990974E+02  0.18274493348E+02  0.51100000000E-03 0.  1.
         12    1    3    3    0    0  0.10688303450E+02 -0.96293179469E+00 -0.46064411817E+01  0.11678457459E+02  0.00000000000E+00 0. -1.
</event>
<event>
 7    1  0.5019004E-011  0.5052886E+02  0.7816164E-02  0.1300439E+00
        -11   -1    0    0    0    0  0.00000000000E+00  0.00000000000E+00  0.45593999997E+02  0.45594000000E+02  0.51100000000E-03 0.  1.
         11   -1    0    0    0    0 -0.00000000000E+00 -0.00000000000E+00 -0.45593999997E+02  0.45594000000E+02  0.51100000000E-03 0. -1.
    9900012    2    1    2    0    0 -0.22215311969E+02 -0.34024576374E+02 -0.14050057765E+01  0.50528856815E+02  0.29999990775E+02 0.  0.
        -12    1    1    2    0    0  0.22215311969E+02  0.34024576374E+02  0.14050057765E+01  0.40659143185E+02  0.00000000000E+00 0.  1.
         11    1    3    3    0    0  0.55324464207E+01 -0.12591631962E+02 -0.42351574931E+01  0.14390751131E+02  0.51100000000E-03 0. -1.
        -11    1    3    3    0    0 -0.97017977738E+01 -0.12222950430E+02  0.29276507952E+01  0.15877548195E+02  0.51100000000E-03 0.  1.
         12    1    3    3    0    0 -0.18045960616E+02 -0.92099939826E+01 -0.97499078551E-01  0.20260557489E+02  0.00000000000E+00 0. -1.
</event>
<event>
 7    1  0.5019004E-011  0.5052885E+02  0.7816164E-02  0.1300439E+00
        -11   -1    0    0    0    0  0.00000000000E+00  0.00000000000E+00  0.45593999997E+02  0.45594000000E+02  0.51100000000E-03 0. -1.
         11   -1    0    0    0    0 -0.00000000000E+00 -0.00000000000E+00 -0.45593999997E+02  0.45594000000E+02  0.51100000000E-03 0.  1.
    9900012    2    1    2    0    0  0.21541586967E+02  0.16371527028E+02  0.30349620811E+02  0.50528851587E+02  0.29999974884E+02 0.  0.
        -12    1    1    2    0    0 -0.21541586967E+02 -0.16371527028E+02 -0.30349620811E+02  0.40659148413E+02  0.00000000000E+00 0.  1.
         11    1    3    3    0    0  0.85539772184E+00 -0.25959991973E+01  0.18696549759E+01  0.33115747138E+01  0.51100000000E-03 0. -1.
        -11    1    3    3    0    0  0.16969307527E+02  0.23671814854E+02  0.29122152173E+02  0.41187521944E+02  0.51100000000E-03 0.  1.
        -12    1    3    3    0    0  0.37168817178E+01 -0.47042886289E+01 -0.64218633830E+00  0.60297549288E+01  0.00000000000E+00 0.  1.
</event>
<event>
 7    1  0.5019004E-011  0.5052885E+02  0.7816164E-02  0.1300439E+00
        -11   -1    0    0    0    0  0.00000000000E+00  0.00000000000E+00  0.45593999997E+02  0.45594000000E+02  0.51100000000E-03 0.  1.
         11   -1    0    0    0    0 -0.00000000000E+00 -0.00000000000E+00 -0.45593999997E+02  0.45594000000E+02  0.51100000000E-03 0. -1.
    9900012    2    1    2    0    0  0.18795030454E+02 -0.11693554286E+02  0.34105343813E+02  0.50528845333E+02  0.29999955874E+02 0.  0.
        -12    1    1    2    0    0 -0.18795030454E+02  0.11693554286E+02 -0.34105343813E+02  0.40659154667E+02  0.00000000000E+00 0.  1.
         11    1    3    3    0    0 -0.40669525537E+01 -0.32726475809E+01  0.11040867275E+02  0.12212742350E+02  0.51100000000E-03 0. -1.
        -11    1    3    3    0    0  0.22663666832E+02 -0.12745225491E+02  0.21409784660E+02  0.33681767272E+02  0.51100000000E-03 0.  1.
         12    1    3    3    0    0  0.19831617579E+00  0.43243187864E+01  0.16546918792E+01  0.46343357115E+01  0.00000000000E+00 0. -1.
</event>
<event>
 7    1  0.5019004E-011  0.5052882E+02  0.7816164E-02  0.1300439E+00
        -11   -1    0    0    0    0  0.00000000000E+00  0.00000000000E+00  0.45593999997E+02  0.45594000000E+02  0.51100000000E-03 0.  1.
         11   -1    0    0    0    0 -0.00000000000E+00 -0.00000000000E+00 -0.45593999997E+02  0.45594000000E+02  0.51100000000E-03 0. -1.
    9900012    2    1    2    0    0  0.44540390071E+01  0.16294369304E+02 -0.36984100134E+02  0.50528823948E+02  0.29999890873E+02 0.  0.
        -12    1    1    2    0    0 -0.44540390071E+01 -0.16294369304E+02  0.36984100134E+02  0.40659176052E+02  0.00000000000E+00 0.  1.
         11    1    3    3    0    0 -0.37160570914E+01  0.72089064474E+01  0.22697923428E+01  0.84219576117E+01  0.51100000000E-03 0. -1.
        -11    1    3    3    0    0  0.22312204589E+01 -0.11327082096E+01 -0.26609382999E+01  0.36526655365E+01  0.51100000000E-03 0.  1.
         12    1    3    3    0    0  0.59388756396E+01  0.10218171067E+02 -0.36592954177E+02  0.38454200800E+02  0.00000000000E+00 0. -1.
</event>
<event>
 7    1  0.5019004E-011  0.5052886E+02  0.7816164E-02  0.1300439E+00
        -11   -1    0    0    0    0  0.00000000000E+00  0.00000000000E+00  0.45593999997E+02  0.45594000000E+02  0.51100000000E-03 0. -1.
         11   -1    0    0    0    0 -0.00000000000E+00 -0.00000000000E+00 -0.45593999997E+02  0.45594000000E+02  0.51100000000E-03 0.  1.
    9900012    2    1    2    0    0 -0.33642669551E+02  0.18068471208E+02  0.13959466449E+02  0.50528861176E+02  0.30000004032E+02 0.  0.
        -12    1    1    2    0    0  0.33642669551E+02 -0.18068471208E+02 -0.13959466449E+02  0.40659138824E+02  0.00000000000E+00 0.  1.
         11    1    3    3    0    0 -0.18871057020E+01 -0.63043173487E+01  0.72837303504E+01  0.98162270370E+01  0.51100000000E-03 0. -1.
        -11    1    3    3    0    0 -0.12564047440E+02  0.11662296030E+02  0.27879006349E+01  0.17367694924E+02  0.51100000000E-03 0.  1.
         12    1    3    3    0    0 -0.19191516410E+02  0.12710492527E+02  0.38878354635E+01  0.23344939215E+02  0.00000000000E+00 0. -1.
</event>
<event>
 7    1  0.5019004E-011  0.5052886E+02  0.7816164E-02  0.1300439E+00
        -11   -1    0    0    0    0  0.00000000000E+00  0.00000000000E+00  0.45593999997E+02  0.45594000000E+02  0.51100000000E-03 0. -1.
         11   -1    0    0    0    0 -0.00000000000E+00 -0.00000000000E+00 -0.45593999997E+02  0.45594000000E+02  0.51100000000E-03 0.  1.
    9900012    2    1    2    0    0  0.13524166987E+02 -0.32058856423E+02  0.21035510036E+02  0.50528855268E+02  0.29999986074E+02 0.  0.
        -12    1    1    2    0    0 -0.13524166987E+02  0.32058856423E+02 -0.21035510036E+02  0.40659144732E+02  0.00000000000E+00 0.  1.
         11    1    3    3    0    0  0.21715135949E+02 -0.14880810009E+02  0.92481149055E+01  0.27901850572E+02  0.51100000000E-03 0. -1.
        -11    1    3    3    0    0 -0.36964921347E+01 -0.45938095611E+01  0.28343880551E+01  0.65422393943E+01  0.51100000000E-03 0.  1.
         12    1    3    3    0    0 -0.44944768270E+01 -0.12584236853E+02  0.89530070758E+01  0.16084765302E+02  0.00000000000E+00 0. -1.
</event>
<event>
 7    1  0.5019004E-011  0.5052886E+02  0.7816164E-02  0.1300439E+00
        -11   -1    0    0    0    0  0.00000000000E+00  0.00000000000E+00  0.45593999997E+02  0.45594000000E+02  0.51100000000E-03 0.  1.
         11   -1    0    0    0    0 -0.00000000000E+00 -0.00000000000E+00 -0.45593999997E+02  0.45594000000E+02  0.51100000000E-03 0. -1.
    9900012    2    1    2    0    0  0.11151458235E+02 -0.21715242612E+02 -0.32515513361E+02  0.50528863368E+02  0.30000010695E+02 0.  0.
        -12    1    1    2    0    0 -0.11151458235E+02  0.21715242612E+02  0.32515513361E+02  0.40659136632E+02  0.00000000000E+00 0.  1.
         11    1    3    3    0    0  0.47106870409E+01 -0.22560472091E+02 -0.27134637676E+02  0.35601320698E+02  0.51100000000E-03 0. -1.
        -11    1    3    3    0    0  0.60980690993E+01  0.88128208986E+00  0.27798906768E+01  0.67595042198E+01  0.51100000000E-03 0.  1.
         12    1    3    3    0    0  0.34270209477E+00 -0.36052611353E-01 -0.81607663624E+01  0.81680384511E+01  0.00000000000E+00 0. -1.
</event>
<event>
 7    1  0.5019004E-011  0.5052886E+02  0.7816164E-02  0.1300439E+00
        -11   -1    0    0    0    0  0.00000000000E+00  0.00000000000E+00  0.45593999997E+02  0.45594000000E+02  0.51100000000E-03 0. -1.
         11   -1    0    0    0    0 -0.00000000000E+00 -0.00000000000E+00 -0.45593999997E+02  0.45594000000E+02  0.51100000000E-03 0.  1.
    9900012    2    1    2    0    0  0.20588211175E+01  0.18365489966E+02  0.36216508655E+02  0.50528862464E+02  0.30000007945E+02 0.  0.
        -12    1    1    2    0    0 -0.20588211175E+01 -0.18365489966E+02 -0.36216508655E+02  0.40659137536E+02  0.00000000000E+00 0.  1.
         11    1    3    3    0    0  0.42150327691E+01  0.83714999822E+01  0.32432365507E+02  0.33759544515E+02  0.51100000000E-03 0. -1.
        -11    1    3    3    0    0 -0.30850421275E+01  0.12723396399E+02  0.16786780269E+01  0.13199252290E+02  0.51100000000E-03 0.  1.
         12    1    3    3    0    0  0.92883047587E+00 -0.27294064153E+01  0.21054651202E+01  0.35700656584E+01  0.00000000000E+00 0. -1.
</event>
<event>
 7    1  0.5019004E-011  0.5052888E+02  0.7816164E-02  0.1300439E+00
        -11   -1    0    0    0    0  0.00000000000E+00  0.00000000000E+00  0.45593999997E+02  0.45594000000E+02  0.51100000000E-03 0.  1.
         11   -1    0    0    0    0 -0.00000000000E+00 -0.00000000000E+00 -0.45593999997E+02  0.45594000000E+02  0.51100000000E-03 0. -1.
    9900012    2    1    2    0    0  0.12945039948E+02 -0.31999458936E+02 -0.21485442496E+02  0.50528884531E+02  0.30000075021E+02 0.  0.
        -12    1    1    2    0    0 -0.12945039948E+02  0.31999458936E+02  0.21485442496E+02  0.40659115469E+02  0.00000000000E+00 0.  1.
         11    1    3    3    0    0 -0.92954933706E+01 -0.77489850344E+01 -0.61751893479E+01  0.13586240459E+02  0.51100000000E-03 0. -1.
        -11    1    3    3    0    0  0.96147468428E+01 -0.59685133212E+01 -0.64289357944E+01  0.13015288081E+02  0.51100000000E-03 0.  1.
         12    1    3    3    0    0  0.12625786476E+02 -0.18281960580E+02 -0.88813173540E+01  0.23927355991E+02  0.00000000000E+00 0. -1.
</event>
<event>
 7    1  0.5019004E-011  0.5052886E+02  0.7816164E-02  0.1300439E+00
        -11   -1    0    0    0    0  0.00000000000E+00  0.00000000000E+00  0.45593999997E+02  0.45594000000E+02  0.51100000000E-03 0.  1.
         11   -1    0    0    0    0 -0.00000000000E+00 -0.00000000000E+00 -0.45593999997E+02  0.45594000000E+02  0.51100000000E-03 0. -1.
    9900012    2    1    2    0    0 -0.32150033627E+02 -0.13389466925E+02 -0.20982451473E+02  0.50528858881E+02  0.29999997054E+02 0.  0.
        -12    1    1    2    0    0  0.32150033627E+02  0.13389466925E+02  0.20982451473E+02  0.40659141119E+02  0.00000000000E+00 0.  1.
         11    1    3    3    0    0 -0.35314449354E+01 -0.24846455753E+00 -0.16876470795E+02  0.17243784524E+02  0.51100000000E-03 0. -1.
        -11    1    3    3    0    0 -0.19078762558E+02 -0.11114194429E+02 -0.69122088786E+01  0.23136618819E+02  0.51100000000E-03 0.  1.
         12    1    3    3    0    0 -0.95398261339E+01 -0.20268079386E+01  0.28062282003E+01  0.10148455538E+02  0.00000000000E+00 0. -1.
</event>
<event>
 7    1  0.5019004E-011  0.5052886E+02  0.7816164E-02  0.1300439E+00
        -11   -1    0    0    0    0  0.00000000000E+00  0.00000000000E+00  0.45593999997E+02  0.45594000000E+02  0.51100000000E-03 0. -1.
         11   -1    0    0    0    0 -0.00000000000E+00 -0.00000000000E+00 -0.45593999997E+02  0.45594000000E+02  0.51100000000E-03 0.  1.
    9900012    2    1    2    0    0  0.18240406349E+02  0.25757918441E+02 -0.25631683580E+02  0.50528856018E+02  0.29999988353E+02 0.  0.
        -12    1    1    2    0    0 -0.18240406349E+02 -0.25757918441E+02  0.25631683580E+02  0.40659143982E+02  0.00000000000E+00 0.  1.
         11    1    3    3    0    0  0.16733188806E+02  0.16477743418E+02 -0.15446088113E+02  0.28108669019E+02  0.51100000000E-03 0. -1.
        -11    1    3    3    0    0 -0.48171911416E+01  0.23758671399E+01  0.30734813266E+01  0.61884055206E+01  0.51100000000E-03 0.  1.
        -12    1    3    3    0    0  0.63244086853E+01  0.69043078832E+01 -0.13259076793E+02  0.16231781479E+02  0.00000000000E+00 0.  1.
</event>
<event>
 7    1  0.5019004E-011  0.5052886E+02  0.7816164E-02  0.1300439E+00
        -11   -1    0    0    0    0  0.00000000000E+00  0.00000000000E+00  0.45593999997E+02  0.45594000000E+02  0.51100000000E-03 0. -1.
         11   -1    0    0    0    0 -0.00000000000E+00 -0.00000000000E+00 -0.45593999997E+02  0.45594000000E+02  0.51100000000E-03 0.  1.
    9900012    2    1    2    0    0 -0.37559270811E+02  0.34804413127E+01  0.15177386899E+02  0.50528863651E+02  0.30000011553E+02 0.  0.
        -12    1    1    2    0    0  0.37559270811E+02 -0.34804413127E+01 -0.15177386899E+02  0.40659136349E+02  0.00000000000E+00 0.  1.
         11    1    3    3    0    0 -0.31616625981E+02  0.66670275960E+01  0.65292341471E+01  0.32964999533E+02  0.51100000000E-03 0. -1.
        -11    1    3    3    0    0 -0.63932793045E+00 -0.69270525788E+01  0.86164090282E+01  0.11074082465E+02  0.51100000000E-03 0.  1.
        -12    1    3    3    0    0 -0.53033168991E+01  0.37404662955E+01  0.31743723254E-01  0.64897816530E+01  0.00000000000E+00 0.  1.
</event>
<event>
 7    1  0.5019004E-011  0.5052886E+02  0.7816164E-02  0.1300439E+00
        -11   -1    0    0    0    0  0.00000000000E+00  0.00000000000E+00  0.45593999997E+02  0.45594000000E+02  0.51100000000E-03 0. -1.
         11   -1    0    0    0    0 -0.00000000000E+00 -0.00000000000E+00 -0.45593999997E+02  0.45594000000E+02  0.51100000000E-03 0.  1.
    9900012    2    1    2    0    0  0.11924391691E+02 -0.13061953814E+02  0.36610922626E+02  0.50528863141E+02  0.30000010003E+02 0.  0.
        -12    1    1    2    0    0 -0.11924391691E+02  0.13061953814E+02 -0.36610922626E+02  0.40659136859E+02  0.00000000000E+00 0.  1.
         11    1    3    3    0    0  0.37414519754E+01 -0.73870466299E+01  0.33219225398E+02  0.34235710262E+02  0.51100000000E-03 0. -1.
        -11    1    3    3    0    0  0.77438871842E+01  0.20899382906E+01  0.65180287387E+00  0.80473895164E+01  0.51100000000E-03 0.  1.
         12    1    3    3    0    0  0.43905253086E+00 -0.77648454746E+01  0.27398943534E+01  0.82457633629E+01  0.00000000000E+00 0. -1.
</event>
<event>
 7    1  0.5019004E-011  0.5052886E+02  0.7816164E-02  0.1300439E+00
        -11   -1    0    0    0    0  0.00000000000E+00  0.00000000000E+00  0.45593999997E+02  0.45594000000E+02  0.51100000000E-03 0. -1.
         11   -1    0    0    0    0 -0.00000000000E+00 -0.00000000000E+00 -0.45593999997E+02  0.45594000000E+02  0.51100000000E-03 0.  1.
    9900012    2    1    2    0    0 -0.57661454724E+01 -0.85319283515E+01  0.39333489655E+02  0.50528860272E+02  0.30000001282E+02 0.  0.
        -12    1    1    2    0    0  0.57661454724E+01  0.85319283515E+01 -0.39333489655E+02  0.40659139728E+02  0.00000000000E+00 0.  1.
         11    1    3    3    0    0 -0.14367642738E+02 -0.11921354858E+02  0.25825808293E+02  0.31867228209E+02  0.51100000000E-03 0. -1.
        -11    1    3    3    0    0  0.11523533683E+01 -0.24454511233E+01  0.60061913204E+01  0.65865380831E+01  0.51100000000E-03 0.  1.
         12    1    3    3    0    0  0.74491438977E+01  0.58348776298E+01  0.75014900420E+01  0.12075093979E+02  0.00000000000E+00 0. -1.
</event>
<event>
 7    1  0.5019004E-011  0.5052886E+02  0.7816164E-02  0.1300439E+00
        -11   -1    0    0    0    0  0.00000000000E+00  0.00000000000E+00  0.45593999997E+02  0.45594000000E+02  0.51100000000E-03 0. -1.
         11   -1    0    0    0    0 -0.00000000000E+00 -0.00000000000E+00 -0.45593999997E+02  0.45594000000E+02  0.51100000000E-03 0.  1.
    9900012    2    1    2    0    0 -0.36253103076E+02 -0.15062719672E+02  0.10582676522E+02  0.50528855285E+02  0.29999986125E+02 0.  0.
        -12    1    1    2    0    0  0.36253103076E+02  0.15062719672E+02 -0.10582676522E+02  0.40659144715E+02  0.00000000000E+00 0.  1.
         11    1    3    3    0    0 -0.95713951073E+01 -0.23661310735E+01  0.64927206355E+01  0.11805320922E+02  0.51100000000E-03 0. -1.
        -11    1    3    3    0    0 -0.23024605474E+02 -0.19477134719E+02  0.34999786551E+00  0.30159803263E+02  0.51100000000E-03 0.  1.
        -12    1    3    3    0    0 -0.36571024955E+01  0.67805461212E+01  0.37399580206E+01  0.85637311004E+01  0.00000000000E+00 0.  1.
</event>
<event>
 7    1  0.5019004E-011  0.5052886E+02  0.7816164E-02  0.1300439E+00
        -11   -1    0    0    0    0  0.00000000000E+00  0.00000000000E+00  0.45593999997E+02  0.45594000000E+02  0.51100000000E-03 0. -1.
         11   -1    0    0    0    0 -0.00000000000E+00 -0.00000000000E+00 -0.45593999997E+02  0.45594000000E+02  0.51100000000E-03 0.  1.
    9900012    2    1    2    0    0  0.30338215015E+02  0.83777187457E+01 -0.25740472186E+02  0.50528863634E+02  0.30000011503E+02 0.  0.
        -12    1    1    2    0    0 -0.30338215015E+02 -0.83777187457E+01  0.25740472186E+02  0.40659136366E+02  0.00000000000E+00 0.  1.
         11    1    3    3    0    0 -0.21046150147E+01 -0.13852334792E+01 -0.13054547059E+02  0.13295468225E+02  0.51100000000E-03 0. -1.
        -11    1    3    3    0    0  0.11792378265E+02  0.45443248830E+01 -0.92434554508E+01  0.15657347883E+02  0.51100000000E-03 0.  1.
         12    1    3    3    0    0  0.20650451764E+02  0.52186273419E+01 -0.34424696761E+01  0.21576047527E+02  0.00000000000E+00 0. -1.
</event>
<event>
 7    1  0.5019004E-011  0.5052879E+02  0.7816164E-02  0.1300439E+00
        -11   -1    0    0    0    0  0.00000000000E+00  0.00000000000E+00  0.45593999997E+02  0.45594000000E+02  0.51100000000E-03 0.  1.
         11   -1    0    0    0    0 -0.00000000000E+00 -0.00000000000E+00 -0.45593999997E+02  0.45594000000E+02  0.51100000000E-03 0. -1.
    9900012    2    1    2    0    0 -0.33818106421E+02 -0.17184044287E+02 -0.14636112921E+02  0.50528788234E+02  0.29999782317E+02 0.  0.
        -12    1    1    2    0    0  0.33818106421E+02  0.17184044287E+02  0.14636112921E+02  0.40659211766E+02  0.00000000000E+00 0.  1.
         11    1    3    3    0    0 -0.29712080957E+02 -0.20308260513E+02 -0.18534839495E+02  0.40481767195E+02  0.51100000000E-03 0. -1.
        -11    1    3    3    0    0 -0.19350675445E+01  0.23691919589E+01 -0.20414568085E+01  0.36776491271E+01  0.51100000000E-03 0.  1.
         12    1    3    3    0    0 -0.21709579194E+01  0.75502426728E+00  0.59401833829E+01  0.63693719121E+01  0.00000000000E+00 0. -1.
</event>
<event>
 7    1  0.5019004E-011  0.5052885E+02  0.7816164E-02  0.1300439E+00
        -11   -1    0    0    0    0  0.00000000000E+00  0.00000000000E+00  0.45593999997E+02  0.45594000000E+02  0.51100000000E-03 0.  1.
         11   -1    0    0    0    0 -0.00000000000E+00 -0.00000000000E+00 -0.45593999997E+02  0.45594000000E+02  0.51100000000E-03 0. -1.
    9900012    2    1    2    0    0 -0.27785005878E+01 -0.16184469567E+02 -0.37195550719E+02  0.50528854485E+02  0.29999983693E+02 0.  0.
        -12    1    1    2    0    0  0.27785005878E+01  0.16184469567E+02  0.37195550719E+02  0.40659145515E+02  0.00000000000E+00 0.  1.
         11    1    3    3    0    0 -0.52525006526E+01 -0.15863606330E+01 -0.11077264026E+02  0.12361677949E+02  0.51100000000E-03 0. -1.
        -11    1    3    3    0    0  0.12186583430E+02 -0.95733893845E+01 -0.20984713030E+02  0.26086793233E+02  0.51100000000E-03 0.  1.
        -12    1    3    3    0    0 -0.97125833651E+01 -0.50247195493E+01 -0.51335736638E+01  0.12080383302E+02  0.00000000000E+00 0.  1.
</event>
<event>
 7    1  0.5019004E-011  0.5052886E+02  0.7816164E-02  0.1300439E+00
        -11   -1    0    0    0    0  0.00000000000E+00  0.00000000000E+00  0.45593999997E+02  0.45594000000E+02  0.51100000000E-03 0.  1.
         11   -1    0    0    0    0 -0.00000000000E+00 -0.00000000000E+00 -0.45593999997E+02  0.45594000000E+02  0.51100000000E-03 0. -1.
    9900012    2    1    2    0    0  0.16581485794E+02 -0.42426905669E+01 -0.36881159508E+02  0.50528855628E+02  0.29999987168E+02 0.  0.
        -12    1    1    2    0    0 -0.16581485794E+02  0.42426905669E+01  0.36881159508E+02  0.40659144372E+02  0.00000000000E+00 0.  1.
         11    1    3    3    0    0  0.19764406859E+01  0.28025344690E+01 -0.30546336818E+02  0.30738236946E+02  0.51100000000E-03 0. -1.
        -11    1    3    3    0    0  0.71121837559E+01  0.72766922404E+00 -0.53891109856E+01  0.89529424076E+01  0.51100000000E-03 0.  1.
         12    1    3    3    0    0  0.74928613523E+01 -0.77728942599E+01 -0.94571170367E+00  0.10837676275E+02  0.00000000000E+00 0. -1.
</event>
<event>
 7    1  0.5019004E-011  0.5052886E+02  0.7816164E-02  0.1300439E+00
        -11   -1    0    0    0    0  0.00000000000E+00  0.00000000000E+00  0.45593999997E+02  0.45594000000E+02  0.51100000000E-03 0.  1.
         11   -1    0    0    0    0 -0.00000000000E+00 -0.00000000000E+00 -0.45593999997E+02  0.45594000000E+02  0.51100000000E-03 0. -1.
    9900012    2    1    2    0    0  0.39544721340E+02  0.44848778304E+01  0.83226568197E+01  0.50528859188E+02  0.29999997988E+02 0.  0.
        -12    1    1    2    0    0 -0.39544721340E+02 -0.44848778304E+01 -0.83226568197E+01  0.40659140812E+02  0.00000000000E+00 0.  1.
         11    1    3    3    0    0  0.37164077239E+02  0.10388227424E+02  0.27646989127E+01  0.38687562166E+02  0.51100000000E-03 0. -1.
        -11    1    3    3    0    0  0.34471170661E+01 -0.76009418903E+01  0.37819278790E+01  0.91629641727E+01  0.51100000000E-03 0.  1.
         12    1    3    3    0    0 -0.10664729648E+01  0.16975922969E+01  0.17760300280E+01  0.26783328493E+01  0.00000000000E+00 0. -1.
</event>
<event>
 7    1  0.5019004E-011  0.5052885E+02  0.7816164E-02  0.1300439E+00
        -11   -1    0    0    0    0  0.00000000000E+00  0.00000000000E+00  0.45593999997E+02  0.45594000000E+02  0.51100000000E-03 0.  1.
         11   -1    0    0    0    0 -0.00000000000E+00 -0.00000000000E+00 -0.45593999997E+02  0.45594000000E+02  0.51100000000E-03 0. -1.
    9900012    2    1    2    0    0 -0.36233552517E+02 -0.16064614831E+02  0.90677469907E+01  0.50528853266E+02  0.29999979987E+02 0.  0.
        -12    1    1    2    0    0  0.36233552517E+02  0.16064614831E+02 -0.90677469907E+01  0.40659146734E+02  0.00000000000E+00 0.  1.
         11    1    3    3    0    0 -0.26030944239E+02 -0.12652518989E+02  0.17292409127E+02  0.33715333432E+02  0.51100000000E-03 0. -1.
        -11    1    3    3    0    0  0.12136829877E+01  0.16935380278E+01 -0.60695324933E+00  0.21701359299E+01  0.51100000000E-03 0.  1.
         12    1    3    3    0    0 -0.11416291265E+02 -0.51056338699E+01 -0.76177088873E+01  0.14643383904E+02  0.00000000000E+00 0. -1.
</event>
<event>
 7    1  0.5019004E-011  0.5052886E+02  0.7816164E-02  0.1300439E+00
        -11   -1    0    0    0    0  0.00000000000E+00  0.00000000000E+00  0.45593999997E+02  0.45594000000E+02  0.51100000000E-03 0. -1.
         11   -1    0    0    0    0 -0.00000000000E+00 -0.00000000000E+00 -0.45593999997E+02  0.45594000000E+02  0.51100000000E-03 0.  1.
    9900012    2    1    2    0    0 -0.87621755459E+01 -0.39097358378E+02  0.69127924329E+01  0.50528857711E+02  0.29999993499E+02 0.  0.
        -12    1    1    2    0    0  0.87621755459E+01  0.39097358378E+02 -0.69127924329E+01  0.40659142289E+02  0.00000000000E+00 0.  1.
         11    1    3    3    0    0  0.48104389626E-01 -0.16750255221E+02  0.10713394002E+02  0.19883414579E+02  0.51100000000E-03 0. -1.
        -11    1    3    3    0    0 -0.88337511284E+01 -0.24893680862E+02 -0.62153119561E+01  0.27135965228E+02  0.51100000000E-03 0.  1.
        -12    1    3    3    0    0  0.23471192936E-01  0.25465777058E+01  0.24147103866E+01  0.35094779042E+01  0.00000000000E+00 0.  1.
</event>
<event>
 7    1  0.5019004E-011  0.5052886E+02  0.7816164E-02  0.1300439E+00
        -11   -1    0    0    0    0  0.00000000000E+00  0.00000000000E+00  0.45593999997E+02  0.45594000000E+02  0.51100000000E-03 0. -1.
         11   -1    0    0    0    0 -0.00000000000E+00 -0.00000000000E+00 -0.45593999997E+02  0.45594000000E+02  0.51100000000E-03 0.  1.
    9900012    2    1    2    0    0  0.11153017295E+01  0.33741373085E+02  0.22659249074E+02  0.50528859279E+02  0.29999998264E+02 0.  0.
        -12    1    1    2    0    0 -0.11153017295E+01 -0.33741373085E+02 -0.22659249074E+02  0.40659140721E+02  0.00000000000E+00 0.  1.
         11    1    3    3    0    0  0.74907443415E+01  0.31586136712E+02  0.11503630092E+02  0.34440220509E+02  0.51100000000E-03 0. -1.
        -11    1    3    3    0    0 -0.14299968061E+01 -0.25980645441E+01  0.80119207339E+01  0.85431671146E+01  0.51100000000E-03 0.  1.
         12    1    3    3    0    0 -0.49454458059E+01  0.47533009168E+01  0.31436982478E+01  0.75454716551E+01  0.00000000000E+00 0. -1.
</event>
<event>
 7    1  0.5019004E-011  0.5052884E+02  0.7816164E-02  0.1300439E+00
        -11   -1    0    0    0    0  0.00000000000E+00  0.00000000000E+00  0.45593999997E+02  0.45594000000E+02  0.51100000000E-03 0.  1.
         11   -1    0    0    0    0 -0.00000000000E+00 -0.00000000000E+00 -0.45593999997E+02  0.45594000000E+02  0.51100000000E-03 0. -1.
    9900012    2    1    2    0    0  0.16456507343E+02  0.27593555464E+02 -0.24918787515E+02  0.50528844717E+02  0.29999954003E+02 0.  0.
        -12    1    1    2    0    0 -0.16456507343E+02 -0.27593555464E+02  0.24918787515E+02  0.40659155283E+02  0.00000000000E+00 0.  1.
         11    1    3    3    0    0  0.14498283230E+02  0.40731330187E+01 -0.16060164156E+02  0.22016346250E+02  0.51100000000E-03 0. -1.
        -11    1    3    3    0    0  0.18140732618E+01  0.20017808969E+02 -0.12541794467E+01  0.20138930062E+02  0.51100000000E-03 0.  1.
        -12    1    3    3    0    0  0.14415085113E+00  0.35026134770E+01 -0.76044439116E+01  0.83735684055E+01  0.00000000000E+00 0.  1.
</event>
<event>
 7    1  0.5019004E-011  0.5052886E+02  0.7816164E-02  0.1300439E+00
        -11   -1    0    0    0    0  0.00000000000E+00  0.00000000000E+00  0.45593999997E+02  0.45594000000E+02  0.51100000000E-03 0.  1.
         11   -1    0    0    0    0 -0.00000000000E+00 -0.00000000000E+00 -0.45593999997E+02  0.45594000000E+02  0.51100000000E-03 0. -1.
    9900012    2    1    2    0    0  0.16881412360E+02  0.87023950442E+01 -0.35950691623E+02  0.50528855998E+02  0.29999988292E+02 0.  0.
        -12    1    1    2    0    0 -0.16881412360E+02 -0.87023950442E+01  0.35950691623E+02  0.40659144002E+02  0.00000000000E+00 0.  1.
         11    1    3    3    0    0  0.90857250002E+01  0.96635465149E+00 -0.19784904246E+02  0.21792812494E+02  0.51100000000E-03 0. -1.
        -11    1    3    3    0    0  0.64375084024E+01  0.13188535532E+02 -0.38096138826E+01  0.15162194502E+02  0.51100000000E-03 0.  1.
        -12    1    3    3    0    0  0.13581789573E+01 -0.54524951393E+01 -0.12356173494E+02  0.13573849003E+02  0.00000000000E+00 0.  1.
</event>
<event>
 7    1  0.5019004E-011  0.5052885E+02  0.7816164E-02  0.1300439E+00
        -11   -1    0    0    0    0  0.00000000000E+00  0.00000000000E+00  0.45593999997E+02  0.45594000000E+02  0.51100000000E-03 0.  1.
         11   -1    0    0    0    0 -0.00000000000E+00 -0.00000000000E+00 -0.45593999997E+02  0.45594000000E+02  0.51100000000E-03 0. -1.
    9900012    2    1    2    0    0 -0.31802228708E+02 -0.21122822683E+02 -0.13986106412E+02  0.50528848982E+02  0.29999966967E+02 0.  0.
        -12    1    1    2    0    0  0.31802228708E+02  0.21122822683E+02  0.13986106412E+02  0.40659151018E+02  0.00000000000E+00 0.  1.
         11    1    3    3    0    0 -0.22484713811E+02 -0.72553584771E+01 -0.12380427764E+02  0.26673536955E+02  0.51100000000E-03 0. -1.
        -11    1    3    3    0    0 -0.11821086707E+02 -0.14950420432E+02  0.21862573852E+01  0.19184183163E+02  0.51100000000E-03 0.  1.
        -12    1    3    3    0    0  0.25035718093E+01  0.10829562263E+01 -0.37919360323E+01  0.46711288641E+01  0.00000000000E+00 0.  1.
</event>
<event>
 7    1  0.5019004E-011  0.5052895E+02  0.7816164E-02  0.1300438E+00
        -11   -1    0    0    0    0  0.00000000000E+00  0.00000000000E+00  0.45593999997E+02  0.45594000000E+02  0.51100000000E-03 0.  1.
         11   -1    0    0    0    0 -0.00000000000E+00 -0.00000000000E+00 -0.45593999997E+02  0.45594000000E+02  0.51100000000E-03 0. -1.
    9900012    2    1    2    0    0 -0.26973196805E+02  0.28540231787E+02 -0.10538498436E+02  0.50528952721E+02  0.30000282289E+02 0.  0.
        -12    1    1    2    0    0  0.26973196805E+02 -0.28540231787E+02  0.10538498436E+02  0.40659047279E+02  0.00000000000E+00 0.  1.
         11    1    3    3    0    0 -0.10046539591E+02  0.41686193085E+01 -0.13085635978E+02  0.17015998763E+02  0.51100000000E-03 0. -1.
        -11    1    3    3    0    0 -0.25187518071E+01  0.17072442752E+02  0.96233640997E+00  0.17284053455E+02  0.51100000000E-03 0.  1.
        -12    1    3    3    0    0 -0.14407905407E+02  0.72991697263E+01  0.15848011316E+01  0.16228900503E+02  0.00000000000E+00 0.  1.
</event>
<event>
 7    1  0.5019004E-011  0.5052885E+02  0.7816164E-02  0.1300439E+00
        -11   -1    0    0    0    0  0.00000000000E+00  0.00000000000E+00  0.45593999997E+02  0.45594000000E+02  0.51100000000E-03 0.  1.
         11   -1    0    0    0    0 -0.00000000000E+00 -0.00000000000E+00 -0.45593999997E+02  0.45594000000E+02  0.51100000000E-03 0. -1.
    9900012    2    1    2    0    0 -0.22341097524E+02  0.92535301841E+01 -0.32686600440E+02  0.50528852103E+02  0.29999976451E+02 0.  0.
        -12    1    1    2    0    0  0.22341097524E+02 -0.92535301841E+01  0.32686600440E+02  0.40659147897E+02  0.00000000000E+00 0.  1.
         11    1    3    3    0    0 -0.13282995338E+02  0.17269505930E+02 -0.17941756938E+02  0.28223756704E+02  0.51100000000E-03 0. -1.
        -11    1    3    3    0    0 -0.44569823578E+01 -0.36815885179E+01 -0.14899874400E+02  0.15982022499E+02  0.51100000000E-03 0.  1.
         12    1    3    3    0    0 -0.46011198282E+01 -0.43343872282E+01  0.15503089786E+00  0.63230728998E+01  0.00000000000E+00 0. -1.
</event>
<event>
 7    1  0.5019004E-011  0.5052887E+02  0.7816164E-02  0.1300439E+00
        -11   -1    0    0    0    0  0.00000000000E+00  0.00000000000E+00  0.45593999997E+02  0.45594000000E+02  0.51100000000E-03 0. -1.
         11   -1    0    0    0    0 -0.00000000000E+00 -0.00000000000E+00 -0.45593999997E+02  0.45594000000E+02  0.51100000000E-03 0.  1.
    9900012    2    1    2    0    0 -0.36140052049E+02 -0.12705469843E+02  0.13624715722E+02  0.50528865669E+02  0.30000017689E+02 0.  0.
        -12    1    1    2    0    0  0.36140052049E+02  0.12705469843E+02 -0.13624715722E+02  0.40659134331E+02  0.00000000000E+00 0.  1.
         11    1    3    3    0    0 -0.21828765328E+02 -0.10559118327E+02 -0.15884238417E+01  0.24300474608E+02  0.51100000000E-03 0. -1.
        -11    1    3    3    0    0 -0.39552428833E+01 -0.41979507179E+01  0.14548599274E+02  0.15650190976E+02  0.51100000000E-03 0.  1.
         12    1    3    3    0    0 -0.10356043837E+02  0.20515992024E+01  0.66454028936E+00  0.10578200085E+02  0.00000000000E+00 0. -1.
</event>
<event>
 7    1  0.5019004E-011  0.5052878E+02  0.7816164E-02  0.1300439E+00
        -11   -1    0    0    0    0  0.00000000000E+00  0.00000000000E+00  0.45593999997E+02  0.45594000000E+02  0.51100000000E-03 0. -1.
         11   -1    0    0    0    0 -0.00000000000E+00 -0.00000000000E+00 -0.45593999997E+02  0.45594000000E+02  0.51100000000E-03 0.  1.
    9900012    2    1    2    0    0 -0.22571689438E+02  0.33803669954E+02  0.10014327154E+01  0.50528780455E+02  0.29999758672E+02 0.  0.
        -12    1    1    2    0    0  0.22571689438E+02 -0.33803669954E+02 -0.10014327154E+01  0.40659219545E+02  0.00000000000E+00 0.  1.
         11    1    3    3    0    0 -0.12395774807E+02  0.29172568540E+02 -0.82431806773E+00  0.31707625089E+02  0.51100000000E-03 0. -1.
        -11    1    3    3    0    0  0.12434905925E+01 -0.37397772429E+01 -0.16003701000E+01  0.42536322594E+01  0.51100000000E-03 0.  1.
        -12    1    3    3    0    0 -0.11419405223E+02  0.83708786577E+01  0.34261208832E+01  0.14567523107E+02  0.00000000000E+00 0.  1.
</event>
<event>
 7    1  0.5019004E-011  0.5052886E+02  0.7816164E-02  0.1300439E+00
        -11   -1    0    0    0    0  0.00000000000E+00  0.00000000000E+00  0.45593999997E+02  0.45594000000E+02  0.51100000000E-03 0. -1.
         11   -1    0    0    0    0 -0.00000000000E+00 -0.00000000000E+00 -0.45593999997E+02  0.45594000000E+02  0.51100000000E-03 0.  1.
    9900012    2    1    2    0    0 -0.40116092311E+02  0.60770483937E+01  0.26332522029E+01  0.50528863306E+02  0.30000010505E+02 0.  0.
        -12    1    1    2    0    0  0.40116092311E+02 -0.60770483937E+01 -0.26332522029E+01  0.40659136694E+02  0.00000000000E+00 0.  1.
         11    1    3    3    0    0 -0.16882713554E+02 -0.46141977337E+01  0.66402493050E+01  0.18719234727E+02  0.51100000000E-03 0. -1.
        -11    1    3    3    0    0 -0.23558994670E+02  0.14274689244E+02 -0.51719812601E+01  0.28027528847E+02  0.51100000000E-03 0.  1.
        -12    1    3    3    0    0  0.32561591245E+00 -0.35834431167E+01  0.11649841581E+01  0.37820997318E+01  0.00000000000E+00 0.  1.
</event>
<event>
 7    1  0.5019004E-011  0.5052888E+02  0.7816164E-02  0.1300439E+00
        -11   -1    0    0    0    0  0.00000000000E+00  0.00000000000E+00  0.45593999997E+02  0.45594000000E+02  0.51100000000E-03 0.  1.
         11   -1    0    0    0    0 -0.00000000000E+00 -0.00000000000E+00 -0.45593999997E+02  0.45594000000E+02  0.51100000000E-03 0. -1.
    9900012    2    1    2    0    0 -0.28433291961E+02 -0.45099884527E+01 -0.28711879762E+02  0.50528878920E+02  0.30000057964E+02 0.  0.
        -12    1    1    2    0    0  0.28433291961E+02  0.45099884527E+01  0.28711879762E+02  0.40659121080E+02  0.00000000000E+00 0.  1.
         11    1    3    3    0    0 -0.13342343884E+02 -0.55350984771E+01  0.10286487524E+01  0.14481490738E+02  0.51100000000E-03 0.  1.
        -11    1    3    3    0    0 -0.11776529204E+02  0.24708721235E+01 -0.30097537337E+02  0.32413787239E+02  0.51100000000E-03 0. -1.
         12    1    3    3    0    0 -0.33144188724E+01 -0.14457620992E+01  0.35700882339E+00  0.36336009425E+01  0.00000000000E+00 0. -1.
</event>
<event>
 7    1  0.5019004E-011  0.5052886E+02  0.7816164E-02  0.1300439E+00
        -11   -1    0    0    0    0  0.00000000000E+00  0.00000000000E+00  0.45593999997E+02  0.45594000000E+02  0.51100000000E-03 0.  1.
         11   -1    0    0    0    0 -0.00000000000E+00 -0.00000000000E+00 -0.45593999997E+02  0.45594000000E+02  0.51100000000E-03 0. -1.
    9900012    2    1    2    0    0 -0.17833543659E+02  0.23150609010E+02 -0.28269762943E+02  0.50528862357E+02  0.30000007621E+02 0.  0.
        -12    1    1    2    0    0  0.17833543659E+02 -0.23150609010E+02  0.28269762943E+02  0.40659137643E+02  0.00000000000E+00 0.  1.
         11    1    3    3    0    0 -0.18698797387E+02  0.89713947173E+01 -0.28051338041E+02  0.34885649099E+02  0.51100000000E-03 0. -1.
        -11    1    3    3    0    0  0.14392198393E+01  0.61628397068E+01 -0.31741260050E+01  0.70800440079E+01  0.51100000000E-03 0.  1.
         12    1    3    3    0    0 -0.57396611226E+00  0.80163745864E+01  0.29557011034E+01  0.85631692509E+01  0.00000000000E+00 0. -1.
</event>
<event>
 7    1  0.5019004E-011  0.5052885E+02  0.7816164E-02  0.1300439E+00
        -11   -1    0    0    0    0  0.00000000000E+00  0.00000000000E+00  0.45593999997E+02  0.45594000000E+02  0.51100000000E-03 0.  1.
         11   -1    0    0    0    0 -0.00000000000E+00 -0.00000000000E+00 -0.45593999997E+02  0.45594000000E+02  0.51100000000E-03 0. -1.
    9900012    2    1    2    0    0 -0.16299825991E+02 -0.14149077799E+02 -0.34457018696E+02  0.50528845222E+02  0.29999955535E+02 0.  0.
        -12    1    1    2    0    0  0.16299825991E+02  0.14149077799E+02  0.34457018696E+02  0.40659154778E+02  0.00000000000E+00 0.  1.
         11    1    3    3    0    0 -0.53773507468E+01 -0.29547923253E+01  0.43917785829E+01  0.75454899193E+01  0.51100000000E-03 0. -1.
        -11    1    3    3    0    0 -0.94923299983E+00 -0.39916003468E+00 -0.14544487864E+02  0.14580895017E+02  0.51100000000E-03 0.  1.
         12    1    3    3    0    0 -0.99732422440E+01 -0.10795125439E+02 -0.24304309415E+02  0.28402460285E+02  0.00000000000E+00 0. -1.
</event>
<event>
 7    1  0.5019004E-011  0.5052886E+02  0.7816164E-02  0.1300439E+00
        -11   -1    0    0    0    0  0.00000000000E+00  0.00000000000E+00  0.45593999997E+02  0.45594000000E+02  0.51100000000E-03 0.  1.
         11   -1    0    0    0    0 -0.00000000000E+00 -0.00000000000E+00 -0.45593999997E+02  0.45594000000E+02  0.51100000000E-03 0. -1.
    9900012    2    1    2    0    0 -0.35984590492E+02 -0.65284446375E+01 -0.17766668905E+02  0.50528857532E+02  0.29999992953E+02 0.  0.
        -12    1    1    2    0    0  0.35984590492E+02  0.65284446375E+01  0.17766668905E+02  0.40659142468E+02  0.00000000000E+00 0.  1.
         11    1    3    3    0    0 -0.16518684447E+02 -0.14643456982E+01 -0.18511021742E+02  0.24852950939E+02  0.51100000000E-03 0. -1.
        -11    1    3    3    0    0 -0.14955524521E+02 -0.27124217634E+01  0.77159899816E+01  0.17045863052E+02  0.51100000000E-03 0.  1.
        -12    1    3    3    0    0 -0.45103815243E+01 -0.23516771758E+01 -0.69716371452E+01  0.86300435409E+01  0.00000000000E+00 0.  1.
</event>
<event>
 7    1  0.5019004E-011  0.5052886E+02  0.7816164E-02  0.1300439E+00
        -11   -1    0    0    0    0  0.00000000000E+00  0.00000000000E+00  0.45593999997E+02  0.45594000000E+02  0.51100000000E-03 0. -1.
         11   -1    0    0    0    0 -0.00000000000E+00 -0.00000000000E+00 -0.45593999997E+02  0.45594000000E+02  0.51100000000E-03 0.  1.
    9900012    2    1    2    0    0  0.27887859067E+02 -0.29424326371E+02  0.31051685088E+01  0.50528859118E+02  0.29999997776E+02 0.  0.
        -12    1    1    2    0    0 -0.27887859067E+02  0.29424326371E+02 -0.31051685088E+01  0.40659140882E+02  0.00000000000E+00 0.  1.
         11    1    3    3    0    0  0.85806569041E+01  0.45667709789E-01 -0.20975861135E+01  0.88334379610E+01  0.51100000000E-03 0. -1.
        -11    1    3    3    0    0  0.10224319725E+02 -0.28795603369E+02 -0.11702227406E+01  0.30579288886E+02  0.51100000000E-03 0.  1.
        -12    1    3    3    0    0  0.90828824380E+01 -0.67439071197E+00  0.63729773630E+01  0.11116132272E+02  0.00000000000E+00 0.  1.
</event>
