<event>
 7    1  0.3449603E-013  0.5930195E+02  0.7816164E-02  0.1266605E+00
        -11   -1    0    0    0    0  0.00000000000E+00  0.00000000000E+00  0.45593999997E+02  0.45594000000E+02  0.51100000000E-03 0.  1.
         11   -1    0    0    0    0 -0.00000000000E+00 -0.00000000000E+00 -0.45593999997E+02  0.45594000000E+02  0.51100000000E-03 0. -1.
    9900012    2    1    2    0    0  0.53709820578E+01 -0.24428787956E+02  0.19776423528E+02  0.59301952003E+02  0.50000014546E+02 0.  0.
         12    1    1    2    0    0 -0.53709820578E+01  0.24428787956E+02 -0.19776423528E+02  0.31886047997E+02  0.00000000000E+00 0. -1.
         11    1    3    3    0    0 -0.76449960854E+01  0.78252521843E+01 -0.45020012566E+01  0.11829985312E+02  0.51100000000E-03 0. -1.
        -11    1    3    3    0    0  0.70465899188E+01 -0.61300777877E+00  0.10000616506E+02  0.12249185230E+02  0.51100000000E-03 0.  1.
        -12    1    3    3    0    0  0.59693882244E+01 -0.31641032362E+02  0.14277808278E+02  0.35222781462E+02  0.00000000000E+00 0.  1.
</event>
<event>
 7    1  0.3449603E-013  0.5930182E+02  0.7816164E-02  0.1266605E+00
        -11   -1    0    0    0    0  0.00000000000E+00  0.00000000000E+00  0.45593999997E+02  0.45594000000E+02  0.51100000000E-03 0. -1.
         11   -1    0    0    0    0 -0.00000000000E+00 -0.00000000000E+00 -0.45593999997E+02  0.45594000000E+02  0.51100000000E-03 0.  1.
    9900012    2    1    2    0    0  0.27145142405E+02 -0.65343575819E+00 -0.16716549492E+02  0.59301815509E+02  0.49999765612E+02 0.  0.
         12    1    1    2    0    0 -0.27145142405E+02  0.65343575819E+00  0.16716549492E+02  0.31886184491E+02  0.00000000000E+00 0. -1.
         11    1    3    3    0    0 -0.94464767898E+01  0.12742289796E+02 -0.94008540393E+01  0.18438490446E+02  0.51100000000E-03 0. -1.
        -11    1    3    3    0    0  0.23031462020E+01  0.10347031274E+01  0.10474848585E+01  0.27335540564E+01  0.51100000000E-03 0.  1.
        -12    1    3    3    0    0  0.34288472993E+02 -0.14430428682E+02 -0.83631803115E+01  0.38129771007E+02  0.00000000000E+00 0.  1.
</event>
<event>
 7    1  0.3449603E-013  0.5930199E+02  0.7816164E-02  0.1266605E+00
        -11   -1    0    0    0    0  0.00000000000E+00  0.00000000000E+00  0.45593999997E+02  0.45594000000E+02  0.51100000000E-03 0.  1.
         11   -1    0    0    0    0 -0.00000000000E+00 -0.00000000000E+00 -0.45593999997E+02  0.45594000000E+02  0.51100000000E-03 0. -1.
    9900012    2    1    2    0    0  0.21647968107E+02  0.13170762716E+01  0.23374098672E+02  0.59301988933E+02  0.50000081896E+02 0.  0.
         12    1    1    2    0    0 -0.21647968107E+02 -0.13170762716E+01 -0.23374098672E+02  0.31886011067E+02  0.00000000000E+00 0. -1.
         11    1    3    3    0    0  0.17992024890E+01 -0.96007984109E+01  0.27693934537E+02  0.29366076860E+02  0.51100000000E-03 0.  1.
        -11    1    3    3    0    0  0.21776652956E+01  0.64036756279E+00 -0.87324290675E+01  0.90226168286E+01  0.51100000000E-03 0. -1.
        -12    1    3    3    0    0  0.17671100323E+02  0.10277507120E+02  0.44125932019E+01  0.20913295244E+02  0.00000000000E+00 0.  1.
</event>
<event>
 7    1  0.3449603E-013  0.5930207E+02  0.7816164E-02  0.1266604E+00
        -11   -1    0    0    0    0  0.00000000000E+00  0.00000000000E+00  0.45593999997E+02  0.45594000000E+02  0.51100000000E-03 0.  1.
         11   -1    0    0    0    0 -0.00000000000E+00 -0.00000000000E+00 -0.45593999997E+02  0.45594000000E+02  0.51100000000E-03 0. -1.
    9900012    2    1    2    0    0  0.17456953471E+02  0.92510967435E+00  0.26666669462E+02  0.59302073440E+02  0.50000236017E+02 0.  0.
         12    1    1    2    0    0 -0.17456953471E+02 -0.92510967435E+00 -0.26666669462E+02  0.31885926560E+02  0.00000000000E+00 0. -1.
         11    1    3    3    0    0 -0.11635797561E+02 -0.12449403283E+02  0.19914850914E+02  0.26210316941E+02  0.51100000000E-03 0. -1.
        -11    1    3    3    0    0  0.14337297339E+02  0.91744460006E+01  0.42924045808E+01  0.17554295536E+02  0.51100000000E-03 0.  1.
        -12    1    3    3    0    0  0.14755453693E+02  0.42000669568E+01  0.24594139671E+01  0.15537460963E+02  0.00000000000E+00 0.  1.
</event>
<event>
 7    1  0.3449603E-013  0.5930193E+02  0.7816164E-02  0.1266605E+00
        -11   -1    0    0    0    0  0.00000000000E+00  0.00000000000E+00  0.45593999997E+02  0.45594000000E+02  0.51100000000E-03 0. -1.
         11   -1    0    0    0    0 -0.00000000000E+00 -0.00000000000E+00 -0.45593999997E+02  0.45594000000E+02  0.51100000000E-03 0.  1.
    9900012    2    1    2    0    0  0.25918027030E+01  0.29985983485E+02 -0.10528275862E+02  0.59301933459E+02  0.49999980725E+02 0.  0.
         12    1    1    2    0    0 -0.25918027030E+01 -0.29985983485E+02  0.10528275862E+02  0.31886066541E+02  0.00000000000E+00 0. -1.
         11    1    3    3    0    0 -0.57818524976E+01 -0.33333000531E+01  0.23240963816E+01  0.70669747275E+01  0.51100000000E-03 0. -1.
        -11    1    3    3    0    0 -0.21484416131E+01  0.13552576042E+02 -0.23674896418E+02  0.27364006275E+02  0.51100000000E-03 0.  1.
         12    1    3    3    0    0  0.10522096814E+02  0.19766707496E+02  0.10822524174E+02  0.24870952457E+02  0.00000000000E+00 0. -1.
</event>
<event>
 7    1  0.3449603E-013  0.5930201E+02  0.7816164E-02  0.1266605E+00
        -11   -1    0    0    0    0  0.00000000000E+00  0.00000000000E+00  0.45593999997E+02  0.45594000000E+02  0.51100000000E-03 0.  1.
         11   -1    0    0    0    0 -0.00000000000E+00 -0.00000000000E+00 -0.45593999997E+02  0.45594000000E+02  0.51100000000E-03 0. -1.
    9900012    2    1    2    0    0  0.99505785176E+01  0.27788455324E+02  0.12062510940E+02  0.59302008839E+02  0.50000118201E+02 0.  0.
         12    1    1    2    0    0 -0.99505785176E+01 -0.27788455324E+02 -0.12062510940E+02  0.31885991161E+02  0.00000000000E+00 0. -1.
         11    1    3    3    0    0 -0.41791552382E+01  0.94107424197E+01 -0.74162749532E+01  0.12689702354E+02  0.51100000000E-03 0. -1.
        -11    1    3    3    0    0  0.24068300060E+02  0.47191723605E+01  0.66817714694E+01  0.25420458804E+02  0.51100000000E-03 0.  1.
         12    1    3    3    0    0 -0.99385663047E+01  0.13658540544E+02  0.12797014424E+02  0.21191847681E+02  0.00000000000E+00 0. -1.
</event>
<event>
 7    1  0.3449603E-013  0.5930197E+02  0.7816164E-02  0.1266605E+00
        -11   -1    0    0    0    0  0.00000000000E+00  0.00000000000E+00  0.45593999997E+02  0.45594000000E+02  0.51100000000E-03 0.  1.
         11   -1    0    0    0    0 -0.00000000000E+00 -0.00000000000E+00 -0.45593999997E+02  0.45594000000E+02  0.51100000000E-03 0. -1.
    9900012    2    1    2    0    0  0.13567705225E+02  0.19940894470E+02  0.20856586480E+02  0.59301967056E+02  0.50000041997E+02 0.  0.
         12    1    1    2    0    0 -0.13567705225E+02 -0.19940894470E+02 -0.20856586480E+02  0.31886032944E+02  0.00000000000E+00 0. -1.
         11    1    3    3    0    0  0.22745717173E+02  0.52644904230E+01  0.14308550606E+02  0.27382788934E+02  0.51100000000E-03 0. -1.
        -11    1    3    3    0    0  0.56475437888E+00  0.14961845516E+01 -0.91114405683E+01  0.92507224157E+01  0.51100000000E-03 0.  1.
        -12    1    3    3    0    0 -0.97427663264E+01  0.13180219495E+02  0.15659476442E+02  0.22668455706E+02  0.00000000000E+00 0.  1.
</event>
<event>
 7    1  0.3449603E-013  0.5930193E+02  0.7816164E-02  0.1266605E+00
        -11   -1    0    0    0    0  0.00000000000E+00  0.00000000000E+00  0.45593999997E+02  0.45594000000E+02  0.51100000000E-03 0.  1.
         11   -1    0    0    0    0 -0.00000000000E+00 -0.00000000000E+00 -0.45593999997E+02  0.45594000000E+02  0.51100000000E-03 0. -1.
    9900012    2    1    2    0    0  0.26197599099E+02 -0.35182203375E+01  0.17833385865E+02  0.59301925856E+02  0.49999966860E+02 0.  0.
         12    1    1    2    0    0 -0.26197599099E+02  0.35182203375E+01 -0.17833385865E+02  0.31886074144E+02  0.00000000000E+00 0. -1.
         11    1    3    3    0    0  0.62908685094E+00 -0.14618440040E+01  0.13171602578E+02  0.13267398121E+02  0.51100000000E-03 0. -1.
        -11    1    3    3    0    0  0.22351204928E+01 -0.50701748961E+01  0.18107445741E+02  0.18936262267E+02  0.51100000000E-03 0.  1.
        -12    1    3    3    0    0  0.23333391755E+02  0.30137985626E+01 -0.13445662455E+02  0.27098265469E+02  0.00000000000E+00 0.  1.
</event>
<event>
 7    1  0.3449603E-013  0.5930195E+02  0.7816164E-02  0.1266605E+00
        -11   -1    0    0    0    0  0.00000000000E+00  0.00000000000E+00  0.45593999997E+02  0.45594000000E+02  0.51100000000E-03 0. -1.
         11   -1    0    0    0    0 -0.00000000000E+00 -0.00000000000E+00 -0.45593999997E+02  0.45594000000E+02  0.51100000000E-03 0.  1.
    9900012    2    1    2    0    0 -0.77769130056E+01  0.30562627254E+02 -0.47080310369E+01  0.59301951063E+02  0.50000012831E+02 0.  0.
         12    1    1    2    0    0  0.77769130056E+01 -0.30562627254E+02  0.47080310369E+01  0.31886048937E+02  0.00000000000E+00 0. -1.
         11    1    3    3    0    0 -0.18050026837E+02  0.27799808344E+02  0.64921555998E+01  0.33775448145E+02  0.51100000000E-03 0. -1.
        -11    1    3    3    0    0  0.43514465775E+01  0.68142791279E+01 -0.15269458196E+02  0.17277900371E+02  0.51100000000E-03 0.  1.
        -12    1    3    3    0    0  0.59216672541E+01 -0.40514602181E+01  0.40692715594E+01  0.82486025478E+01  0.00000000000E+00 0.  1.
</event>
<event>
 7    1  0.3449603E-013  0.5930199E+02  0.7816164E-02  0.1266605E+00
        -11   -1    0    0    0    0  0.00000000000E+00  0.00000000000E+00  0.45593999997E+02  0.45594000000E+02  0.51100000000E-03 0.  1.
         11   -1    0    0    0    0 -0.00000000000E+00 -0.00000000000E+00 -0.45593999997E+02  0.45594000000E+02  0.51100000000E-03 0. -1.
    9900012    2    1    2    0    0 -0.23521316269E+02 -0.80211340610E+01  0.19978148287E+02  0.59301994925E+02  0.50000092824E+02 0.  0.
         12    1    1    2    0    0  0.23521316269E+02  0.80211340610E+01 -0.19978148287E+02  0.31886005075E+02  0.00000000000E+00 0. -1.
         11    1    3    3    0    0 -0.13528831736E+02  0.35201142090E+01  0.50633918682E+01  0.14868033820E+02  0.51100000000E-03 0. -1.
        -11    1    3    3    0    0  0.13293165775E+01  0.32905507035E+01  0.23590852229E+02  0.23856301382E+02  0.51100000000E-03 0.  1.
         12    1    3    3    0    0 -0.11321801111E+02 -0.14831798973E+02 -0.86760958097E+01  0.20577659723E+02  0.00000000000E+00 0. -1.
</event>
<event>
 7    1  0.3449603E-013  0.5930194E+02  0.7816164E-02  0.1266605E+00
        -11   -1    0    0    0    0  0.00000000000E+00  0.00000000000E+00  0.45593999997E+02  0.45594000000E+02  0.51100000000E-03 0.  1.
         11   -1    0    0    0    0 -0.00000000000E+00 -0.00000000000E+00 -0.45593999997E+02  0.45594000000E+02  0.51100000000E-03 0. -1.
    9900012    2    1    2    0    0 -0.94408546021E+01 -0.26558526060E+02  0.14907580304E+02  0.59301937329E+02  0.49999987784E+02 0.  0.
         12    1    1    2    0    0  0.94408546021E+01  0.26558526060E+02 -0.14907580304E+02  0.31886062671E+02  0.00000000000E+00 0. -1.
         11    1    3    3    0    0  0.10241173374E+02 -0.70899989131E+00  0.14652875813E+02  0.17891089480E+02  0.51100000000E-03 0. -1.
        -11    1    3    3    0    0 -0.12531498219E+02  0.62806938399E+00 -0.49624170249E+01  0.13492905608E+02  0.51100000000E-03 0.  1.
        -12    1    3    3    0    0 -0.71505297571E+01 -0.26477595553E+02  0.52171215158E+01  0.27917942241E+02  0.00000000000E+00 0.  1.
</event>
<event>
 7    1  0.3449603E-013  0.5930192E+02  0.7816164E-02  0.1266605E+00
        -11   -1    0    0    0    0  0.00000000000E+00  0.00000000000E+00  0.45593999997E+02  0.45594000000E+02  0.51100000000E-03 0.  1.
         11   -1    0    0    0    0 -0.00000000000E+00 -0.00000000000E+00 -0.45593999997E+02  0.45594000000E+02  0.51100000000E-03 0. -1.
    9900012    2    1    2    0    0  0.12960633818E+02  0.14888324812E+02  0.25041605912E+02  0.59301917278E+02  0.49999951216E+02 0.  0.
         12    1    1    2    0    0 -0.12960633818E+02 -0.14888324812E+02 -0.25041605912E+02  0.31886082722E+02  0.00000000000E+00 0. -1.
         11    1    3    3    0    0 -0.97773684043E+01  0.98200766265E+01  0.18005232270E+02  0.22720458341E+02  0.51100000000E-03 0. -1.
        -11    1    3    3    0    0 -0.11058537229E+01  0.26135598835E+01  0.11805449847E+02  0.12141756631E+02  0.51100000000E-03 0.  1.
        -12    1    3    3    0    0  0.23843855945E+02  0.24546883025E+01 -0.47690762054E+01  0.24439702307E+02  0.00000000000E+00 0.  1.
</event>
<event>
 7    1  0.3449603E-013  0.5930195E+02  0.7816164E-02  0.1266605E+00
        -11   -1    0    0    0    0  0.00000000000E+00  0.00000000000E+00  0.45593999997E+02  0.45594000000E+02  0.51100000000E-03 0. -1.
         11   -1    0    0    0    0 -0.00000000000E+00 -0.00000000000E+00 -0.45593999997E+02  0.45594000000E+02  0.51100000000E-03 0.  1.
    9900012    2    1    2    0    0 -0.19605935444E+02  0.73760323201E+01 -0.24039995177E+02  0.59301954063E+02  0.50000018302E+02 0.  0.
         12    1    1    2    0    0  0.19605935444E+02 -0.73760323201E+01  0.24039995177E+02  0.31886045937E+02  0.00000000000E+00 0. -1.
         11    1    3    3    0    0 -0.96377218586E+01 -0.72632608802E+01  0.81140498165E+01  0.14542298509E+02  0.51100000000E-03 0. -1.
        -11    1    3    3    0    0 -0.88633333360E+01 -0.38404367520E+01 -0.21079375283E+02  0.23187231289E+02  0.51100000000E-03 0.  1.
         12    1    3    3    0    0 -0.11048802491E+01  0.18479729952E+02 -0.11074669710E+02  0.21572424265E+02  0.00000000000E+00 0. -1.
</event>
<event>
 7    1  0.3449603E-013  0.5930195E+02  0.7816164E-02  0.1266605E+00
        -11   -1    0    0    0    0  0.00000000000E+00  0.00000000000E+00  0.45593999997E+02  0.45594000000E+02  0.51100000000E-03 0.  1.
         11   -1    0    0    0    0 -0.00000000000E+00 -0.00000000000E+00 -0.45593999997E+02  0.45594000000E+02  0.51100000000E-03 0. -1.
    9900012    2    1    2    0    0 -0.24842311217E+02 -0.11363548459E+02  0.16445356940E+02  0.59301946229E+02  0.50000004015E+02 0.  0.
         12    1    1    2    0    0  0.24842311217E+02  0.11363548459E+02 -0.16445356940E+02  0.31886053771E+02  0.00000000000E+00 0. -1.
         11    1    3    3    0    0  0.84525195310E+01 -0.62181486907E+01  0.20782339178E+01  0.10697173273E+02  0.51100000000E-03 0. -1.
        -11    1    3    3    0    0 -0.12735161647E+02 -0.15329287904E+02  0.16065589145E+02  0.25598331287E+02  0.51100000000E-03 0.  1.
        -12    1    3    3    0    0 -0.20559669101E+02  0.10183888136E+02 -0.16984661225E+01  0.23006441669E+02  0.00000000000E+00 0.  1.
</event>
<event>
 7    1  0.3449603E-013  0.5930190E+02  0.7816164E-02  0.1266605E+00
        -11   -1    0    0    0    0  0.00000000000E+00  0.00000000000E+00  0.45593999997E+02  0.45594000000E+02  0.51100000000E-03 0. -1.
         11   -1    0    0    0    0 -0.00000000000E+00 -0.00000000000E+00 -0.45593999997E+02  0.45594000000E+02  0.51100000000E-03 0.  1.
    9900012    2    1    2    0    0  0.41054222551E+01  0.23794436757E+02  0.20825316290E+02  0.59301897838E+02  0.49999915761E+02 0.  0.
         12    1    1    2    0    0 -0.41054222551E+01 -0.23794436757E+02 -0.20825316290E+02  0.31886102162E+02  0.00000000000E+00 0. -1.
         11    1    3    3    0    0 -0.73597394406E+01  0.20882405240E+02  0.24536769460E+02  0.33049866399E+02  0.51100000000E-03 0. -1.
        -11    1    3    3    0    0  0.96893944830E+01  0.11648208790E+02 -0.70774663226E+01  0.16722908338E+02  0.51100000000E-03 0.  1.
        -12    1    3    3    0    0  0.17757672128E+01 -0.87361772726E+01  0.33660131528E+01  0.95291231011E+01  0.00000000000E+00 0.  1.
</event>
<event>
 7    1  0.3449603E-013  0.5930194E+02  0.7816164E-02  0.1266605E+00
        -11   -1    0    0    0    0  0.00000000000E+00  0.00000000000E+00  0.45593999997E+02  0.45594000000E+02  0.51100000000E-03 0.  1.
         11   -1    0    0    0    0 -0.00000000000E+00 -0.00000000000E+00 -0.45593999997E+02  0.45594000000E+02  0.51100000000E-03 0. -1.
    9900012    2    1    2    0    0  0.29501173516E+02  0.11939959925E+02  0.19592693388E+01  0.59301943201E+02  0.49999998493E+02 0.  0.
         12    1    1    2    0    0 -0.29501173516E+02 -0.11939959925E+02 -0.19592693388E+01  0.31886056799E+02  0.00000000000E+00 0. -1.
         11    1    3    3    0    0  0.12482983722E+01  0.12847593326E+01 -0.13893179988E+02  0.14008187100E+02  0.51100000000E-03 0. -1.
        -11    1    3    3    0    0  0.35679158580E+01  0.14638052491E+02  0.13410876134E+02  0.20170627239E+02  0.51100000000E-03 0.  1.
        -12    1    3    3    0    0  0.24684959286E+02 -0.39828518986E+01  0.24415731936E+01  0.25123128862E+02  0.00000000000E+00 0.  1.
</event>
<event>
 7    1  0.3449603E-013  0.5930194E+02  0.7816164E-02  0.1266605E+00
        -11   -1    0    0    0    0  0.00000000000E+00  0.00000000000E+00  0.45593999997E+02  0.45594000000E+02  0.51100000000E-03 0.  1.
         11   -1    0    0    0    0 -0.00000000000E+00 -0.00000000000E+00 -0.45593999997E+02  0.45594000000E+02  0.51100000000E-03 0. -1.
    9900012    2    1    2    0    0 -0.16016105574E+02  0.21052818794E+02  0.17804038447E+02  0.59301943455E+02  0.49999998956E+02 0.  0.
         12    1    1    2    0    0  0.16016105574E+02 -0.21052818794E+02 -0.17804038447E+02  0.31886056545E+02  0.00000000000E+00 0. -1.
         11    1    3    3    0    0 -0.16185349548E+02 -0.49367574418E+01  0.78871807264E+01  0.18669352804E+02  0.51100000000E-03 0. -1.
        -11    1    3    3    0    0 -0.17227945702E+01 -0.62909808036E+01  0.42999199990E+01  0.78124114626E+01  0.51100000000E-03 0.  1.
        -12    1    3    3    0    0  0.18920385440E+01  0.32280557039E+02  0.56169377220E+01  0.32820179189E+02  0.00000000000E+00 0.  1.
</event>
<event>
 7    1  0.3449603E-013  0.5930191E+02  0.7816164E-02  0.1266605E+00
        -11   -1    0    0    0    0  0.00000000000E+00  0.00000000000E+00  0.45593999997E+02  0.45594000000E+02  0.51100000000E-03 0.  1.
         11   -1    0    0    0    0 -0.00000000000E+00 -0.00000000000E+00 -0.45593999997E+02  0.45594000000E+02  0.51100000000E-03 0. -1.
    9900012    2    1    2    0    0 -0.13103883738E+02  0.26613106921E+02  0.11694154580E+02  0.59301914001E+02  0.49999945238E+02 0.  0.
         12    1    1    2    0    0  0.13103883738E+02 -0.26613106921E+02 -0.11694154580E+02  0.31886085999E+02  0.00000000000E+00 0. -1.
         11    1    3    3    0    0  0.94874777477E+01  0.32746464635E+01  0.10957188003E+02  0.14859189503E+02  0.51100000000E-03 0. -1.
        -11    1    3    3    0    0  0.30436729061E+00 -0.32860555700E+01  0.79380727883E+01  0.85967319668E+01  0.51100000000E-03 0.  1.
        -12    1    3    3    0    0 -0.22895728776E+02  0.26624516028E+02 -0.72011062119E+01  0.35845992531E+02  0.00000000000E+00 0.  1.
</event>
<event>
 7    1  0.3449603E-013  0.5930191E+02  0.7816164E-02  0.1266605E+00
        -11   -1    0    0    0    0  0.00000000000E+00  0.00000000000E+00  0.45593999997E+02  0.45594000000E+02  0.51100000000E-03 0.  1.
         11   -1    0    0    0    0 -0.00000000000E+00 -0.00000000000E+00 -0.45593999997E+02  0.45594000000E+02  0.51100000000E-03 0. -1.
    9900012    2    1    2    0    0  0.97839398059E+01  0.30295942666E+02  0.17756160409E+01  0.59301914752E+02  0.49999946607E+02 0.  0.
         12    1    1    2    0    0 -0.97839398059E+01 -0.30295942666E+02 -0.17756160409E+01  0.31886085248E+02  0.00000000000E+00 0. -1.
         11    1    3    3    0    0  0.16714789834E+02  0.40551725593E+01 -0.69733684470E+01  0.18559539095E+02  0.51100000000E-03 0. -1.
        -11    1    3    3    0    0 -0.10217335948E+01  0.24954522013E+02 -0.52248337361E+01  0.25516092888E+02  0.51100000000E-03 0.  1.
         12    1    3    3    0    0 -0.59091164329E+01  0.12862480933E+01  0.13973818224E+02  0.15226282768E+02  0.00000000000E+00 0. -1.
</event>
<event>
 7    1  0.3449603E-013  0.5930195E+02  0.7816164E-02  0.1266605E+00
        -11   -1    0    0    0    0  0.00000000000E+00  0.00000000000E+00  0.45593999997E+02  0.45594000000E+02  0.51100000000E-03 0.  1.
         11   -1    0    0    0    0 -0.00000000000E+00 -0.00000000000E+00 -0.45593999997E+02  0.45594000000E+02  0.51100000000E-03 0. -1.
    9900012    2    1    2    0    0  0.29216434937E+02 -0.11785523070E+02  0.49215171629E+01  0.59301953590E+02  0.50000017440E+02 0.  0.
         12    1    1    2    0    0 -0.29216434937E+02  0.11785523070E+02 -0.49215171629E+01  0.31886046410E+02  0.00000000000E+00 0. -1.
         11    1    3    3    0    0 -0.34443637385E+00 -0.11353111738E+02  0.71300200249E+01  0.13410778067E+02  0.51100000000E-03 0. -1.
        -11    1    3    3    0    0  0.24089095980E-01 -0.62346564879E+00  0.12761568925E+02  0.12776812255E+02  0.51100000000E-03 0.  1.
        -12    1    3    3    0    0  0.29536782215E+02  0.19105431681E+00 -0.14970071787E+02  0.33114363269E+02  0.00000000000E+00 0.  1.
</event>
<event>
 7    1  0.3449603E-013  0.5930197E+02  0.7816164E-02  0.1266605E+00
        -11   -1    0    0    0    0  0.00000000000E+00  0.00000000000E+00  0.45593999997E+02  0.45594000000E+02  0.51100000000E-03 0.  1.
         11   -1    0    0    0    0 -0.00000000000E+00 -0.00000000000E+00 -0.45593999997E+02  0.45594000000E+02  0.51100000000E-03 0. -1.
    9900012    2    1    2    0    0 -0.19994709245E+02  0.20047005367E+02  0.14664509203E+02  0.59301974030E+02  0.50000054717E+02 0.  0.
         12    1    1    2    0    0  0.19994709245E+02 -0.20047005367E+02 -0.14664509203E+02  0.31886025970E+02  0.00000000000E+00 0. -1.
         11    1    3    3    0    0 -0.14457603688E+02  0.14964123939E+02 -0.26988028394E+01  0.20981678834E+02  0.51100000000E-03 0. -1.
        -11    1    3    3    0    0 -0.10981947153E+02  0.15978384881E+02  0.32182679327E+01  0.19653732353E+02  0.51100000000E-03 0.  1.
         12    1    3    3    0    0  0.54448415965E+01 -0.10895503453E+02  0.14145044110E+02  0.18666562843E+02  0.00000000000E+00 0. -1.
</event>
<event>
 7    1  0.3449603E-013  0.5930190E+02  0.7816164E-02  0.1266605E+00
        -11   -1    0    0    0    0  0.00000000000E+00  0.00000000000E+00  0.45593999997E+02  0.45594000000E+02  0.51100000000E-03 0.  1.
         11   -1    0    0    0    0 -0.00000000000E+00 -0.00000000000E+00 -0.45593999997E+02  0.45594000000E+02  0.51100000000E-03 0. -1.
    9900012    2    1    2    0    0 -0.80985866430E+00  0.15680570951E+02  0.27752250087E+02  0.59301897050E+02  0.49999914324E+02 0.  0.
         12    1    1    2    0    0  0.80985866430E+00 -0.15680570951E+02 -0.27752250087E+02  0.31886102950E+02  0.00000000000E+00 0. -1.
         11    1    3    3    0    0  0.18155763365E+01 -0.98848419255E+00  0.22839024807E+01  0.30805241819E+01  0.51100000000E-03 0. -1.
        -11    1    3    3    0    0 -0.48477845152E+01 -0.14064559940E+02 -0.19136926784E+01  0.14999169341E+02  0.51100000000E-03 0.  1.
        -12    1    3    3    0    0  0.22223495144E+01  0.30733615083E+02  0.27382040285E+02  0.41222203527E+02  0.00000000000E+00 0.  1.
</event>
<event>
 7    1  0.3449603E-013  0.5930196E+02  0.7816164E-02  0.1266605E+00
        -11   -1    0    0    0    0  0.00000000000E+00  0.00000000000E+00  0.45593999997E+02  0.45594000000E+02  0.51100000000E-03 0.  1.
         11   -1    0    0    0    0 -0.00000000000E+00 -0.00000000000E+00 -0.45593999997E+02  0.45594000000E+02  0.51100000000E-03 0. -1.
    9900012    2    1    2    0    0 -0.86687611867E+01  0.12303419903E+02  0.28110460779E+02  0.59301959684E+02  0.50000028553E+02 0.  0.
         12    1    1    2    0    0  0.86687611867E+01 -0.12303419903E+02 -0.28110460779E+02  0.31886040316E+02  0.00000000000E+00 0. -1.
         11    1    3    3    0    0 -0.57695018885E+01 -0.23680334057E+01 -0.95307724930E+00  0.63089690724E+01  0.51100000000E-03 0. -1.
        -11    1    3    3    0    0 -0.21272731327E+02  0.90380068494E+01  0.23556344875E+02  0.33001758287E+02  0.51100000000E-03 0.  1.
         12    1    3    3    0    0  0.18373472029E+02  0.56334464594E+01  0.55071931540E+01  0.19991232324E+02  0.00000000000E+00 0. -1.
</event>
<event>
 7    1  0.3449603E-013  0.5930192E+02  0.7816164E-02  0.1266605E+00
        -11   -1    0    0    0    0  0.00000000000E+00  0.00000000000E+00  0.45593999997E+02  0.45594000000E+02  0.51100000000E-03 0.  1.
         11   -1    0    0    0    0 -0.00000000000E+00 -0.00000000000E+00 -0.45593999997E+02  0.45594000000E+02  0.51100000000E-03 0. -1.
    9900012    2    1    2    0    0 -0.31042657505E+02  0.35072821568E+01  0.63855023963E+01  0.59301917551E+02  0.49999951713E+02 0.  0.
         12    1    1    2    0    0  0.31042657505E+02 -0.35072821568E+01 -0.63855023963E+01  0.31886082449E+02  0.00000000000E+00 0. -1.
         11    1    3    3    0    0  0.59154861144E+01 -0.15031446539E+02 -0.92762634980E+00  0.16180168477E+02  0.51100000000E-03 0.  1.
        -11    1    3    3    0    0 -0.10310095915E+02  0.89079044925E+01 -0.79809879850E+00  0.13648655691E+02  0.51100000000E-03 0. -1.
        -12    1    3    3    0    0 -0.26648047704E+02  0.96308242035E+01  0.81112275445E+01  0.29473093383E+02  0.00000000000E+00 0.  1.
</event>
<event>
 7    1  0.3449603E-013  0.5930194E+02  0.7816164E-02  0.1266605E+00
        -11   -1    0    0    0    0  0.00000000000E+00  0.00000000000E+00  0.45593999997E+02  0.45594000000E+02  0.51100000000E-03 0. -1.
         11   -1    0    0    0    0 -0.00000000000E+00 -0.00000000000E+00 -0.45593999997E+02  0.45594000000E+02  0.51100000000E-03 0.  1.
    9900012    2    1    2    0    0 -0.32248562122E+01  0.30748138389E+02 -0.78021113657E+01  0.59301942643E+02  0.49999997475E+02 0.  0.
         12    1    1    2    0    0  0.32248562122E+01 -0.30748138389E+02  0.78021113657E+01  0.31886057357E+02  0.00000000000E+00 0. -1.
         11    1    3    3    0    0  0.21501039702E+01  0.13502547838E+02  0.13142535242E+02  0.18964914396E+02  0.51100000000E-03 0. -1.
        -11    1    3    3    0    0  0.42784601129E+01  0.22163389788E+02 -0.92472180327E+01  0.24393280005E+02  0.51100000000E-03 0.  1.
        -12    1    3    3    0    0 -0.96534202953E+01 -0.49177992367E+01 -0.11697428575E+02  0.15943748242E+02  0.00000000000E+00 0.  1.
</event>
<event>
 7    1  0.3449603E-013  0.5930193E+02  0.7816164E-02  0.1266605E+00
        -11   -1    0    0    0    0  0.00000000000E+00  0.00000000000E+00  0.45593999997E+02  0.45594000000E+02  0.51100000000E-03 0.  1.
         11   -1    0    0    0    0 -0.00000000000E+00 -0.00000000000E+00 -0.45593999997E+02  0.45594000000E+02  0.51100000000E-03 0. -1.
    9900012    2    1    2    0    0 -0.23031653416E+02  0.18014048711E+02 -0.12718422611E+02  0.59301932765E+02  0.49999979459E+02 0.  0.
         12    1    1    2    0    0  0.23031653416E+02 -0.18014048711E+02  0.12718422611E+02  0.31886067235E+02  0.00000000000E+00 0. -1.
         11    1    3    3    0    0 -0.24634944499E+01  0.57283603412E+01 -0.15553942846E+01  0.64266763373E+01  0.51100000000E-03 0. -1.
        -11    1    3    3    0    0  0.55695413391E+01  0.18046906049E+02  0.74194400958E+01  0.20291838267E+02  0.51100000000E-03 0.  1.
         12    1    3    3    0    0 -0.26137700305E+02 -0.57612176792E+01 -0.18582468422E+02  0.32583418160E+02  0.00000000000E+00 0. -1.
</event>
<event>
 7    1  0.3449603E-013  0.5930223E+02  0.7816164E-02  0.1266604E+00
        -11   -1    0    0    0    0  0.00000000000E+00  0.00000000000E+00  0.45593999997E+02  0.45594000000E+02  0.51100000000E-03 0.  1.
         11   -1    0    0    0    0 -0.00000000000E+00 -0.00000000000E+00 -0.45593999997E+02  0.45594000000E+02  0.51100000000E-03 0. -1.
    9900012    2    1    2    0    0 -0.10313247575E+02 -0.29730428481E+02  0.51420578210E+01  0.59302231829E+02  0.50000524877E+02 0.  0.
         12    1    1    2    0    0  0.10313247575E+02  0.29730428481E+02 -0.51420578210E+01  0.31885768171E+02  0.00000000000E+00 0. -1.
         11    1    3    3    0    0 -0.59250001687E+01  0.16111572714E+01  0.10145463946E+02  0.11858831885E+02  0.51100000000E-03 0. -1.
        -11    1    3    3    0    0  0.50395521880E+01 -0.74616033714E+01  0.13194780748E+02  0.15974193262E+02  0.51100000000E-03 0.  1.
         12    1    3    3    0    0 -0.94277995946E+01 -0.23879982381E+02 -0.18198186872E+02  0.31469206682E+02  0.00000000000E+00 0. -1.
</event>
<event>
 7    1  0.3449603E-013  0.5930195E+02  0.7816164E-02  0.1266605E+00
        -11   -1    0    0    0    0  0.00000000000E+00  0.00000000000E+00  0.45593999997E+02  0.45594000000E+02  0.51100000000E-03 0. -1.
         11   -1    0    0    0    0 -0.00000000000E+00 -0.00000000000E+00 -0.45593999997E+02  0.45594000000E+02  0.51100000000E-03 0.  1.
    9900012    2    1    2    0    0 -0.13307348122E+02 -0.28738887735E+02  0.37028666556E+01  0.59301946563E+02  0.50000004624E+02 0.  0.
         12    1    1    2    0    0  0.13307348122E+02  0.28738887735E+02 -0.37028666556E+01  0.31886053437E+02  0.00000000000E+00 0. -1.
         11    1    3    3    0    0 -0.23439735252E+01 -0.32361493433E+02  0.81508973479E+01  0.33454410725E+02  0.51100000000E-03 0. -1.
        -11    1    3    3    0    0 -0.47110553232E+01 -0.77406024357E+01  0.44735254353E+01  0.10105612223E+02  0.51100000000E-03 0.  1.
        -12    1    3    3    0    0 -0.62523192737E+01  0.11363208133E+02 -0.89215561275E+01  0.15741923615E+02  0.00000000000E+00 0.  1.
</event>
<event>
 7    1  0.3449603E-013  0.5930196E+02  0.7816164E-02  0.1266605E+00
        -11   -1    0    0    0    0  0.00000000000E+00  0.00000000000E+00  0.45593999997E+02  0.45594000000E+02  0.51100000000E-03 0.  1.
         11   -1    0    0    0    0 -0.00000000000E+00 -0.00000000000E+00 -0.45593999997E+02  0.45594000000E+02  0.51100000000E-03 0. -1.
    9900012    2    1    2    0    0 -0.24061778995E+02 -0.13768777029E+02  0.15753451415E+02  0.59301958214E+02  0.50000025872E+02 0.  0.
         12    1    1    2    0    0  0.24061778995E+02  0.13768777029E+02 -0.15753451415E+02  0.31886041786E+02  0.00000000000E+00 0. -1.
         11    1    3    3    0    0 -0.34397992238E+00  0.32436596492E+01 -0.74570421034E+01  0.81392338276E+01  0.51100000000E-03 0. -1.
        -11    1    3    3    0    0  0.40011334007E-01 -0.85629280191E+01  0.24460590573E+02  0.25916130664E+02  0.51100000000E-03 0.  1.
         12    1    3    3    0    0 -0.23757810407E+02 -0.84495086591E+01 -0.12500970541E+01  0.25246593722E+02  0.00000000000E+00 0. -1.
</event>
<event>
 7    1  0.3449603E-013  0.5930195E+02  0.7816164E-02  0.1266605E+00
        -11   -1    0    0    0    0  0.00000000000E+00  0.00000000000E+00  0.45593999997E+02  0.45594000000E+02  0.51100000000E-03 0. -1.
         11   -1    0    0    0    0 -0.00000000000E+00 -0.00000000000E+00 -0.45593999997E+02  0.45594000000E+02  0.51100000000E-03 0.  1.
    9900012    2    1    2    0    0  0.12555114595E+02 -0.28657616024E+02  0.61506556338E+01  0.59301946255E+02  0.50000004062E+02 0.  0.
         12    1    1    2    0    0 -0.12555114595E+02  0.28657616024E+02 -0.61506556338E+01  0.31886053745E+02  0.00000000000E+00 0. -1.
         11    1    3    3    0    0 -0.93228468217E+01 -0.15017137848E+02  0.60034937271E+01  0.18667400440E+02  0.51100000000E-03 0. -1.
        -11    1    3    3    0    0  0.42655164097E+00 -0.12220765015E+02 -0.10973676459E+02  0.16430174044E+02  0.51100000000E-03 0.  1.
        -12    1    3    3    0    0  0.21451409776E+02 -0.14197131611E+01  0.11120838365E+02  0.24204371770E+02  0.00000000000E+00 0.  1.
</event>
<event>
 7    1  0.3449603E-013  0.5930190E+02  0.7816164E-02  0.1266605E+00
        -11   -1    0    0    0    0  0.00000000000E+00  0.00000000000E+00  0.45593999997E+02  0.45594000000E+02  0.51100000000E-03 0. -1.
         11   -1    0    0    0    0 -0.00000000000E+00 -0.00000000000E+00 -0.45593999997E+02  0.45594000000E+02  0.51100000000E-03 0.  1.
    9900012    2    1    2    0    0 -0.13669850281E+02 -0.19083826258E+02 -0.21579294169E+02  0.59301903215E+02  0.49999925568E+02 0.  0.
         12    1    1    2    0    0  0.13669850281E+02  0.19083826258E+02  0.21579294169E+02  0.31886096785E+02  0.00000000000E+00 0. -1.
         11    1    3    3    0    0 -0.12204271339E+02  0.40035467989E+01  0.45850018989E+01  0.13637993568E+02  0.51100000000E-03 0. -1.
        -11    1    3    3    0    0 -0.27233559375E+01  0.63874575264E+01 -0.95439177657E+01  0.11802654269E+02  0.51100000000E-03 0.  1.
         12    1    3    3    0    0  0.12577769955E+01 -0.29474830583E+02 -0.16620378302E+02  0.33861255378E+02  0.00000000000E+00 0. -1.
</event>
<event>
 7    1  0.3449603E-013  0.5930203E+02  0.7816164E-02  0.1266604E+00
        -11   -1    0    0    0    0  0.00000000000E+00  0.00000000000E+00  0.45593999997E+02  0.45594000000E+02  0.51100000000E-03 0.  1.
         11   -1    0    0    0    0 -0.00000000000E+00 -0.00000000000E+00 -0.45593999997E+02  0.45594000000E+02  0.51100000000E-03 0. -1.
    9900012    2    1    2    0    0  0.97782739432E+00 -0.16926620592E+02  0.27004604132E+02  0.59302026981E+02  0.50000151286E+02 0.  0.
         12    1    1    2    0    0 -0.97782739432E+00  0.16926620592E+02 -0.27004604132E+02  0.31885973019E+02  0.00000000000E+00 0. -1.
         11    1    3    3    0    0  0.69220498156E+01  0.25305623834E+01  0.14611352184E+02  0.16364905516E+02  0.51100000000E-03 0. -1.
        -11    1    3    3    0    0  0.69408758130E+01  0.31734775180E+01  0.14934594691E+02  0.16771667641E+02  0.51100000000E-03 0.  1.
         12    1    3    3    0    0 -0.12885098234E+02 -0.22630660493E+02 -0.25413427436E+01  0.26165453824E+02  0.00000000000E+00 0. -1.
</event>
<event>
 7    1  0.3449603E-013  0.5930194E+02  0.7816164E-02  0.1266605E+00
        -11   -1    0    0    0    0  0.00000000000E+00  0.00000000000E+00  0.45593999997E+02  0.45594000000E+02  0.51100000000E-03 0.  1.
         11   -1    0    0    0    0 -0.00000000000E+00 -0.00000000000E+00 -0.45593999997E+02  0.45594000000E+02  0.51100000000E-03 0. -1.
    9900012    2    1    2    0    0 -0.98238969244E+01 -0.12973098669E+02  0.27420986179E+02  0.59301941559E+02  0.49999995498E+02 0.  0.
         12    1    1    2    0    0  0.98238969244E+01  0.12973098669E+02 -0.27420986179E+02  0.31886058441E+02  0.00000000000E+00 0. -1.
         11    1    3    3    0    0 -0.44177445808E+01  0.35061843903E+01  0.78041976258E+01  0.96288782837E+01  0.51100000000E-03 0. -1.
        -11    1    3    3    0    0 -0.18022120099E+02 -0.18553289496E+02  0.24840448986E+02  0.35861807959E+02  0.51100000000E-03 0.  1.
         12    1    3    3    0    0  0.12615967755E+02  0.20740064369E+01 -0.52236604329E+01  0.13811255317E+02  0.00000000000E+00 0. -1.
</event>
<event>
 7    1  0.3449603E-013  0.5930192E+02  0.7816164E-02  0.1266605E+00
        -11   -1    0    0    0    0  0.00000000000E+00  0.00000000000E+00  0.45593999997E+02  0.45594000000E+02  0.51100000000E-03 0.  1.
         11   -1    0    0    0    0 -0.00000000000E+00 -0.00000000000E+00 -0.45593999997E+02  0.45594000000E+02  0.51100000000E-03 0. -1.
    9900012    2    1    2    0    0 -0.83996257779E+01 -0.26866048495E+02  0.14979442286E+02  0.59301922064E+02  0.49999959943E+02 0.  0.
         12    1    1    2    0    0  0.83996257779E+01  0.26866048495E+02 -0.14979442286E+02  0.31886077936E+02  0.00000000000E+00 0. -1.
         11    1    3    3    0    0 -0.13270405280E+02 -0.14754876593E+02 -0.54834964982E+01  0.20588316436E+02  0.51100000000E-03 0. -1.
        -11    1    3    3    0    0  0.16811986037E+01 -0.21568186679E+02  0.87782739774E+01  0.23346759939E+02  0.51100000000E-03 0.  1.
         12    1    3    3    0    0  0.31895808980E+01  0.94570147763E+01  0.11684664807E+02  0.15366845689E+02  0.00000000000E+00 0. -1.
</event>
<event>
 7    1  0.4356794E-013  0.5930229E+02  0.7816164E-02  0.1266604E+00
        -11   -1    0    0    0    0  0.00000000000E+00  0.00000000000E+00  0.45593999997E+02  0.45594000000E+02  0.51100000000E-03 0. -1.
         11   -1    0    0    0    0 -0.00000000000E+00 -0.00000000000E+00 -0.45593999997E+02  0.45594000000E+02  0.51100000000E-03 0.  1.
    9900012    2    1    2    0    0 -0.71549679069E+01  0.31030724508E+02 -0.16121776233E+01  0.59302289314E+02  0.50000629716E+02 0.  0.
         12    1    1    2    0    0  0.71549679069E+01 -0.31030724508E+02  0.16121776233E+01  0.31885710686E+02  0.00000000000E+00 0. -1.
         11    1    3    3    0    0  0.46079679093E+01  0.16888339097E+01 -0.12756964553E+02  0.13668418822E+02  0.51100000000E-03 0. -1.
        -11    1    3    3    0    0 -0.62667721820E+01  0.12401862077E+02 -0.10636192781E+02  0.17498777492E+02  0.51100000000E-03 0.  1.
         12    1    3    3    0    0 -0.54961636342E+01  0.16940028521E+02  0.21780979711E+02  0.28135093001E+02  0.00000000000E+00 0. -1.
</event>
<event>
 7    1  0.3449603E-013  0.5930195E+02  0.7816164E-02  0.1266605E+00
        -11   -1    0    0    0    0  0.00000000000E+00  0.00000000000E+00  0.45593999997E+02  0.45594000000E+02  0.51100000000E-03 0.  1.
         11   -1    0    0    0    0 -0.00000000000E+00 -0.00000000000E+00 -0.45593999997E+02  0.45594000000E+02  0.51100000000E-03 0. -1.
    9900012    2    1    2    0    0  0.91864344055E+01 -0.55833755448E+01  0.30019255123E+02  0.59301947599E+02  0.50000006513E+02 0.  0.
         12    1    1    2    0    0 -0.91864344055E+01  0.55833755448E+01 -0.30019255123E+02  0.31886052401E+02  0.00000000000E+00 0. -1.
         11    1    3    3    0    0  0.28453223669E+01 -0.54018609275E+01  0.33443654536E+02  0.33996382011E+02  0.51100000000E-03 0. -1.
        -11    1    3    3    0    0  0.13995383352E+02 -0.47077709578E+01  0.19823806351E+01  0.14898446087E+02  0.51100000000E-03 0.  1.
         12    1    3    3    0    0 -0.76542713137E+01  0.45262563405E+01 -0.54067800481E+01  0.10407119500E+02  0.00000000000E+00 0. -1.
</event>
<event>
 7    1  0.3449603E-013  0.5930195E+02  0.7816164E-02  0.1266605E+00
        -11   -1    0    0    0    0  0.00000000000E+00  0.00000000000E+00  0.45593999997E+02  0.45594000000E+02  0.51100000000E-03 0. -1.
         11   -1    0    0    0    0 -0.00000000000E+00 -0.00000000000E+00 -0.45593999997E+02  0.45594000000E+02  0.51100000000E-03 0.  1.
    9900012    2    1    2    0    0 -0.29780175810E+02  0.25007592041E+01 -0.11117881098E+02  0.59301953710E+02  0.50000017658E+02 0.  0.
         12    1    1    2    0    0  0.29780175810E+02 -0.25007592041E+01  0.11117881098E+02  0.31886046290E+02  0.00000000000E+00 0. -1.
         11    1    3    3    0    0  0.59673291917E+01 -0.12309151790E+02 -0.71811431956E+01  0.15449694280E+02  0.51100000000E-03 0. -1.
        -11    1    3    3    0    0 -0.11545602989E+02 -0.16285288233E+01 -0.82443602191E+01  0.14280144613E+02  0.51100000000E-03 0.  1.
        -12    1    3    3    0    0 -0.24201902014E+02  0.16438439818E+02  0.43076223169E+01  0.29572114817E+02  0.00000000000E+00 0.  1.
</event>
<event>
 7    1  0.3449603E-013  0.5930194E+02  0.7816164E-02  0.1266605E+00
        -11   -1    0    0    0    0  0.00000000000E+00  0.00000000000E+00  0.45593999997E+02  0.45594000000E+02  0.51100000000E-03 0.  1.
         11   -1    0    0    0    0 -0.00000000000E+00 -0.00000000000E+00 -0.45593999997E+02  0.45594000000E+02  0.51100000000E-03 0. -1.
    9900012    2    1    2    0    0  0.23954960738E+01 -0.20227964440E+02  0.24531851670E+02  0.59301942025E+02  0.49999996348E+02 0.  0.
         12    1    1    2    0    0 -0.23954960738E+01  0.20227964440E+02 -0.24531851670E+02  0.31886057975E+02  0.00000000000E+00 0. -1.
         11    1    3    3    0    0 -0.23188171440E+01  0.19065869651E+01 -0.29381430474E+01  0.42005561097E+01  0.51100000000E-03 0. -1.
        -11    1    3    3    0    0  0.16056876119E+02  0.20904474656E+01  0.22773576451E+02  0.27943318091E+02  0.51100000000E-03 0.  1.
        -12    1    3    3    0    0 -0.11342562901E+02 -0.24224998870E+02  0.46964182661E+01  0.27158067825E+02  0.00000000000E+00 0.  1.
</event>
<event>
 7    1  0.3449603E-013  0.5930195E+02  0.7816164E-02  0.1266605E+00
        -11   -1    0    0    0    0  0.00000000000E+00  0.00000000000E+00  0.45593999997E+02  0.45594000000E+02  0.51100000000E-03 0.  1.
         11   -1    0    0    0    0 -0.00000000000E+00 -0.00000000000E+00 -0.45593999997E+02  0.45594000000E+02  0.51100000000E-03 0. -1.
    9900012    2    1    2    0    0 -0.18989070318E+02 -0.19027599770E+02  0.17148939521E+02  0.59301945506E+02  0.50000002695E+02 0.  0.
         12    1    1    2    0    0  0.18989070318E+02  0.19027599770E+02 -0.17148939521E+02  0.31886054494E+02  0.00000000000E+00 0. -1.
         11    1    3    3    0    0  0.46266533719E+01  0.26026010866E+01  0.90776253860E+01  0.10515832670E+02  0.51100000000E-03 0. -1.
        -11    1    3    3    0    0 -0.17327517166E+02  0.63564140540E+01  0.79640315045E+01  0.20101558368E+02  0.51100000000E-03 0.  1.
        -12    1    3    3    0    0 -0.62882065242E+01 -0.27986614910E+02  0.10728263040E+00  0.28684554467E+02  0.00000000000E+00 0.  1.
</event>
<event>
 7    1  0.3449603E-013  0.5930175E+02  0.7816164E-02  0.1266605E+00
        -11   -1    0    0    0    0  0.00000000000E+00  0.00000000000E+00  0.45593999997E+02  0.45594000000E+02  0.51100000000E-03 0.  1.
         11   -1    0    0    0    0 -0.00000000000E+00 -0.00000000000E+00 -0.45593999997E+02  0.45594000000E+02  0.51100000000E-03 0. -1.
    9900012    2    1    2    0    0 -0.13648321078E+02 -0.14373143253E+02  0.24977367390E+02  0.59301752228E+02  0.49999650202E+02 0.  0.
         12    1    1    2    0    0  0.13648321078E+02  0.14373143253E+02 -0.24977367390E+02  0.31886247772E+02  0.00000000000E+00 0. -1.
         11    1    3    3    0    0 -0.22254566432E+01  0.92281028467E+01 -0.75631581140E+01  0.12137211391E+02  0.51100000000E-03 0. -1.
        -11    1    3    3    0    0  0.18958521833E+01  0.79090566838E+00 -0.19759520383E+01  0.28502936684E+01  0.51100000000E-03 0.  1.
        -12    1    3    3    0    0 -0.13318716618E+02 -0.24392151769E+02  0.34516477542E+02  0.44314247169E+02  0.00000000000E+00 0.  1.
</event>
<event>
 7    1  0.3449603E-013  0.5930199E+02  0.7816164E-02  0.1266605E+00
        -11   -1    0    0    0    0  0.00000000000E+00  0.00000000000E+00  0.45593999997E+02  0.45594000000E+02  0.51100000000E-03 0.  1.
         11   -1    0    0    0    0 -0.00000000000E+00 -0.00000000000E+00 -0.45593999997E+02  0.45594000000E+02  0.51100000000E-03 0. -1.
    9900012    2    1    2    0    0  0.21615635999E+02 -0.21016968139E+02 -0.10381187416E+02  0.59301988622E+02  0.50000081330E+02 0.  0.
         12    1    1    2    0    0 -0.21615635999E+02  0.21016968139E+02  0.10381187416E+02  0.31886011378E+02  0.00000000000E+00 0. -1.
         11    1    3    3    0    0  0.76836237545E+01 -0.12520893752E+02  0.10491464601E+02  0.18052193331E+02  0.51100000000E-03 0. -1.
        -11    1    3    3    0    0 -0.87602848794E+01  0.40397279058E+01 -0.60436949394E+01  0.11383683126E+02  0.51100000000E-03 0.  1.
         12    1    3    3    0    0  0.22692297124E+02 -0.12535802293E+02 -0.14828957077E+02  0.29866112166E+02  0.00000000000E+00 0. -1.
</event>
<event>
 7    1  0.3449603E-013  0.5930195E+02  0.7816164E-02  0.1266605E+00
        -11   -1    0    0    0    0  0.00000000000E+00  0.00000000000E+00  0.45593999997E+02  0.45594000000E+02  0.51100000000E-03 0.  1.
         11   -1    0    0    0    0 -0.00000000000E+00 -0.00000000000E+00 -0.45593999997E+02  0.45594000000E+02  0.51100000000E-03 0. -1.
    9900012    2    1    2    0    0  0.17117531089E+02 -0.11384887110E+02  0.24374059613E+02  0.59301948079E+02  0.50000007389E+02 0.  0.
         12    1    1    2    0    0 -0.17117531089E+02  0.11384887110E+02 -0.24374059613E+02  0.31886051921E+02  0.00000000000E+00 0. -1.
         11    1    3    3    0    0  0.22512587544E+02 -0.79645021985E+01 -0.27426044476E+01  0.24036883588E+02  0.51100000000E-03 0. -1.
        -11    1    3    3    0    0  0.83503038357E+01 -0.19896813901E+01  0.85074001597E+01  0.12085622198E+02  0.51100000000E-03 0.  1.
         12    1    3    3    0    0 -0.13745360290E+02 -0.14307035211E+01  0.18609263901E+02  0.23179442293E+02  0.00000000000E+00 0. -1.
</event>
<event>
 7    1  0.3449603E-013  0.5930195E+02  0.7816164E-02  0.1266605E+00
        -11   -1    0    0    0    0  0.00000000000E+00  0.00000000000E+00  0.45593999997E+02  0.45594000000E+02  0.51100000000E-03 0.  1.
         11   -1    0    0    0    0 -0.00000000000E+00 -0.00000000000E+00 -0.45593999997E+02  0.45594000000E+02  0.51100000000E-03 0. -1.
    9900012    2    1    2    0    0  0.27396068863E+02  0.13127781117E+02  0.96869605517E+01  0.59301946137E+02  0.50000003847E+02 0.  0.
         12    1    1    2    0    0 -0.27396068863E+02 -0.13127781117E+02 -0.96869605517E+01  0.31886053863E+02  0.00000000000E+00 0. -1.
         11    1    3    3    0    0  0.34682381607E+01  0.21270500699E+02  0.11831403767E+02  0.24585463007E+02  0.51100000000E-03 0. -1.
        -11    1    3    3    0    0  0.40191174503E+01  0.80253571429E+01 -0.11660053354E+01  0.90509243204E+01  0.51100000000E-03 0.  1.
         12    1    3    3    0    0  0.19908713252E+02 -0.16168076724E+02 -0.97843787992E+00  0.25665558809E+02  0.00000000000E+00 0. -1.
</event>
<event>
 7    1  0.3449603E-013  0.5930196E+02  0.7816164E-02  0.1266605E+00
        -11   -1    0    0    0    0  0.00000000000E+00  0.00000000000E+00  0.45593999997E+02  0.45594000000E+02  0.51100000000E-03 0. -1.
         11   -1    0    0    0    0 -0.00000000000E+00 -0.00000000000E+00 -0.45593999997E+02  0.45594000000E+02  0.51100000000E-03 0.  1.
    9900012    2    1    2    0    0  0.12733151267E+02  0.27093992027E+02 -0.10977329974E+02  0.59301963581E+02  0.50000035661E+02 0.  0.
         12    1    1    2    0    0 -0.12733151267E+02 -0.27093992027E+02  0.10977329974E+02  0.31886036419E+02  0.00000000000E+00 0. -1.
         11    1    3    3    0    0  0.76330523724E+01  0.70757326511E+01 -0.78415271987E+01  0.13031463085E+02  0.51100000000E-03 0. -1.
        -11    1    3    3    0    0  0.17961643172E+02  0.11112766383E+02 -0.15608686988E+02  0.26263002720E+02  0.51100000000E-03 0.  1.
         12    1    3    3    0    0 -0.12861544277E+02  0.89054929932E+01  0.12472884213E+02  0.20007497776E+02  0.00000000000E+00 0. -1.
</event>
<event>
 7    1  0.3449603E-013  0.5930194E+02  0.7816164E-02  0.1266605E+00
        -11   -1    0    0    0    0  0.00000000000E+00  0.00000000000E+00  0.45593999997E+02  0.45594000000E+02  0.51100000000E-03 0.  1.
         11   -1    0    0    0    0 -0.00000000000E+00 -0.00000000000E+00 -0.45593999997E+02  0.45594000000E+02  0.51100000000E-03 0. -1.
    9900012    2    1    2    0    0  0.17845204638E+02 -0.12907517225E+02  0.23057866431E+02  0.59301944524E+02  0.50000000905E+02 0.  0.
         12    1    1    2    0    0 -0.17845204638E+02  0.12907517225E+02 -0.23057866431E+02  0.31886055476E+02  0.00000000000E+00 0. -1.
         11    1    3    3    0    0  0.15186494946E+02  0.30662239154E+01 -0.95907782709E+01  0.18221261920E+02  0.51100000000E-03 0. -1.
        -11    1    3    3    0    0  0.30289003469E+00  0.33928967624E+01  0.45451496507E+00  0.34365789570E+01  0.51100000000E-03 0.  1.
        -12    1    3    3    0    0  0.23558196568E+01 -0.19366637902E+02  0.32194129737E+02  0.37644103647E+02  0.00000000000E+00 0.  1.
</event>
<event>
 7    1  0.3449603E-013  0.5930188E+02  0.7816164E-02  0.1266605E+00
        -11   -1    0    0    0    0  0.00000000000E+00  0.00000000000E+00  0.45593999997E+02  0.45594000000E+02  0.51100000000E-03 0. -1.
         11   -1    0    0    0    0 -0.00000000000E+00 -0.00000000000E+00 -0.45593999997E+02  0.45594000000E+02  0.51100000000E-03 0.  1.
    9900012    2    1    2    0    0  0.22226377058E+02 -0.16887192964E+02  0.15412177909E+02  0.59301884665E+02  0.49999891736E+02 0.  0.
         12    1    1    2    0    0 -0.22226377058E+02  0.16887192964E+02 -0.15412177909E+02  0.31886115335E+02  0.00000000000E+00 0. -1.
         11    1    3    3    0    0 -0.97015062284E+01  0.78523689679E+01  0.74516506052E+01  0.14536368821E+02  0.51100000000E-03 0. -1.
        -11    1    3    3    0    0 -0.21170971685E+01 -0.19720640860E+01 -0.52201724753E+00  0.29400067088E+01  0.51100000000E-03 0.  1.
        -12    1    3    3    0    0  0.34044980455E+02 -0.22767497845E+02  0.84825445509E+01  0.41825509134E+02  0.00000000000E+00 0.  1.
</event>
<event>
 7    1  0.3449603E-013  0.5930193E+02  0.7816164E-02  0.1266605E+00
        -11   -1    0    0    0    0  0.00000000000E+00  0.00000000000E+00  0.45593999997E+02  0.45594000000E+02  0.51100000000E-03 0. -1.
         11   -1    0    0    0    0 -0.00000000000E+00 -0.00000000000E+00 -0.45593999997E+02  0.45594000000E+02  0.51100000000E-03 0.  1.
    9900012    2    1    2    0    0  0.23382852635E+02  0.20178587547E+02 -0.79239091542E+01  0.59301928919E+02  0.49999972445E+02 0.  0.
         12    1    1    2    0    0 -0.23382852635E+02 -0.20178587547E+02  0.79239091542E+01  0.31886071081E+02  0.00000000000E+00 0. -1.
         11    1    3    3    0    0  0.22420275785E+02  0.22160806504E+01 -0.14883197059E+01  0.22578637593E+02  0.51100000000E-03 0. -1.
        -11    1    3    3    0    0  0.64524097473E+01  0.21979180486E+02  0.49733313734E+01  0.23440392309E+02  0.51100000000E-03 0.  1.
        -12    1    3    3    0    0 -0.54898328979E+01 -0.40166735897E+01 -0.11408920822E+02  0.13282899017E+02  0.00000000000E+00 0.  1.
</event>
<event>
 7    1  0.3449603E-013  0.5930195E+02  0.7816164E-02  0.1266605E+00
        -11   -1    0    0    0    0  0.00000000000E+00  0.00000000000E+00  0.45593999997E+02  0.45594000000E+02  0.51100000000E-03 0.  1.
         11   -1    0    0    0    0 -0.00000000000E+00 -0.00000000000E+00 -0.45593999997E+02  0.45594000000E+02  0.51100000000E-03 0. -1.
    9900012    2    1    2    0    0 -0.26021662148E+02  0.15772450017E+02  0.95301196303E+01  0.59301948807E+02  0.50000008717E+02 0.  0.
         12    1    1    2    0    0  0.26021662148E+02 -0.15772450017E+02 -0.95301196303E+01  0.31886051193E+02  0.00000000000E+00 0. -1.
         11    1    3    3    0    0  0.84089666340E+01  0.16381905505E+02  0.45562800612E+01  0.18969376270E+02  0.51100000000E-03 0. -1.
        -11    1    3    3    0    0 -0.15943697704E+02  0.96955324285E+01  0.43386402349E+01  0.19157991671E+02  0.51100000000E-03 0.  1.
        -12    1    3    3    0    0 -0.18486931079E+02 -0.10304987916E+02  0.63519933422E+00  0.21174580866E+02  0.00000000000E+00 0.  1.
</event>
<event>
 7    1  0.3449603E-013  0.5930197E+02  0.7816164E-02  0.1266605E+00
        -11   -1    0    0    0    0  0.00000000000E+00  0.00000000000E+00  0.45593999997E+02  0.45594000000E+02  0.51100000000E-03 0. -1.
         11   -1    0    0    0    0 -0.00000000000E+00 -0.00000000000E+00 -0.45593999997E+02  0.45594000000E+02  0.51100000000E-03 0.  1.
    9900012    2    1    2    0    0  0.18042313456E+02  0.20036435565E+02 -0.17021607495E+02  0.59301969411E+02  0.50000046293E+02 0.  0.
         12    1    1    2    0    0 -0.18042313456E+02 -0.20036435565E+02  0.17021607495E+02  0.31886030589E+02  0.00000000000E+00 0. -1.
         11    1    3    3    0    0  0.97088044365E+01  0.54381908431E+01  0.14803583836E+02  0.18519743462E+02  0.51100000000E-03 0. -1.
        -11    1    3    3    0    0  0.13823495643E+02  0.56161365138E+01 -0.17340853669E+02  0.22876521313E+02  0.51100000000E-03 0.  1.
        -12    1    3    3    0    0 -0.54899866238E+01  0.89821082082E+01 -0.14484337662E+02  0.17905704636E+02  0.00000000000E+00 0.  1.
</event>
<event>
 7    1  0.3449603E-013  0.5930195E+02  0.7816164E-02  0.1266605E+00
        -11   -1    0    0    0    0  0.00000000000E+00  0.00000000000E+00  0.45593999997E+02  0.45594000000E+02  0.51100000000E-03 0. -1.
         11   -1    0    0    0    0 -0.00000000000E+00 -0.00000000000E+00 -0.45593999997E+02  0.45594000000E+02  0.51100000000E-03 0.  1.
    9900012    2    1    2    0    0  0.13696446745E+02  0.28746882550E+02  0.16565574619E+01  0.59301951446E+02  0.50000013529E+02 0.  0.
         12    1    1    2    0    0 -0.13696446745E+02 -0.28746882550E+02 -0.16565574619E+01  0.31886048554E+02  0.00000000000E+00 0. -1.
         11    1    3    3    0    0  0.43406999030E+01  0.25228458226E+00 -0.11452546060E+02  0.12250148354E+02  0.51100000000E-03 0. -1.
        -11    1    3    3    0    0 -0.87376478284E+01  0.16040311108E+02 -0.46006961181E+01  0.18836254273E+02  0.51100000000E-03 0.  1.
         12    1    3    3    0    0  0.18093394670E+02  0.12454286859E+02  0.17709799640E+02  0.28215548819E+02  0.00000000000E+00 0. -1.
</event>
<event>
 7    1  0.3449603E-013  0.5930195E+02  0.7816164E-02  0.1266605E+00
        -11   -1    0    0    0    0  0.00000000000E+00  0.00000000000E+00  0.45593999997E+02  0.45594000000E+02  0.51100000000E-03 0.  1.
         11   -1    0    0    0    0 -0.00000000000E+00 -0.00000000000E+00 -0.45593999997E+02  0.45594000000E+02  0.51100000000E-03 0. -1.
    9900012    2    1    2    0    0  0.18452731104E+02  0.15404896439E+02  0.20950088291E+02  0.59301947894E+02  0.50000007051E+02 0.  0.
         12    1    1    2    0    0 -0.18452731104E+02 -0.15404896439E+02 -0.20950088291E+02  0.31886052106E+02  0.00000000000E+00 0. -1.
         11    1    3    3    0    0 -0.34915913240E+01  0.69098835451E+01  0.63392035351E+01  0.10006158219E+02  0.51100000000E-03 0. -1.
        -11    1    3    3    0    0  0.69756326357E+01  0.20985868598E+02  0.19178066931E+02  0.29272245949E+02  0.51100000000E-03 0.  1.
         12    1    3    3    0    0  0.14968689793E+02 -0.12490855704E+02 -0.45671821749E+01  0.20023543726E+02  0.00000000000E+00 0. -1.
</event>
<event>
 7    1  0.3449603E-013  0.5930194E+02  0.7816164E-02  0.1266605E+00
        -11   -1    0    0    0    0  0.00000000000E+00  0.00000000000E+00  0.45593999997E+02  0.45594000000E+02  0.51100000000E-03 0.  1.
         11   -1    0    0    0    0 -0.00000000000E+00 -0.00000000000E+00 -0.45593999997E+02  0.45594000000E+02  0.51100000000E-03 0. -1.
    9900012    2    1    2    0    0 -0.13777523693E+02 -0.18748228490E+02 -0.21803770809E+02  0.59301942669E+02  0.49999997522E+02 0.  0.
         12    1    1    2    0    0  0.13777523693E+02  0.18748228490E+02  0.21803770809E+02  0.31886057331E+02  0.00000000000E+00 0. -1.
         11    1    3    3    0    0  0.30702949896E+01 -0.12161266072E+02  0.24364856921E+01  0.12777306703E+02  0.51100000000E-03 0. -1.
        -11    1    3    3    0    0  0.60267259519E+01  0.88780924054E+01 -0.12625524374E+02  0.16569424143E+02  0.51100000000E-03 0.  1.
        -12    1    3    3    0    0 -0.22874544635E+02 -0.15465054824E+02 -0.11614732127E+02  0.29955211823E+02  0.00000000000E+00 0.  1.
</event>
<event>
 7    1  0.3449603E-013  0.5930197E+02  0.7816164E-02  0.1266605E+00
        -11   -1    0    0    0    0  0.00000000000E+00  0.00000000000E+00  0.45593999997E+02  0.45594000000E+02  0.51100000000E-03 0. -1.
         11   -1    0    0    0    0 -0.00000000000E+00 -0.00000000000E+00 -0.45593999997E+02  0.45594000000E+02  0.51100000000E-03 0.  1.
    9900012    2    1    2    0    0  0.64832902226E+01  0.30818586065E+01 -0.31067472060E+02  0.59301972892E+02  0.50000052641E+02 0.  0.
         12    1    1    2    0    0 -0.64832902226E+01 -0.30818586065E+01  0.31067472060E+02  0.31886027108E+02  0.00000000000E+00 0. -1.
         11    1    3    3    0    0 -0.11748152839E+02  0.16154053351E+01 -0.26832635357E+02  0.29336307709E+02  0.51100000000E-03 0.  1.
        -11    1    3    3    0    0 -0.27792274704E+01  0.51087024341E+01 -0.62612866125E+01  0.85455635389E+01  0.51100000000E-03 0. -1.
        -12    1    3    3    0    0  0.21010670532E+02 -0.36422491627E+01  0.20264499099E+01  0.21420101644E+02  0.00000000000E+00 0.  1.
</event>
<event>
 7    1  0.3449603E-013  0.5930196E+02  0.7816164E-02  0.1266605E+00
        -11   -1    0    0    0    0  0.00000000000E+00  0.00000000000E+00  0.45593999997E+02  0.45594000000E+02  0.51100000000E-03 0.  1.
         11   -1    0    0    0    0 -0.00000000000E+00 -0.00000000000E+00 -0.45593999997E+02  0.45594000000E+02  0.51100000000E-03 0. -1.
    9900012    2    1    2    0    0 -0.21333984050E+02  0.19571323298E+01  0.23616741763E+02  0.59301957068E+02  0.50000023782E+02 0.  0.
         12    1    1    2    0    0  0.21333984050E+02 -0.19571323298E+01 -0.23616741763E+02  0.31886042932E+02  0.00000000000E+00 0. -1.
         11    1    3    3    0    0 -0.23110064511E+01  0.10463581645E+02 -0.10594332707E+02  0.15068748369E+02  0.51100000000E-03 0. -1.
        -11    1    3    3    0    0 -0.46804737215E+01  0.12082572954E+01 -0.10500961046E+01  0.49466576635E+01  0.51100000000E-03 0.  1.
        -12    1    3    3    0    0 -0.14342503877E+02 -0.97147066103E+01  0.35261170574E+02  0.39286551035E+02  0.00000000000E+00 0.  1.
</event>
<event>
 7    1  0.3449603E-013  0.5930194E+02  0.7816164E-02  0.1266605E+00
        -11   -1    0    0    0    0  0.00000000000E+00  0.00000000000E+00  0.45593999997E+02  0.45594000000E+02  0.51100000000E-03 0. -1.
         11   -1    0    0    0    0 -0.00000000000E+00 -0.00000000000E+00 -0.45593999997E+02  0.45594000000E+02  0.51100000000E-03 0.  1.
    9900012    2    1    2    0    0  0.30949987658E+02 -0.24902359361E+01 -0.72538165608E+01  0.59301939319E+02  0.49999991412E+02 0.  0.
         12    1    1    2    0    0 -0.30949987658E+02  0.24902359361E+01  0.72538165608E+01  0.31886060681E+02  0.00000000000E+00 0. -1.
         11    1    3    3    0    0  0.23551999454E+02  0.38333955832E+01  0.85851625855E+01  0.25359349693E+02  0.51100000000E-03 0. -1.
        -11    1    3    3    0    0 -0.71587810267E+00 -0.16519236170E+02 -0.59048605935E+01  0.17557477723E+02  0.51100000000E-03 0.  1.
        -12    1    3    3    0    0  0.81138663067E+01  0.10195604651E+02 -0.99341185527E+01  0.16385111903E+02  0.00000000000E+00 0.  1.
</event>
<event>
 7    1  0.3449603E-013  0.5930194E+02  0.7816164E-02  0.1266605E+00
        -11   -1    0    0    0    0  0.00000000000E+00  0.00000000000E+00  0.45593999997E+02  0.45594000000E+02  0.51100000000E-03 0.  1.
         11   -1    0    0    0    0 -0.00000000000E+00 -0.00000000000E+00 -0.45593999997E+02  0.45594000000E+02  0.51100000000E-03 0. -1.
    9900012    2    1    2    0    0  0.45641428870E+01  0.31484712481E+02 -0.21452998981E+01  0.59301939849E+02  0.49999992378E+02 0.  0.
         12    1    1    2    0    0 -0.45641428870E+01 -0.31484712481E+02  0.21452998981E+01  0.31886060151E+02  0.00000000000E+00 0. -1.
         11    1    3    3    0    0  0.16236153654E+02  0.31199295380E+01 -0.67982865226E+01  0.17876334795E+02  0.51100000000E-03 0. -1.
        -11    1    3    3    0    0 -0.68885014214E+01 -0.36170311834E+01 -0.27489159619E+01  0.82517213744E+01  0.51100000000E-03 0.  1.
        -12    1    3    3    0    0 -0.47835093451E+01  0.31981814127E+02  0.74019025864E+01  0.33173883680E+02  0.00000000000E+00 0.  1.
</event>
<event>
 7    1  0.3449603E-013  0.5930194E+02  0.7816164E-02  0.1266605E+00
        -11   -1    0    0    0    0  0.00000000000E+00  0.00000000000E+00  0.45593999997E+02  0.45594000000E+02  0.51100000000E-03 0. -1.
         11   -1    0    0    0    0 -0.00000000000E+00 -0.00000000000E+00 -0.45593999997E+02  0.45594000000E+02  0.51100000000E-03 0.  1.
    9900012    2    1    2    0    0  0.10791764931E+01 -0.31515084956E+02 -0.47281639358E+01  0.59301941356E+02  0.49999995127E+02 0.  0.
         12    1    1    2    0    0 -0.10791764931E+01  0.31515084956E+02  0.47281639358E+01  0.31886058644E+02  0.00000000000E+00 0. -1.
         11    1    3    3    0    0  0.22763849130E+01  0.35614289163E+01  0.45431811271E+00  0.42511303681E+01  0.51100000000E-03 0. -1.
        -11    1    3    3    0    0  0.63101745277E+01 -0.42977074829E+02 -0.70105731022E+01  0.43999947715E+02  0.51100000000E-03 0.  1.
         12    1    3    3    0    0 -0.75073829477E+01  0.79005609572E+01  0.18280910537E+01  0.11050863272E+02  0.00000000000E+00 0. -1.
</event>
<event>
 7    1  0.3449603E-013  0.5930199E+02  0.7816164E-02  0.1266605E+00
        -11   -1    0    0    0    0  0.00000000000E+00  0.00000000000E+00  0.45593999997E+02  0.45594000000E+02  0.51100000000E-03 0.  1.
         11   -1    0    0    0    0 -0.00000000000E+00 -0.00000000000E+00 -0.45593999997E+02  0.45594000000E+02  0.51100000000E-03 0. -1.
    9900012    2    1    2    0    0  0.46307914478E+01 -0.11408045780E+01  0.31527316329E+02  0.59301994615E+02  0.50000092259E+02 0.  0.
         12    1    1    2    0    0 -0.46307914478E+01  0.11408045780E+01 -0.31527316329E+02  0.31886005385E+02  0.00000000000E+00 0. -1.
         11    1    3    3    0    0  0.68573949812E+01 -0.17956504259E+02  0.97613130127E+01  0.21557902104E+02  0.51100000000E-03 0. -1.
        -11    1    3    3    0    0  0.11430344757E+02  0.11211034899E+02  0.10117085365E+02  0.18939258204E+02  0.51100000000E-03 0.  1.
        -12    1    3    3    0    0 -0.13656948290E+02  0.56046647818E+01  0.11648917951E+02  0.18804834308E+02  0.00000000000E+00 0.  1.
</event>
<event>
 7    1  0.3449603E-013  0.5930195E+02  0.7816164E-02  0.1266605E+00
        -11   -1    0    0    0    0  0.00000000000E+00  0.00000000000E+00  0.45593999997E+02  0.45594000000E+02  0.51100000000E-03 0.  1.
         11   -1    0    0    0    0 -0.00000000000E+00 -0.00000000000E+00 -0.45593999997E+02  0.45594000000E+02  0.51100000000E-03 0. -1.
    9900012    2    1    2    0    0  0.30037606055E+02  0.60570249396E+01 -0.88190158081E+01  0.59301947117E+02  0.50000005634E+02 0.  0.
         12    1    1    2    0    0 -0.30037606055E+02 -0.60570249396E+01  0.88190158081E+01  0.31886052883E+02  0.00000000000E+00 0. -1.
         11    1    3    3    0    0  0.64994409209E+01  0.10910924454E+02 -0.12811456192E+02  0.18039523683E+02  0.51100000000E-03 0. -1.
        -11    1    3    3    0    0 -0.49817944454E+01 -0.74458913617E+01 -0.61670468169E+01  0.10876214450E+02  0.51100000000E-03 0.  1.
        -12    1    3    3    0    0  0.28519959580E+02  0.25919918478E+01  0.10159487200E+02  0.30386208983E+02  0.00000000000E+00 0.  1.
</event>
<event>
 7    1  0.3449603E-013  0.5930206E+02  0.7816164E-02  0.1266604E+00
        -11   -1    0    0    0    0  0.00000000000E+00  0.00000000000E+00  0.45593999997E+02  0.45594000000E+02  0.51100000000E-03 0.  1.
         11   -1    0    0    0    0 -0.00000000000E+00 -0.00000000000E+00 -0.45593999997E+02  0.45594000000E+02  0.51100000000E-03 0. -1.
    9900012    2    1    2    0    0  0.21375679795E+02 -0.91052473656E+01  0.21837770429E+02  0.59302055862E+02  0.50000203958E+02 0.  0.
         12    1    1    2    0    0 -0.21375679795E+02  0.91052473656E+01 -0.21837770429E+02  0.31885944138E+02  0.00000000000E+00 0. -1.
         11    1    3    3    0    0  0.18957529308E+02 -0.60945133269E+01 -0.65403003308E+01  0.20959640713E+02  0.51100000000E-03 0. -1.
        -11    1    3    3    0    0  0.10784039480E+02 -0.21938695372E+01  0.27108935508E+01  0.11333909967E+02  0.51100000000E-03 0.  1.
         12    1    3    3    0    0 -0.83658889921E+01 -0.81686450149E+00  0.25667177209E+02  0.27008505181E+02  0.00000000000E+00 0. -1.
</event>
<event>
 7    1  0.3449603E-013  0.5930191E+02  0.7816164E-02  0.1266605E+00
        -11   -1    0    0    0    0  0.00000000000E+00  0.00000000000E+00  0.45593999997E+02  0.45594000000E+02  0.51100000000E-03 0.  1.
         11   -1    0    0    0    0 -0.00000000000E+00 -0.00000000000E+00 -0.45593999997E+02  0.45594000000E+02  0.51100000000E-03 0. -1.
    9900012    2    1    2    0    0  0.17778659366E+01 -0.10382947066E+02  0.30095785243E+02  0.59301910769E+02  0.49999939343E+02 0.  0.
         12    1    1    2    0    0 -0.17778659366E+01  0.10382947066E+02 -0.30095785243E+02  0.31886089231E+02  0.00000000000E+00 0. -1.
         11    1    3    3    0    0 -0.39407128515E+01 -0.15755825777E+02  0.12194004071E+02  0.20309332811E+02  0.51100000000E-03 0.  1.
        -11    1    3    3    0    0  0.67293845753E+01 -0.54313461625E+01 -0.74510916444E+01  0.11415029779E+02  0.51100000000E-03 0. -1.
        -12    1    3    3    0    0 -0.10108057872E+01  0.10804224874E+02  0.25352872817E+02  0.27577548178E+02  0.00000000000E+00 0.  1.
</event>
<event>
 7    1  0.3449603E-013  0.5930194E+02  0.7816164E-02  0.1266605E+00
        -11   -1    0    0    0    0  0.00000000000E+00  0.00000000000E+00  0.45593999997E+02  0.45594000000E+02  0.51100000000E-03 0. -1.
         11   -1    0    0    0    0 -0.00000000000E+00 -0.00000000000E+00 -0.45593999997E+02  0.45594000000E+02  0.51100000000E-03 0.  1.
    9900012    2    1    2    0    0 -0.19738431416E+01  0.19861009045E+02 -0.24866953971E+02  0.59301935068E+02  0.49999983660E+02 0.  0.
         12    1    1    2    0    0  0.19738431416E+01 -0.19861009045E+02  0.24866953971E+02  0.31886064932E+02  0.00000000000E+00 0. -1.
         11    1    3    3    0    0 -0.78697764345E+01  0.21045226798E+02 -0.65817899651E+01  0.23412708333E+02  0.51100000000E-03 0. -1.
        -11    1    3    3    0    0 -0.11628873541E+02  0.29928364028E+01 -0.32923794164E+01  0.12451005263E+02  0.51100000000E-03 0.  1.
        -12    1    3    3    0    0  0.17524806834E+02 -0.41770541558E+01 -0.14992784590E+02  0.23438221472E+02  0.00000000000E+00 0.  1.
</event>
<event>
 7    1  0.3449603E-013  0.5930195E+02  0.7816164E-02  0.1266605E+00
        -11   -1    0    0    0    0  0.00000000000E+00  0.00000000000E+00  0.45593999997E+02  0.45594000000E+02  0.51100000000E-03 0.  1.
         11   -1    0    0    0    0 -0.00000000000E+00 -0.00000000000E+00 -0.45593999997E+02  0.45594000000E+02  0.51100000000E-03 0. -1.
    9900012    2    1    2    0    0 -0.24141856269E+02 -0.74595123592E+01  0.19448566235E+02  0.59301948545E+02  0.50000008239E+02 0.  0.
         12    1    1    2    0    0  0.24141856269E+02  0.74595123592E+01 -0.19448566235E+02  0.31886051455E+02  0.00000000000E+00 0. -1.
         11    1    3    3    0    0 -0.19471611258E+02 -0.11596230275E+02 -0.85378023651E+01  0.24217974132E+02  0.51100000000E-03 0. -1.
        -11    1    3    3    0    0 -0.11459623713E+02  0.60267088144E+01  0.23188021452E+02  0.26558022026E+02  0.51100000000E-03 0.  1.
        -12    1    3    3    0    0  0.67893787022E+01 -0.18899908984E+01  0.47983471482E+01  0.85259523874E+01  0.00000000000E+00 0.  1.
</event>
<event>
 7    1  0.3449603E-013  0.5930195E+02  0.7816164E-02  0.1266605E+00
        -11   -1    0    0    0    0  0.00000000000E+00  0.00000000000E+00  0.45593999997E+02  0.45594000000E+02  0.51100000000E-03 0. -1.
         11   -1    0    0    0    0 -0.00000000000E+00 -0.00000000000E+00 -0.45593999997E+02  0.45594000000E+02  0.51100000000E-03 0.  1.
    9900012    2    1    2    0    0 -0.18909151714E+02  0.14421432320E+02 -0.21241156164E+02  0.59301945934E+02  0.50000003477E+02 0.  0.
         12    1    1    2    0    0  0.18909151714E+02 -0.14421432320E+02  0.21241156164E+02  0.31886054066E+02  0.00000000000E+00 0. -1.
         11    1    3    3    0    0  0.14907108391E+01 -0.74857333293E+01  0.22081938472E+01  0.79457248009E+01  0.51100000000E-03 0. -1.
        -11    1    3    3    0    0 -0.16414968373E+02 -0.53899923351E+01 -0.43906615504E+01  0.17826416161E+02  0.51100000000E-03 0.  1.
        -12    1    3    3    0    0 -0.39848941808E+01  0.27297157984E+02 -0.19058688460E+02  0.33529804972E+02  0.00000000000E+00 0.  1.
</event>
<event>
 7    1  0.3449603E-013  0.5930197E+02  0.7816164E-02  0.1266605E+00
        -11   -1    0    0    0    0  0.00000000000E+00  0.00000000000E+00  0.45593999997E+02  0.45594000000E+02  0.51100000000E-03 0.  1.
         11   -1    0    0    0    0 -0.00000000000E+00 -0.00000000000E+00 -0.45593999997E+02  0.45594000000E+02  0.51100000000E-03 0. -1.
    9900012    2    1    2    0    0  0.20841605037E+02 -0.10639498417E+02  0.21659805996E+02  0.59301974489E+02  0.50000055554E+02 0.  0.
         12    1    1    2    0    0 -0.20841605037E+02  0.10639498417E+02 -0.21659805996E+02  0.31886025511E+02  0.00000000000E+00 0. -1.
         11    1    3    3    0    0  0.10819000584E+01 -0.16714079043E+02 -0.12332726302E+01  0.16794401080E+02  0.51100000000E-03 0. -1.
        -11    1    3    3    0    0  0.11779067061E+01 -0.10170792898E+02  0.26240443755E+01  0.10569678402E+02  0.51100000000E-03 0.  1.
         12    1    3    3    0    0  0.18581798273E+02  0.16245373525E+02  0.20269034250E+02  0.31937895007E+02  0.00000000000E+00 0. -1.
</event>
<event>
 7    1  0.3449603E-013  0.5930192E+02  0.7816164E-02  0.1266605E+00
        -11   -1    0    0    0    0  0.00000000000E+00  0.00000000000E+00  0.45593999997E+02  0.45594000000E+02  0.51100000000E-03 0.  1.
         11   -1    0    0    0    0 -0.00000000000E+00 -0.00000000000E+00 -0.45593999997E+02  0.45594000000E+02  0.51100000000E-03 0. -1.
    9900012    2    1    2    0    0 -0.69444127378E+01  0.12095114056E+02  0.28674126166E+02  0.59301918966E+02  0.49999954294E+02 0.  0.
         12    1    1    2    0    0  0.69444127378E+01 -0.12095114056E+02 -0.28674126166E+02  0.31886081034E+02  0.00000000000E+00 0. -1.
         11    1    3    3    0    0 -0.86780463768E+01  0.11319030152E+02  0.12231658566E+02  0.18789422664E+02  0.51100000000E-03 0. -1.
        -11    1    3    3    0    0 -0.14960367479E+02  0.72281117768E+01  0.15287229493E+02  0.22577811692E+02  0.51100000000E-03 0.  1.
         12    1    3    3    0    0  0.16694001118E+02 -0.64520278735E+01  0.11552381076E+01  0.17934684611E+02  0.00000000000E+00 0. -1.
</event>
<event>
 7    1  0.3449603E-013  0.5930194E+02  0.7816164E-02  0.1266605E+00
        -11   -1    0    0    0    0  0.00000000000E+00  0.00000000000E+00  0.45593999997E+02  0.45594000000E+02  0.51100000000E-03 0.  1.
         11   -1    0    0    0    0 -0.00000000000E+00 -0.00000000000E+00 -0.45593999997E+02  0.45594000000E+02  0.51100000000E-03 0. -1.
    9900012    2    1    2    0    0 -0.14406504916E+02 -0.10090574616E+02  0.26596117809E+02  0.59301944074E+02  0.50000000084E+02 0.  0.
         12    1    1    2    0    0  0.14406504916E+02  0.10090574616E+02 -0.26596117809E+02  0.31886055926E+02  0.00000000000E+00 0. -1.
         11    1    3    3    0    0 -0.12348515651E+02 -0.11528534750E+01  0.36916367462E+00  0.12407706959E+02  0.51100000000E-03 0. -1.
        -11    1    3    3    0    0 -0.17625189876E+02  0.35263675524E+01  0.73003261710E+01  0.19400447127E+02  0.51100000000E-03 0.  1.
        -12    1    3    3    0    0  0.15567200610E+02 -0.12464088694E+02  0.18926627964E+02  0.27493789988E+02  0.00000000000E+00 0.  1.
</event>
<event>
 7    1  0.3449603E-013  0.5930194E+02  0.7816164E-02  0.1266605E+00
        -11   -1    0    0    0    0  0.00000000000E+00  0.00000000000E+00  0.45593999997E+02  0.45594000000E+02  0.51100000000E-03 0.  1.
         11   -1    0    0    0    0 -0.00000000000E+00 -0.00000000000E+00 -0.45593999997E+02  0.45594000000E+02  0.51100000000E-03 0. -1.
    9900012    2    1    2    0    0  0.15081271619E+02 -0.15684246000E+02  0.23308373860E+02  0.59301943200E+02  0.49999998491E+02 0.  0.
         12    1    1    2    0    0 -0.15081271619E+02  0.15684246000E+02 -0.23308373860E+02  0.31886056800E+02  0.00000000000E+00 0. -1.
         11    1    3    3    0    0 -0.10628341012E+02 -0.19307393778E+01  0.29728126052E+00  0.10806376064E+02  0.51100000000E-03 0. -1.
        -11    1    3    3    0    0 -0.18951457505E+01  0.16197878094E+01  0.15918394287E+02  0.16112435164E+02  0.51100000000E-03 0.  1.
         12    1    3    3    0    0  0.27604758382E+02 -0.15373294431E+02  0.70926983119E+01  0.32383131973E+02  0.00000000000E+00 0. -1.
</event>
<event>
 7    1  0.4735409E-013  0.5930197E+02  0.7816164E-02  0.1266605E+00
        -11   -1    0    0    0    0  0.00000000000E+00  0.00000000000E+00  0.45593999997E+02  0.45594000000E+02  0.51100000000E-03 0. -1.
         11   -1    0    0    0    0 -0.00000000000E+00 -0.00000000000E+00 -0.45593999997E+02  0.45594000000E+02  0.51100000000E-03 0.  1.
    9900012    2    1    2    0    0  0.40124772946E+01 -0.30990632337E+02  0.63403147372E+01  0.59301970807E+02  0.50000048840E+02 0.  0.
         12    1    1    2    0    0 -0.40124772946E+01  0.30990632337E+02 -0.63403147372E+01  0.31886029193E+02  0.00000000000E+00 0. -1.
         11    1    3    3    0    0 -0.12901581083E+02 -0.70842414604E+01 -0.77025633410E+01  0.16612247103E+02  0.51100000000E-03 0. -1.
        -11    1    3    3    0    0  0.39691036237E+01 -0.26076102953E+02  0.52574282327E+01  0.26895305923E+02  0.51100000000E-03 0.  1.
         12    1    3    3    0    0  0.12944954754E+02  0.21697120760E+01  0.87854498455E+01  0.15794417782E+02  0.00000000000E+00 0. -1.
</event>
<event>
 7    1  0.3449603E-013  0.5930196E+02  0.7816164E-02  0.1266605E+00
        -11   -1    0    0    0    0  0.00000000000E+00  0.00000000000E+00  0.45593999997E+02  0.45594000000E+02  0.51100000000E-03 0.  1.
         11   -1    0    0    0    0 -0.00000000000E+00 -0.00000000000E+00 -0.45593999997E+02  0.45594000000E+02  0.51100000000E-03 0. -1.
    9900012    2    1    2    0    0 -0.21608241113E+02 -0.22950702335E+02  0.48029908988E+01  0.59301960057E+02  0.50000029234E+02 0.  0.
         12    1    1    2    0    0  0.21608241113E+02  0.22950702335E+02 -0.48029908988E+01  0.31886039943E+02  0.00000000000E+00 0. -1.
         11    1    3    3    0    0  0.10807474673E+01  0.39313057893E+01 -0.73876559376E+01  0.84380472155E+01  0.51100000000E-03 0. -1.
        -11    1    3    3    0    0 -0.13195000732E+02 -0.33072523669E+01 -0.10192357738E+02  0.16997944554E+02  0.51100000000E-03 0.  1.
         12    1    3    3    0    0 -0.94939878479E+01 -0.23574755757E+02  0.22383004575E+02  0.33865968288E+02  0.00000000000E+00 0. -1.
</event>
<event>
 7    1  0.3449603E-013  0.5930195E+02  0.7816164E-02  0.1266605E+00
        -11   -1    0    0    0    0  0.00000000000E+00  0.00000000000E+00  0.45593999997E+02  0.45594000000E+02  0.51100000000E-03 0.  1.
         11   -1    0    0    0    0 -0.00000000000E+00 -0.00000000000E+00 -0.45593999997E+02  0.45594000000E+02  0.51100000000E-03 0. -1.
    9900012    2    1    2    0    0 -0.19004864680E+02  0.79382607123E+01  0.24341720707E+02  0.59301949263E+02  0.50000009547E+02 0.  0.
         12    1    1    2    0    0  0.19004864680E+02 -0.79382607123E+01 -0.24341720707E+02  0.31886050737E+02  0.00000000000E+00 0. -1.
         11    1    3    3    0    0  0.20791492621E+01 -0.29863867373E+00  0.37016302152E+00  0.21328543398E+01  0.51100000000E-03 0. -1.
        -11    1    3    3    0    0  0.38696446920E+01  0.21437465480E+02  0.18128854411E+02  0.28340685220E+02  0.51100000000E-03 0.  1.
         12    1    3    3    0    0 -0.24953658634E+02 -0.13200566094E+02  0.58427032752E+01  0.28828409702E+02  0.00000000000E+00 0. -1.
</event>
<event>
 7    1  0.3449603E-013  0.5930194E+02  0.7816164E-02  0.1266605E+00
        -11   -1    0    0    0    0  0.00000000000E+00  0.00000000000E+00  0.45593999997E+02  0.45594000000E+02  0.51100000000E-03 0.  1.
         11   -1    0    0    0    0 -0.00000000000E+00 -0.00000000000E+00 -0.45593999997E+02  0.45594000000E+02  0.51100000000E-03 0. -1.
    9900012    2    1    2    0    0  0.11563791214E+01  0.25439534975E+02 -0.19188889394E+02  0.59301943038E+02  0.49999998194E+02 0.  0.
         12    1    1    2    0    0 -0.11563791214E+01 -0.25439534975E+02  0.19188889394E+02  0.31886056962E+02  0.00000000000E+00 0. -1.
         11    1    3    3    0    0  0.23795526580E+01  0.88089698322E+00  0.53723223891E+00  0.25936208449E+01  0.51100000000E-03 0. -1.
        -11    1    3    3    0    0  0.58842513036E+01 -0.12718092259E+02 -0.10883849838E+02  0.17743519145E+02  0.51100000000E-03 0.  1.
        -12    1    3    3    0    0 -0.71074248403E+01  0.37276730251E+02 -0.88422717950E+01  0.38964803048E+02  0.00000000000E+00 0.  1.
</event>
<event>
 7    1  0.3449603E-013  0.5930193E+02  0.7816164E-02  0.1266605E+00
        -11   -1    0    0    0    0  0.00000000000E+00  0.00000000000E+00  0.45593999997E+02  0.45594000000E+02  0.51100000000E-03 0.  1.
         11   -1    0    0    0    0 -0.00000000000E+00 -0.00000000000E+00 -0.45593999997E+02  0.45594000000E+02  0.51100000000E-03 0. -1.
    9900012    2    1    2    0    0  0.29823580355E+01 -0.26537208263E+02  0.17424225896E+02  0.59301928904E+02  0.49999972419E+02 0.  0.
         12    1    1    2    0    0 -0.29823580355E+01  0.26537208263E+02 -0.17424225896E+02  0.31886071096E+02  0.00000000000E+00 0. -1.
         11    1    3    3    0    0 -0.92348883231E+00 -0.49928805907E+01 -0.83978002514E+01  0.98134977220E+01  0.51100000000E-03 0. -1.
        -11    1    3    3    0    0  0.11869861725E+02 -0.11429169956E+02 -0.40431063973E+01  0.16966621728E+02  0.51100000000E-03 0.  1.
         12    1    3    3    0    0 -0.79640148575E+01 -0.10115157717E+02  0.29865132545E+02  0.32521809455E+02  0.00000000000E+00 0. -1.
</event>
<event>
 7    1  0.3449603E-013  0.5930196E+02  0.7816164E-02  0.1266605E+00
        -11   -1    0    0    0    0  0.00000000000E+00  0.00000000000E+00  0.45593999997E+02  0.45594000000E+02  0.51100000000E-03 0.  1.
         11   -1    0    0    0    0 -0.00000000000E+00 -0.00000000000E+00 -0.45593999997E+02  0.45594000000E+02  0.51100000000E-03 0. -1.
    9900012    2    1    2    0    0 -0.11925738624E+02  0.28552440927E+02  0.76977036824E+01  0.59301956555E+02  0.50000022846E+02 0.  0.
         12    1    1    2    0    0  0.11925738624E+02 -0.28552440927E+02 -0.76977036824E+01  0.31886043445E+02  0.00000000000E+00 0. -1.
         11    1    3    3    0    0 -0.14317835353E+01  0.13285480954E+02  0.41343919239E+01  0.13987394508E+02  0.51100000000E-03 0. -1.
        -11    1    3    3    0    0 -0.77862111319E+00  0.28548555047E+02  0.40896061415E+01  0.28850496092E+02  0.51100000000E-03 0.  1.
         12    1    3    3    0    0 -0.97153339759E+01 -0.13281595075E+02 -0.52629438297E+00  0.16464065955E+02  0.00000000000E+00 0. -1.
</event>
<event>
 7    1  0.3449603E-013  0.5930195E+02  0.7816164E-02  0.1266605E+00
        -11   -1    0    0    0    0  0.00000000000E+00  0.00000000000E+00  0.45593999997E+02  0.45594000000E+02  0.51100000000E-03 0.  1.
         11   -1    0    0    0    0 -0.00000000000E+00 -0.00000000000E+00 -0.45593999997E+02  0.45594000000E+02  0.51100000000E-03 0. -1.
    9900012    2    1    2    0    0 -0.18937997969E+02 -0.44208387950E+01  0.25269120696E+02  0.59301952213E+02  0.50000014928E+02 0.  0.
         12    1    1    2    0    0  0.18937997969E+02  0.44208387950E+01 -0.25269120696E+02  0.31886047787E+02  0.00000000000E+00 0. -1.
         11    1    3    3    0    0  0.10317861055E+02 -0.15928562297E+01  0.17526324352E+01  0.10586178179E+02  0.51100000000E-03 0. -1.
        -11    1    3    3    0    0 -0.79624778960E+01 -0.58021088634E+01  0.25291360158E+02  0.27142557367E+02  0.51100000000E-03 0.  1.
         12    1    3    3    0    0 -0.21293381128E+02  0.29741262982E+01 -0.17748718974E+01  0.21573216667E+02  0.00000000000E+00 0. -1.
</event>
<event>
 7    1  0.3449603E-013  0.5930194E+02  0.7816164E-02  0.1266605E+00
        -11   -1    0    0    0    0  0.00000000000E+00  0.00000000000E+00  0.45593999997E+02  0.45594000000E+02  0.51100000000E-03 0.  1.
         11   -1    0    0    0    0 -0.00000000000E+00 -0.00000000000E+00 -0.45593999997E+02  0.45594000000E+02  0.51100000000E-03 0. -1.
    9900012    2    1    2    0    0  0.82152672723E+01 -0.77943524587E+01  0.29807356374E+02  0.59301936577E+02  0.49999986412E+02 0.  0.
         12    1    1    2    0    0 -0.82152672723E+01  0.77943524587E+01 -0.29807356374E+02  0.31886063423E+02  0.00000000000E+00 0. -1.
         11    1    3    3    0    0 -0.90679643270E+01 -0.29020719783E+00 -0.60538112968E+01  0.10906916555E+02  0.51100000000E-03 0. -1.
        -11    1    3    3    0    0 -0.58131271827E+01  0.91385787190E+00  0.15143082906E+02  0.16246247075E+02  0.51100000000E-03 0.  1.
         12    1    3    3    0    0  0.23096358782E+02 -0.84180031327E+01  0.20718084765E+02  0.32148772948E+02  0.00000000000E+00 0. -1.
</event>
<event>
 7    1  0.3449603E-013  0.5930194E+02  0.7816164E-02  0.1266605E+00
        -11   -1    0    0    0    0  0.00000000000E+00  0.00000000000E+00  0.45593999997E+02  0.45594000000E+02  0.51100000000E-03 0.  1.
         11   -1    0    0    0    0 -0.00000000000E+00 -0.00000000000E+00 -0.45593999997E+02  0.45594000000E+02  0.51100000000E-03 0. -1.
    9900012    2    1    2    0    0 -0.51642601125E+01  0.36426695566E+01  0.31253510808E+02  0.59301944085E+02  0.50000000104E+02 0.  0.
         12    1    1    2    0    0  0.51642601125E+01 -0.36426695566E+01 -0.31253510808E+02  0.31886055915E+02  0.00000000000E+00 0. -1.
         11    1    3    3    0    0  0.26810465336E+01 -0.33492143341E+01 -0.89680171701E+00  0.43828644460E+01  0.51100000000E-03 0. -1.
        -11    1    3    3    0    0  0.14763570746E+02  0.15675655153E+01 -0.47798767975E+00  0.14854250412E+02  0.51100000000E-03 0.  1.
        -12    1    3    3    0    0 -0.22608877392E+02  0.54243183753E+01  0.32628300205E+02  0.40064829227E+02  0.00000000000E+00 0.  1.
</event>
<event>
 7    1  0.3449603E-013  0.5930195E+02  0.7816164E-02  0.1266605E+00
        -11   -1    0    0    0    0  0.00000000000E+00  0.00000000000E+00  0.45593999997E+02  0.45594000000E+02  0.51100000000E-03 0. -1.
         11   -1    0    0    0    0 -0.00000000000E+00 -0.00000000000E+00 -0.45593999997E+02  0.45594000000E+02  0.51100000000E-03 0.  1.
    9900012    2    1    2    0    0 -0.23750173802E+01 -0.14318384860E+02 -0.28391250026E+02  0.59301953983E+02  0.50000018157E+02 0.  0.
         12    1    1    2    0    0  0.23750173802E+01  0.14318384860E+02  0.28391250026E+02  0.31886046017E+02  0.00000000000E+00 0. -1.
         11    1    3    3    0    0 -0.11317898049E+02 -0.57935560341E+01 -0.26755260440E+02  0.29622695171E+02  0.51100000000E-03 0. -1.
        -11    1    3    3    0    0 -0.47590349863E+01 -0.66122516655E+01 -0.10468838753E+02  0.13265250513E+02  0.51100000000E-03 0.  1.
        -12    1    3    3    0    0  0.13701915655E+02 -0.19125771605E+01  0.88328491671E+01  0.16414008298E+02  0.00000000000E+00 0.  1.
</event>
<event>
 7    1  0.3449603E-013  0.5930194E+02  0.7816164E-02  0.1266605E+00
        -11   -1    0    0    0    0  0.00000000000E+00  0.00000000000E+00  0.45593999997E+02  0.45594000000E+02  0.51100000000E-03 0.  1.
         11   -1    0    0    0    0 -0.00000000000E+00 -0.00000000000E+00 -0.45593999997E+02  0.45594000000E+02  0.51100000000E-03 0. -1.
    9900012    2    1    2    0    0 -0.21412957971E+02  0.33306964091E+01  0.23390430993E+02  0.59301943961E+02  0.49999999879E+02 0.  0.
         12    1    1    2    0    0  0.21412957971E+02 -0.33306964091E+01 -0.23390430993E+02  0.31886056039E+02  0.00000000000E+00 0. -1.
         11    1    3    3    0    0 -0.50619915966E+01  0.69052855926E+01 -0.84186874273E+01  0.12007540393E+02  0.51100000000E-03 0. -1.
        -11    1    3    3    0    0 -0.30966860863E+01  0.12999004201E+02  0.15912341560E+02  0.20778984314E+02  0.51100000000E-03 0.  1.
        -12    1    3    3    0    0 -0.13254280288E+02 -0.16573593385E+02  0.15896776861E+02  0.26515419254E+02  0.00000000000E+00 0.  1.
</event>
<event>
 7    1  0.3449603E-013  0.5930193E+02  0.7816164E-02  0.1266605E+00
        -11   -1    0    0    0    0  0.00000000000E+00  0.00000000000E+00  0.45593999997E+02  0.45594000000E+02  0.51100000000E-03 0. -1.
         11   -1    0    0    0    0 -0.00000000000E+00 -0.00000000000E+00 -0.45593999997E+02  0.45594000000E+02  0.51100000000E-03 0.  1.
    9900012    2    1    2    0    0 -0.19908607600E+02  0.16493085914E+02 -0.18664051942E+02  0.59301931343E+02  0.49999976866E+02 0.  0.
         12    1    1    2    0    0  0.19908607600E+02 -0.16493085914E+02  0.18664051942E+02  0.31886068657E+02  0.00000000000E+00 0. -1.
         11    1    3    3    0    0 -0.12870022025E+02  0.20158192033E+01  0.81694926519E+01  0.15376657779E+02  0.51100000000E-03 0. -1.
        -11    1    3    3    0    0 -0.10829290758E+02 -0.51682207403E+00  0.21692746658E+01  0.11056509224E+02  0.51100000000E-03 0.  1.
        -12    1    3    3    0    0  0.37907051833E+01  0.14994088785E+02 -0.29002819259E+02  0.32868764340E+02  0.00000000000E+00 0.  1.
</event>
<event>
 7    1  0.3449603E-013  0.5930195E+02  0.7816164E-02  0.1266605E+00
        -11   -1    0    0    0    0  0.00000000000E+00  0.00000000000E+00  0.45593999997E+02  0.45594000000E+02  0.51100000000E-03 0. -1.
         11   -1    0    0    0    0 -0.00000000000E+00 -0.00000000000E+00 -0.45593999997E+02  0.45594000000E+02  0.51100000000E-03 0.  1.
    9900012    2    1    2    0    0  0.17879695103E+02  0.11941124200E+02 -0.23546687894E+02  0.59301945762E+02  0.50000003162E+02 0.  0.
         12    1    1    2    0    0 -0.17879695103E+02 -0.11941124200E+02  0.23546687894E+02  0.31886054238E+02  0.00000000000E+00 0. -1.
         11    1    3    3    0    0 -0.36241070349E+01  0.67195591928E+01 -0.63840407868E+01  0.99520151013E+01  0.51100000000E-03 0. -1.
        -11    1    3    3    0    0 -0.31906547503E+01  0.18051568993E+02 -0.84849188275E+01  0.20199833381E+02  0.51100000000E-03 0.  1.
         12    1    3    3    0    0  0.24694456889E+02 -0.12830003986E+02 -0.86777282792E+01  0.29150097279E+02  0.00000000000E+00 0. -1.
</event>
<event>
 7    1  0.3449603E-013  0.5930200E+02  0.7816164E-02  0.1266605E+00
        -11   -1    0    0    0    0  0.00000000000E+00  0.00000000000E+00  0.45593999997E+02  0.45594000000E+02  0.51100000000E-03 0. -1.
         11   -1    0    0    0    0 -0.00000000000E+00 -0.00000000000E+00 -0.45593999997E+02  0.45594000000E+02  0.51100000000E-03 0.  1.
    9900012    2    1    2    0    0 -0.15523861064E+02  0.23189514922E+02  0.15426372225E+02  0.59302002687E+02  0.50000106980E+02 0.  0.
         12    1    1    2    0    0  0.15523861064E+02 -0.23189514922E+02 -0.15426372225E+02  0.31885997313E+02  0.00000000000E+00 0. -1.
         11    1    3    3    0    0  0.86805882784E+00  0.21705142018E+01  0.61624995729E+01  0.65909831798E+01  0.51100000000E-03 0. -1.
        -11    1    3    3    0    0  0.10983651794E+02  0.19083841797E+02  0.12093864934E+02  0.25121608105E+02  0.51100000000E-03 0.  1.
        -12    1    3    3    0    0 -0.27375571686E+02  0.19351589227E+01 -0.28299922814E+01  0.27589411402E+02  0.00000000000E+00 0.  1.
</event>
<event>
 7    1  0.3449603E-013  0.5930194E+02  0.7816164E-02  0.1266605E+00
        -11   -1    0    0    0    0  0.00000000000E+00  0.00000000000E+00  0.45593999997E+02  0.45594000000E+02  0.51100000000E-03 0.  1.
         11   -1    0    0    0    0 -0.00000000000E+00 -0.00000000000E+00 -0.45593999997E+02  0.45594000000E+02  0.51100000000E-03 0. -1.
    9900012    2    1    2    0    0  0.70410846941E+01  0.15069006327E+02  0.27204209855E+02  0.59301939422E+02  0.49999991601E+02 0.  0.
         12    1    1    2    0    0 -0.70410846941E+01 -0.15069006327E+02 -0.27204209855E+02  0.31886060578E+02  0.00000000000E+00 0. -1.
         11    1    3    3    0    0  0.71824835390E+01  0.22436036605E+02  0.20944886056E+02  0.31522247072E+02  0.51100000000E-03 0. -1.
        -11    1    3    3    0    0  0.13964985031E+01  0.80048553974E+01  0.89610248910E+01  0.12096606357E+02  0.51100000000E-03 0.  1.
         12    1    3    3    0    0 -0.15378973481E+01 -0.15371885675E+02 -0.27017010928E+01  0.15683085993E+02  0.00000000000E+00 0. -1.
</event>
<event>
 7    1  0.3449603E-013  0.5930191E+02  0.7816164E-02  0.1266605E+00
        -11   -1    0    0    0    0  0.00000000000E+00  0.00000000000E+00  0.45593999997E+02  0.45594000000E+02  0.51100000000E-03 0. -1.
         11   -1    0    0    0    0 -0.00000000000E+00 -0.00000000000E+00 -0.45593999997E+02  0.45594000000E+02  0.51100000000E-03 0.  1.
    9900012    2    1    2    0    0  0.28999026720E+02  0.73700664164E+01 -0.11020956462E+02  0.59301907247E+02  0.49999932921E+02 0.  0.
         12    1    1    2    0    0 -0.28999026720E+02 -0.73700664164E+01  0.11020956462E+02  0.31886092753E+02  0.00000000000E+00 0. -1.
         11    1    3    3    0    0  0.18573001604E+02  0.68620986388E+01 -0.70497433452E+01  0.21017698918E+02  0.51100000000E-03 0. -1.
        -11    1    3    3    0    0  0.20581419489E+02  0.93476737661E+01 -0.83935638584E+01  0.24112771461E+02  0.51100000000E-03 0.  1.
         12    1    3    3    0    0 -0.10155394373E+02 -0.88397059884E+01  0.44223507420E+01  0.14171436868E+02  0.00000000000E+00 0. -1.
</event>
<event>
 7    1  0.3449603E-013  0.5930194E+02  0.7816164E-02  0.1266605E+00
        -11   -1    0    0    0    0  0.00000000000E+00  0.00000000000E+00  0.45593999997E+02  0.45594000000E+02  0.51100000000E-03 0. -1.
         11   -1    0    0    0    0 -0.00000000000E+00 -0.00000000000E+00 -0.45593999997E+02  0.45594000000E+02  0.51100000000E-03 0.  1.
    9900012    2    1    2    0    0  0.27219362486E+02 -0.44840482120E+01 -0.15991266679E+02  0.59301937331E+02  0.49999987787E+02 0.  0.
         12    1    1    2    0    0 -0.27219362486E+02  0.44840482120E+01  0.15991266679E+02  0.31886062669E+02  0.00000000000E+00 0. -1.
         11    1    3    3    0    0 -0.49626903538E+01  0.14806632385E+01 -0.44323155297E+01  0.68166032883E+01  0.51100000000E-03 0. -1.
        -11    1    3    3    0    0 -0.33069235015E+01  0.43604889098E+01 -0.14410839121E+02  0.15414989167E+02  0.51100000000E-03 0.  1.
        -12    1    3    3    0    0  0.35488976342E+02 -0.10325200360E+02  0.28518879716E+01  0.37070344876E+02  0.00000000000E+00 0.  1.
</event>
<event>
 7    1  0.3449603E-013  0.5930189E+02  0.7816164E-02  0.1266605E+00
        -11   -1    0    0    0    0  0.00000000000E+00  0.00000000000E+00  0.45593999997E+02  0.45594000000E+02  0.51100000000E-03 0.  1.
         11   -1    0    0    0    0 -0.00000000000E+00 -0.00000000000E+00 -0.45593999997E+02  0.45594000000E+02  0.51100000000E-03 0. -1.
    9900012    2    1    2    0    0  0.47035927152E+01 -0.30145244412E+02 -0.92663075956E+01  0.59301890147E+02  0.49999901735E+02 0.  0.
         12    1    1    2    0    0 -0.47035927152E+01  0.30145244412E+02  0.92663075956E+01  0.31886109853E+02  0.00000000000E+00 0. -1.
         11    1    3    3    0    0 -0.13299662472E+02 -0.18909698735E+02  0.32505959536E+01  0.23345751272E+02  0.51100000000E-03 0. -1.
        -11    1    3    3    0    0 -0.59680187884E+01 -0.54636168506E+01  0.43887144982E+00  0.81031454238E+01  0.51100000000E-03 0.  1.
         12    1    3    3    0    0  0.23971273976E+02 -0.57719288262E+01 -0.12955774999E+02  0.27852993452E+02  0.00000000000E+00 0. -1.
</event>
<event>
 7    1  0.3449603E-013  0.5930194E+02  0.7816164E-02  0.1266605E+00
        -11   -1    0    0    0    0  0.00000000000E+00  0.00000000000E+00  0.45593999997E+02  0.45594000000E+02  0.51100000000E-03 0. -1.
         11   -1    0    0    0    0 -0.00000000000E+00 -0.00000000000E+00 -0.45593999997E+02  0.45594000000E+02  0.51100000000E-03 0.  1.
    9900012    2    1    2    0    0  0.17003520958E+02 -0.20496811024E+02 -0.17535155683E+02  0.59301942358E+02  0.49999996955E+02 0.  0.
         12    1    1    2    0    0 -0.17003520958E+02  0.20496811024E+02  0.17535155683E+02  0.31886057642E+02  0.00000000000E+00 0. -1.
         11    1    3    3    0    0 -0.28772758797E+01 -0.18608115299E+01  0.75875511311E+01  0.83253989974E+01  0.51100000000E-03 0. -1.
        -11    1    3    3    0    0  0.17321689869E+02 -0.25714905616E+02 -0.76252700044E+01  0.31928702662E+02  0.51100000000E-03 0.  1.
        -12    1    3    3    0    0  0.25591069686E+01  0.70789061223E+01 -0.17497436810E+02  0.19047840699E+02  0.00000000000E+00 0.  1.
</event>
<event>
 7    1  0.3449603E-013  0.5930183E+02  0.7816164E-02  0.1266605E+00
        -11   -1    0    0    0    0  0.00000000000E+00  0.00000000000E+00  0.45593999997E+02  0.45594000000E+02  0.51100000000E-03 0.  1.
         11   -1    0    0    0    0 -0.00000000000E+00 -0.00000000000E+00 -0.45593999997E+02  0.45594000000E+02  0.51100000000E-03 0. -1.
    9900012    2    1    2    0    0  0.69584739918E+01  0.30626598890E+02 -0.55062836337E+01  0.59301826204E+02  0.49999785118E+02 0.  0.
         12    1    1    2    0    0 -0.69584739918E+01 -0.30626598890E+02  0.55062836337E+01  0.31886173796E+02  0.00000000000E+00 0. -1.
         11    1    3    3    0    0  0.42775723519E+01  0.44611362109E+01 -0.12051096612E+02  0.13543570110E+02  0.51100000000E-03 0. -1.
        -11    1    3    3    0    0  0.16616333071E+02  0.19494609647E+01  0.61233021285E+01  0.17815660302E+02  0.51100000000E-03 0.  1.
        -12    1    3    3    0    0 -0.13935431431E+02  0.24216001715E+02  0.42151084949E+00  0.27942595792E+02  0.00000000000E+00 0.  1.
</event>
<event>
 7    1  0.3449603E-013  0.5930191E+02  0.7816164E-02  0.1266605E+00
        -11   -1    0    0    0    0  0.00000000000E+00  0.00000000000E+00  0.45593999997E+02  0.45594000000E+02  0.51100000000E-03 0.  1.
         11   -1    0    0    0    0 -0.00000000000E+00 -0.00000000000E+00 -0.45593999997E+02  0.45594000000E+02  0.51100000000E-03 0. -1.
    9900012    2    1    2    0    0 -0.29359591053E+02  0.10726090639E+02 -0.62998711754E+01  0.59301906103E+02  0.49999930835E+02 0.  0.
         12    1    1    2    0    0  0.29359591053E+02 -0.10726090639E+02  0.62998711754E+01  0.31886093897E+02  0.00000000000E+00 0. -1.
         11    1    3    3    0    0  0.60426503019E+01 -0.83424485525E+01  0.56851083866E+01  0.11765650350E+02  0.51100000000E-03 0. -1.
        -11    1    3    3    0    0 -0.72112066889E+01  0.43419895084E+01  0.66019721830E+01  0.10697682542E+02  0.51100000000E-03 0.  1.
         12    1    3    3    0    0 -0.28191034666E+02  0.14726549683E+02 -0.18586951745E+02  0.36838573212E+02  0.00000000000E+00 0. -1.
</event>
<event>
 7    1  0.3449603E-013  0.5930196E+02  0.7816164E-02  0.1266605E+00
        -11   -1    0    0    0    0  0.00000000000E+00  0.00000000000E+00  0.45593999997E+02  0.45594000000E+02  0.51100000000E-03 0.  1.
         11   -1    0    0    0    0 -0.00000000000E+00 -0.00000000000E+00 -0.45593999997E+02  0.45594000000E+02  0.51100000000E-03 0. -1.
    9900012    2    1    2    0    0  0.12377777573E+02 -0.14040873440E+02  0.25814033670E+02  0.59301955421E+02  0.50000020779E+02 0.  0.
         12    1    1    2    0    0 -0.12377777573E+02  0.14040873440E+02 -0.25814033670E+02  0.31886044579E+02  0.00000000000E+00 0. -1.
         11    1    3    3    0    0 -0.10991347332E+01 -0.55668990243E+01  0.28919715660E+00  0.56817336408E+01  0.51100000000E-03 0. -1.
        -11    1    3    3    0    0 -0.46062274838E+01 -0.21321256554E+02  0.22317799444E+02  0.31207330629E+02  0.51100000000E-03 0.  1.
        -12    1    3    3    0    0  0.18083139790E+02  0.12847282139E+02  0.32070370687E+01  0.22412891152E+02  0.00000000000E+00 0.  1.
</event>
<event>
 7    1  0.3449603E-013  0.5930193E+02  0.7816164E-02  0.1266605E+00
        -11   -1    0    0    0    0  0.00000000000E+00  0.00000000000E+00  0.45593999997E+02  0.45594000000E+02  0.51100000000E-03 0.  1.
         11   -1    0    0    0    0 -0.00000000000E+00 -0.00000000000E+00 -0.45593999997E+02  0.45594000000E+02  0.51100000000E-03 0. -1.
    9900012    2    1    2    0    0 -0.34198926760E+00  0.25690815908E+02  0.18883489336E+02  0.59301934891E+02  0.49999983336E+02 0.  0.
         12    1    1    2    0    0  0.34198926760E+00 -0.25690815908E+02 -0.18883489336E+02  0.31886065109E+02  0.00000000000E+00 0. -1.
         11    1    3    3    0    0 -0.12034444779E+01  0.26079755298E+00 -0.19448811793E+01  0.23019246377E+01  0.51100000000E-03 0. -1.
        -11    1    3    3    0    0  0.87755674411E+01 -0.11239586655E+02  0.35744998016E+00  0.14264174102E+02  0.51100000000E-03 0.  1.
         12    1    3    3    0    0 -0.79141122308E+01  0.36669605009E+02  0.20470920535E+02  0.42735836150E+02  0.00000000000E+00 0. -1.
</event>
<event>
 7    1  0.3449603E-013  0.5930195E+02  0.7816164E-02  0.1266605E+00
        -11   -1    0    0    0    0  0.00000000000E+00  0.00000000000E+00  0.45593999997E+02  0.45594000000E+02  0.51100000000E-03 0. -1.
         11   -1    0    0    0    0 -0.00000000000E+00 -0.00000000000E+00 -0.45593999997E+02  0.45594000000E+02  0.51100000000E-03 0.  1.
    9900012    2    1    2    0    0 -0.66116801218E+01  0.40691079358E+01 -0.30926498428E+02  0.59301948842E+02  0.50000008780E+02 0.  0.
         12    1    1    2    0    0  0.66116801218E+01 -0.40691079358E+01  0.30926498428E+02  0.31886051158E+02  0.00000000000E+00 0. -1.
         11    1    3    3    0    0 -0.21560575814E+01  0.19152542735E+02 -0.25890896111E+02  0.32277034858E+02  0.51100000000E-03 0. -1.
        -11    1    3    3    0    0 -0.51076013506E+01  0.43930812872E+01  0.53145586216E+00  0.67578991075E+01  0.51100000000E-03 0.  1.
         12    1    3    3    0    0  0.65197881017E+00 -0.19476516087E+02 -0.55670581788E+01  0.20267014877E+02  0.00000000000E+00 0. -1.
</event>
<event>
 7    1  0.3449603E-013  0.5930190E+02  0.7816164E-02  0.1266605E+00
        -11   -1    0    0    0    0  0.00000000000E+00  0.00000000000E+00  0.45593999997E+02  0.45594000000E+02  0.51100000000E-03 0.  1.
         11   -1    0    0    0    0 -0.00000000000E+00 -0.00000000000E+00 -0.45593999997E+02  0.45594000000E+02  0.51100000000E-03 0. -1.
    9900012    2    1    2    0    0  0.24229569987E+02  0.16550888423E+02 -0.12478755640E+02  0.59301900965E+02  0.49999921464E+02 0.  0.
         12    1    1    2    0    0 -0.24229569987E+02 -0.16550888423E+02  0.12478755640E+02  0.31886099035E+02  0.00000000000E+00 0. -1.
         11    1    3    3    0    0  0.17629715658E+02  0.64311651883E+01 -0.81404054461E+01  0.20455633966E+02  0.51100000000E-03 0. -1.
        -11    1    3    3    0    0  0.19883042770E+02  0.46953790795E+01  0.58474973913E+01  0.21250298833E+02  0.51100000000E-03 0.  1.
         12    1    3    3    0    0 -0.13283188441E+02  0.54243441550E+01 -0.10185847585E+02  0.17595968166E+02  0.00000000000E+00 0. -1.
</event>
<event>
 7    1  0.3449603E-013  0.5930194E+02  0.7816164E-02  0.1266605E+00
        -11   -1    0    0    0    0  0.00000000000E+00  0.00000000000E+00  0.45593999997E+02  0.45594000000E+02  0.51100000000E-03 0. -1.
         11   -1    0    0    0    0 -0.00000000000E+00 -0.00000000000E+00 -0.45593999997E+02  0.45594000000E+02  0.51100000000E-03 0.  1.
    9900012    2    1    2    0    0  0.27336079716E+02 -0.84584431380E+01  0.14068197715E+02  0.59301941895E+02  0.49999996110E+02 0.  0.
         12    1    1    2    0    0 -0.27336079716E+02  0.84584431380E+01 -0.14068197715E+02  0.31886058105E+02  0.00000000000E+00 0. -1.
         11    1    3    3    0    0 -0.55146250212E+01  0.56749278995E+01  0.41819968356E+01  0.89501393053E+01  0.51100000000E-03 0. -1.
        -11    1    3    3    0    0 -0.49482055767E+01  0.41218742597E+01 -0.19674611722E+01  0.67339059666E+01  0.51100000000E-03 0.  1.
        -12    1    3    3    0    0  0.37798910313E+02 -0.18255245297E+02  0.11853662052E+02  0.43617896623E+02  0.00000000000E+00 0.  1.
</event>
<event>
 7    1  0.3449603E-013  0.5930195E+02  0.7816164E-02  0.1266605E+00
        -11   -1    0    0    0    0  0.00000000000E+00  0.00000000000E+00  0.45593999997E+02  0.45594000000E+02  0.51100000000E-03 0.  1.
         11   -1    0    0    0    0 -0.00000000000E+00 -0.00000000000E+00 -0.45593999997E+02  0.45594000000E+02  0.51100000000E-03 0. -1.
    9900012    2    1    2    0    0 -0.21787427696E+02  0.16701010677E+02  0.16220488466E+02  0.59301952749E+02  0.50000015905E+02 0.  0.
         12    1    1    2    0    0  0.21787427696E+02 -0.16701010677E+02 -0.16220488466E+02  0.31886047251E+02  0.00000000000E+00 0. -1.
         11    1    3    3    0    0 -0.15488552250E+02 -0.10136738434E+02  0.85638113890E+01  0.20395773646E+02  0.51100000000E-03 0. -1.
        -11    1    3    3    0    0 -0.85717578282E+00  0.82805574084E+01 -0.97968075228E+01  0.12856119913E+02  0.51100000000E-03 0.  1.
        -12    1    3    3    0    0 -0.54416996630E+01  0.18557191702E+02  0.17453484600E+02  0.26050059189E+02  0.00000000000E+00 0.  1.
</event>
<event>
 7    1  0.3449603E-013  0.5930193E+02  0.7816164E-02  0.1266605E+00
        -11   -1    0    0    0    0  0.00000000000E+00  0.00000000000E+00  0.45593999997E+02  0.45594000000E+02  0.51100000000E-03 0.  1.
         11   -1    0    0    0    0 -0.00000000000E+00 -0.00000000000E+00 -0.45593999997E+02  0.45594000000E+02  0.51100000000E-03 0. -1.
    9900012    2    1    2    0    0 -0.10111995362E+02  0.14185916908E+02  0.26706342044E+02  0.59301931034E+02  0.49999976302E+02 0.  0.
         12    1    1    2    0    0  0.10111995362E+02 -0.14185916908E+02 -0.26706342044E+02  0.31886068966E+02  0.00000000000E+00 0. -1.
         11    1    3    3    0    0  0.18182117047E+01  0.22091849291E+01  0.56610568610E+01  0.63430242707E+01  0.51100000000E-03 0. -1.
        -11    1    3    3    0    0  0.12417020756E+02  0.18943315211E+01  0.23341752966E+02  0.26506760046E+02  0.51100000000E-03 0.  1.
         12    1    3    3    0    0 -0.24347227823E+02  0.10082400458E+02 -0.22964677824E+01  0.26452146717E+02  0.00000000000E+00 0. -1.
</event>
<event>
 7    1  0.3449603E-013  0.5930194E+02  0.7816164E-02  0.1266605E+00
        -11   -1    0    0    0    0  0.00000000000E+00  0.00000000000E+00  0.45593999997E+02  0.45594000000E+02  0.51100000000E-03 0.  1.
         11   -1    0    0    0    0 -0.00000000000E+00 -0.00000000000E+00 -0.45593999997E+02  0.45594000000E+02  0.51100000000E-03 0. -1.
    9900012    2    1    2    0    0 -0.89256164852E+01  0.28920492273E+02 -0.10032913673E+02  0.59301939414E+02  0.49999991585E+02 0.  0.
         12    1    1    2    0    0  0.89256164852E+01 -0.28920492273E+02  0.10032913673E+02  0.31886060586E+02  0.00000000000E+00 0. -1.
         11    1    3    3    0    0 -0.41250122687E+01 -0.35087922644E+01 -0.25731816233E+00  0.54215830040E+01  0.51100000000E-03 0. -1.
        -11    1    3    3    0    0 -0.20035527626E+02  0.87151060838E+01 -0.13137208001E+02  0.25494345955E+02  0.51100000000E-03 0.  1.
        -12    1    3    3    0    0  0.15234923410E+02  0.23714178453E+02  0.33616124906E+01  0.28386010455E+02  0.00000000000E+00 0.  1.
</event>
<event>
 7    1  0.3449603E-013  0.5930195E+02  0.7816164E-02  0.1266605E+00
        -11   -1    0    0    0    0  0.00000000000E+00  0.00000000000E+00  0.45593999997E+02  0.45594000000E+02  0.51100000000E-03 0.  1.
         11   -1    0    0    0    0 -0.00000000000E+00 -0.00000000000E+00 -0.45593999997E+02  0.45594000000E+02  0.51100000000E-03 0. -1.
    9900012    2    1    2    0    0 -0.69717587153E+01  0.23922721884E+02  0.19895178449E+02  0.59301950269E+02  0.50000011383E+02 0.  0.
         12    1    1    2    0    0  0.69717587153E+01 -0.23922721884E+02 -0.19895178449E+02  0.31886049731E+02  0.00000000000E+00 0. -1.
         11    1    3    3    0    0  0.77972332400E+01 -0.96269232365E+00 -0.24506639007E+01  0.82297859343E+01  0.51100000000E-03 0. -1.
        -11    1    3    3    0    0 -0.97167783003E+01 -0.74118339057E+01  0.11078159925E+02  0.16494747345E+02  0.51100000000E-03 0.  1.
        -12    1    3    3    0    0 -0.50522136550E+01  0.32297248113E+02  0.11267682425E+02  0.34577416990E+02  0.00000000000E+00 0.  1.
</event>
<event>
 7    1  0.3449603E-013  0.5930195E+02  0.7816164E-02  0.1266605E+00
        -11   -1    0    0    0    0  0.00000000000E+00  0.00000000000E+00  0.45593999997E+02  0.45594000000E+02  0.51100000000E-03 0.  1.
         11   -1    0    0    0    0 -0.00000000000E+00 -0.00000000000E+00 -0.45593999997E+02  0.45594000000E+02  0.51100000000E-03 0. -1.
    9900012    2    1    2    0    0  0.15322916253E+02 -0.26213005963E+02 -0.97368593730E+01  0.59301954862E+02  0.50000019759E+02 0.  0.
         12    1    1    2    0    0 -0.15322916253E+02  0.26213005963E+02  0.97368593730E+01  0.31886045138E+02  0.00000000000E+00 0. -1.
         11    1    3    3    0    0  0.22105520197E+02 -0.23120752117E+02 -0.12689480637E+02  0.34412877251E+02  0.51100000000E-03 0. -1.
        -11    1    3    3    0    0  0.70174626658E+01  0.68257302816E+00 -0.48834621479E+01  0.85766480058E+01  0.51100000000E-03 0.  1.
        -12    1    3    3    0    0 -0.13800066610E+02 -0.37748268746E+01  0.78360834122E+01  0.16312429605E+02  0.00000000000E+00 0.  1.
</event>
<event>
 7    1  0.3449603E-013  0.5930193E+02  0.7816164E-02  0.1266605E+00
        -11   -1    0    0    0    0  0.00000000000E+00  0.00000000000E+00  0.45593999997E+02  0.45594000000E+02  0.51100000000E-03 0.  1.
         11   -1    0    0    0    0 -0.00000000000E+00 -0.00000000000E+00 -0.45593999997E+02  0.45594000000E+02  0.51100000000E-03 0. -1.
    9900012    2    1    2    0    0  0.75303442051E+01 -0.30435538815E+02 -0.58046163030E+01  0.59301926594E+02  0.49999968205E+02 0.  0.
         12    1    1    2    0    0 -0.75303442051E+01  0.30435538815E+02  0.58046163030E+01  0.31886073406E+02  0.00000000000E+00 0. -1.
         11    1    3    3    0    0 -0.69880555775E+01  0.20410804141E+01  0.60312264936E+01  0.94538152769E+01  0.51100000000E-03 0. -1.
        -11    1    3    3    0    0  0.14804131992E+02  0.85288602780E+00 -0.60671352402E+01  0.16021855975E+02  0.51100000000E-03 0.  1.
         12    1    3    3    0    0 -0.28573220897E+00 -0.33329505257E+02 -0.57687075565E+01  0.33826255342E+02  0.00000000000E+00 0. -1.
</event>
<event>
 7    1  0.3449603E-013  0.5930197E+02  0.7816164E-02  0.1266605E+00
        -11   -1    0    0    0    0  0.00000000000E+00  0.00000000000E+00  0.45593999997E+02  0.45594000000E+02  0.51100000000E-03 0.  1.
         11   -1    0    0    0    0 -0.00000000000E+00 -0.00000000000E+00 -0.45593999997E+02  0.45594000000E+02  0.51100000000E-03 0. -1.
    9900012    2    1    2    0    0 -0.85490490712E+01 -0.10297754117E+02  0.28941130121E+02  0.59301968692E+02  0.50000044982E+02 0.  0.
         12    1    1    2    0    0  0.85490490712E+01  0.10297754117E+02 -0.28941130121E+02  0.31886031308E+02  0.00000000000E+00 0. -1.
         11    1    3    3    0    0 -0.16334789977E+02 -0.39773841149E+01 -0.20759331597E+00  0.16813329332E+02  0.51100000000E-03 0. -1.
        -11    1    3    3    0    0 -0.47601512239E+01 -0.11356673438E+02  0.24399593060E+01  0.12553345089E+02  0.51100000000E-03 0.  1.
         12    1    3    3    0    0  0.12545892130E+02  0.50363034363E+01  0.26708764131E+02  0.29935294271E+02  0.00000000000E+00 0. -1.
</event>
<event>
 7    1  0.3449603E-013  0.5930195E+02  0.7816164E-02  0.1266605E+00
        -11   -1    0    0    0    0  0.00000000000E+00  0.00000000000E+00  0.45593999997E+02  0.45594000000E+02  0.51100000000E-03 0.  1.
         11   -1    0    0    0    0 -0.00000000000E+00 -0.00000000000E+00 -0.45593999997E+02  0.45594000000E+02  0.51100000000E-03 0. -1.
    9900012    2    1    2    0    0  0.17872296465E+01 -0.10292295711E+02  0.30126312136E+02  0.59301949386E+02  0.50000009772E+02 0.  0.
         12    1    1    2    0    0 -0.17872296465E+01  0.10292295711E+02 -0.30126312136E+02  0.31886050614E+02  0.00000000000E+00 0. -1.
         11    1    3    3    0    0 -0.21379179833E+01 -0.11575620877E+02  0.21761753670E+01  0.11970857592E+02  0.51100000000E-03 0. -1.
        -11    1    3    3    0    0 -0.15323787205E+02  0.79094170686E+01  0.17001043332E+02  0.24215961830E+02  0.51100000000E-03 0.  1.
         12    1    3    3    0    0  0.19248934835E+02 -0.66260919027E+01  0.10949093437E+02  0.23115129965E+02  0.00000000000E+00 0. -1.
</event>
<event>
 7    1  0.3449603E-013  0.5930194E+02  0.7816164E-02  0.1266605E+00
        -11   -1    0    0    0    0  0.00000000000E+00  0.00000000000E+00  0.45593999997E+02  0.45594000000E+02  0.51100000000E-03 0.  1.
         11   -1    0    0    0    0 -0.00000000000E+00 -0.00000000000E+00 -0.45593999997E+02  0.45594000000E+02  0.51100000000E-03 0. -1.
    9900012    2    1    2    0    0 -0.13294799029E+02  0.17631149316E+02  0.23002426431E+02  0.59301941461E+02  0.49999995319E+02 0.  0.
         12    1    1    2    0    0  0.13294799029E+02 -0.17631149316E+02 -0.23002426431E+02  0.31886058539E+02  0.00000000000E+00 0. -1.
         11    1    3    3    0    0  0.11518801068E+01 -0.80080739487E+01 -0.11957154867E+01  0.81783746511E+01  0.51100000000E-03 0. -1.
        -11    1    3    3    0    0  0.31832107652E+01  0.18642274688E+02 -0.17379595863E+01  0.18991780857E+02  0.51100000000E-03 0.  1.
        -12    1    3    3    0    0 -0.17629889901E+02  0.69969485767E+01  0.25936101504E+02  0.32131785953E+02  0.00000000000E+00 0.  1.
</event>
<event>
 7    1  0.3449603E-013  0.5930197E+02  0.7816164E-02  0.1266605E+00
        -11   -1    0    0    0    0  0.00000000000E+00  0.00000000000E+00  0.45593999997E+02  0.45594000000E+02  0.51100000000E-03 0.  1.
         11   -1    0    0    0    0 -0.00000000000E+00 -0.00000000000E+00 -0.45593999997E+02  0.45594000000E+02  0.51100000000E-03 0. -1.
    9900012    2    1    2    0    0  0.12566186986E+02  0.30254191848E+01  0.29148873935E+02  0.59301967504E+02  0.50000042816E+02 0.  0.
         12    1    1    2    0    0 -0.12566186986E+02 -0.30254191848E+01 -0.29148873935E+02  0.31886032496E+02  0.00000000000E+00 0. -1.
         11    1    3    3    0    0  0.12485507493E+02  0.94229751253E+01  0.21207136073E+02  0.26351906539E+02  0.51100000000E-03 0. -1.
        -11    1    3    3    0    0  0.44979424220E+01  0.81594773709E+01  0.13798136284E+02  0.16649237886E+02  0.51100000000E-03 0.  1.
         12    1    3    3    0    0 -0.44172629290E+01 -0.14557033311E+02 -0.58563984215E+01  0.16300823080E+02  0.00000000000E+00 0. -1.
</event>
<event>
 7    1  0.3796520E-013  0.5930192E+02  0.7816164E-02  0.1266605E+00
        -11   -1    0    0    0    0  0.00000000000E+00  0.00000000000E+00  0.45593999997E+02  0.45594000000E+02  0.51100000000E-03 0. -1.
         11   -1    0    0    0    0 -0.00000000000E+00 -0.00000000000E+00 -0.45593999997E+02  0.45594000000E+02  0.51100000000E-03 0.  1.
    9900012    2    1    2    0    0 -0.23845409318E+02 -0.15514304053E+02 -0.14402256130E+02  0.59301919065E+02  0.49999954474E+02 0.  0.
         12    1    1    2    0    0  0.23845409318E+02  0.15514304053E+02  0.14402256130E+02  0.31886080935E+02  0.00000000000E+00 0. -1.
         11    1    3    3    0    0  0.96613794792E+01 -0.99759296410E+01 -0.10566888575E+02  0.17450517472E+02  0.51100000000E-03 0. -1.
        -11    1    3    3    0    0 -0.74488721908E+01 -0.32486908816E+01 -0.11960667472E+02  0.14460195572E+02  0.51100000000E-03 0.  1.
         12    1    3    3    0    0 -0.26057916606E+02 -0.22896835300E+01  0.81252999159E+01  0.27391206020E+02  0.00000000000E+00 0. -1.
</event>
<event>
 7    1  0.3449603E-013  0.5930196E+02  0.7816164E-02  0.1266605E+00
        -11   -1    0    0    0    0  0.00000000000E+00  0.00000000000E+00  0.45593999997E+02  0.45594000000E+02  0.51100000000E-03 0. -1.
         11   -1    0    0    0    0 -0.00000000000E+00 -0.00000000000E+00 -0.45593999997E+02  0.45594000000E+02  0.51100000000E-03 0.  1.
    9900012    2    1    2    0    0 -0.29658716492E+02  0.41644681455E+01  0.10942452501E+02  0.59301960334E+02  0.50000029738E+02 0.  0.
         12    1    1    2    0    0  0.29658716492E+02 -0.41644681455E+01 -0.10942452501E+02  0.31886039666E+02  0.00000000000E+00 0. -1.
         11    1    3    3    0    0 -0.11412223469E+01  0.13175948117E+02  0.10302098064E+02  0.16764284119E+02  0.51100000000E-03 0. -1.
        -11    1    3    3    0    0 -0.19879561549E+02 -0.12167936798E+02 -0.12539150135E+02  0.26466694914E+02  0.51100000000E-03 0.  1.
         12    1    3    3    0    0 -0.86379325962E+01  0.31564568266E+01  0.13179504572E+02  0.16070981301E+02  0.00000000000E+00 0. -1.
</event>
<event>
 7    1  0.3449603E-013  0.5930197E+02  0.7816164E-02  0.1266605E+00
        -11   -1    0    0    0    0  0.00000000000E+00  0.00000000000E+00  0.45593999997E+02  0.45594000000E+02  0.51100000000E-03 0.  1.
         11   -1    0    0    0    0 -0.00000000000E+00 -0.00000000000E+00 -0.45593999997E+02  0.45594000000E+02  0.51100000000E-03 0. -1.
    9900012    2    1    2    0    0 -0.42997491088E+01 -0.29203837723E+02 -0.12056822551E+02  0.59301969357E+02  0.50000046194E+02 0.  0.
         12    1    1    2    0    0  0.42997491088E+01  0.29203837723E+02  0.12056822551E+02  0.31886030643E+02  0.00000000000E+00 0. -1.
         11    1    3    3    0    0 -0.46061587585E+01 -0.51407513959E+00 -0.46464245015E+01  0.65627915300E+01  0.51100000000E-03 0. -1.
        -11    1    3    3    0    0 -0.17044936885E+02 -0.27491434096E+02 -0.12404627349E+02  0.34643666117E+02  0.51100000000E-03 0.  1.
         12    1    3    3    0    0  0.17351346535E+02 -0.11983284881E+01  0.49942293003E+01  0.18095511710E+02  0.00000000000E+00 0. -1.
</event>
<event>
 7    1  0.3449603E-013  0.5930194E+02  0.7816164E-02  0.1266605E+00
        -11   -1    0    0    0    0  0.00000000000E+00  0.00000000000E+00  0.45593999997E+02  0.45594000000E+02  0.51100000000E-03 0.  1.
         11   -1    0    0    0    0 -0.00000000000E+00 -0.00000000000E+00 -0.45593999997E+02  0.45594000000E+02  0.51100000000E-03 0. -1.
    9900012    2    1    2    0    0  0.25472780859E+02 -0.78394293433E+01  0.17504335892E+02  0.59301937337E+02  0.49999987798E+02 0.  0.
         12    1    1    2    0    0 -0.25472780859E+02  0.78394293433E+01 -0.17504335892E+02  0.31886062663E+02  0.00000000000E+00 0. -1.
         11    1    3    3    0    0  0.16934749870E+02 -0.17017386948E+02 -0.70344987089E+01  0.25017221749E+02  0.51100000000E-03 0. -1.
        -11    1    3    3    0    0  0.25880836795E+01 -0.43312335291E+01  0.16953548536E+02  0.17688430378E+02  0.51100000000E-03 0.  1.
        -12    1    3    3    0    0  0.59499473090E+01  0.13509191134E+02  0.75852860646E+01  0.16596285209E+02  0.00000000000E+00 0.  1.
</event>
<event>
 7    1  0.3449603E-013  0.5930193E+02  0.7816164E-02  0.1266605E+00
        -11   -1    0    0    0    0  0.00000000000E+00  0.00000000000E+00  0.45593999997E+02  0.45594000000E+02  0.51100000000E-03 0. -1.
         11   -1    0    0    0    0 -0.00000000000E+00 -0.00000000000E+00 -0.45593999997E+02  0.45594000000E+02  0.51100000000E-03 0.  1.
    9900012    2    1    2    0    0  0.71272338309E+01 -0.28220911431E+02 -0.13019380258E+02  0.59301928332E+02  0.49999971376E+02 0.  0.
         12    1    1    2    0    0 -0.71272338309E+01  0.28220911431E+02  0.13019380258E+02  0.31886071668E+02  0.00000000000E+00 0. -1.
         11    1    3    3    0    0 -0.72220268795E+01 -0.45778057334E+01  0.71664503143E+01  0.11156701482E+02  0.51100000000E-03 0. -1.
        -11    1    3    3    0    0  0.12228976958E+02 -0.28072727690E+02 -0.35809428012E+01  0.30829354015E+02  0.51100000000E-03 0.  1.
        -12    1    3    3    0    0  0.21202837525E+01  0.44296219920E+01 -0.16604887771E+02  0.17315872836E+02  0.00000000000E+00 0.  1.
</event>
<event>
 7    1  0.3535292E-013  0.5930198E+02  0.7816164E-02  0.1266605E+00
        -11   -1    0    0    0    0  0.00000000000E+00  0.00000000000E+00  0.45593999997E+02  0.45594000000E+02  0.51100000000E-03 0. -1.
         11   -1    0    0    0    0 -0.00000000000E+00 -0.00000000000E+00 -0.45593999997E+02  0.45594000000E+02  0.51100000000E-03 0.  1.
    9900012    2    1    2    0    0 -0.70091106983E+01  0.26003003791E+02 -0.17071448141E+02  0.59301981425E+02  0.50000068204E+02 0.  0.
         12    1    1    2    0    0  0.70091106983E+01 -0.26003003791E+02  0.17071448141E+02  0.31886018575E+02  0.00000000000E+00 0. -1.
         11    1    3    3    0    0 -0.72356785014E+01  0.12720647620E+01 -0.28913612601E+01  0.78951353587E+01  0.51100000000E-03 0. -1.
        -11    1    3    3    0    0 -0.11634893409E+02  0.36552620811E+01 -0.22697611051E+02  0.25766513797E+02  0.51100000000E-03 0.  1.
         12    1    3    3    0    0  0.11861461213E+02  0.21075676948E+02  0.85175241709E+01  0.25640332270E+02  0.00000000000E+00 0. -1.
</event>
<event>
 7    1  0.3449603E-013  0.5930195E+02  0.7816164E-02  0.1266605E+00
        -11   -1    0    0    0    0  0.00000000000E+00  0.00000000000E+00  0.45593999997E+02  0.45594000000E+02  0.51100000000E-03 0. -1.
         11   -1    0    0    0    0 -0.00000000000E+00 -0.00000000000E+00 -0.45593999997E+02  0.45594000000E+02  0.51100000000E-03 0.  1.
    9900012    2    1    2    0    0  0.16655488578E+02 -0.35847037057E+01 -0.26953015632E+02  0.59301945805E+02  0.50000003242E+02 0.  0.
         12    1    1    2    0    0 -0.16655488578E+02  0.35847037057E+01  0.26953015632E+02  0.31886054195E+02  0.00000000000E+00 0. -1.
         11    1    3    3    0    0  0.13169282035E+01 -0.14485028678E+02 -0.16818319140E+02  0.22235247124E+02  0.51100000000E-03 0. -1.
        -11    1    3    3    0    0  0.36538076485E+00  0.34747397173E+01 -0.18183595467E+02  0.18516221633E+02  0.51100000000E-03 0.  1.
         12    1    3    3    0    0  0.14973179610E+02  0.74255852550E+01  0.80488989746E+01  0.18550477048E+02  0.00000000000E+00 0. -1.
</event>
<event>
 7    1  0.3449603E-013  0.5930195E+02  0.7816164E-02  0.1266605E+00
        -11   -1    0    0    0    0  0.00000000000E+00  0.00000000000E+00  0.45593999997E+02  0.45594000000E+02  0.51100000000E-03 0. -1.
         11   -1    0    0    0    0 -0.00000000000E+00 -0.00000000000E+00 -0.45593999997E+02  0.45594000000E+02  0.51100000000E-03 0.  1.
    9900012    2    1    2    0    0 -0.25533337741E+02  0.83557925236E+01 -0.17174092821E+02  0.59301951811E+02  0.50000014194E+02 0.  0.
         12    1    1    2    0    0  0.25533337741E+02 -0.83557925236E+01  0.17174092821E+02  0.31886048189E+02  0.00000000000E+00 0. -1.
         11    1    3    3    0    0 -0.15223552279E+02 -0.39762179115E+01  0.34397454689E+01  0.16105859245E+02  0.51100000000E-03 0. -1.
        -11    1    3    3    0    0 -0.47543202773E+01 -0.11016974781E+02 -0.13715924389E+02  0.18223717424E+02  0.51100000000E-03 0.  1.
        -12    1    3    3    0    0 -0.55554651854E+01  0.23348985216E+02 -0.68979139002E+01  0.24972375142E+02  0.00000000000E+00 0.  1.
</event>
<event>
 7    1  0.3449603E-013  0.5930193E+02  0.7816164E-02  0.1266605E+00
        -11   -1    0    0    0    0  0.00000000000E+00  0.00000000000E+00  0.45593999997E+02  0.45594000000E+02  0.51100000000E-03 0.  1.
         11   -1    0    0    0    0 -0.00000000000E+00 -0.00000000000E+00 -0.45593999997E+02  0.45594000000E+02  0.51100000000E-03 0. -1.
    9900012    2    1    2    0    0  0.20873769016E+02 -0.15130206629E+02  0.18763906885E+02  0.59301928007E+02  0.49999970781E+02 0.  0.
         12    1    1    2    0    0 -0.20873769016E+02  0.15130206629E+02 -0.18763906885E+02  0.31886071993E+02  0.00000000000E+00 0. -1.
         11    1    3    3    0    0 -0.40125440629E+01  0.37037937655E+01  0.10614177144E+02  0.11936471624E+02  0.51100000000E-03 0. -1.
        -11    1    3    3    0    0  0.18625744634E+02 -0.17187465406E+02  0.21040997795E+02  0.32940111092E+02  0.51100000000E-03 0.  1.
         12    1    3    3    0    0  0.62605684446E+01 -0.16465349888E+01 -0.12891268054E+02  0.14425345291E+02  0.00000000000E+00 0. -1.
</event>
<event>
 7    1  0.3449603E-013  0.5930191E+02  0.7816164E-02  0.1266605E+00
        -11   -1    0    0    0    0  0.00000000000E+00  0.00000000000E+00  0.45593999997E+02  0.45594000000E+02  0.51100000000E-03 0.  1.
         11   -1    0    0    0    0 -0.00000000000E+00 -0.00000000000E+00 -0.45593999997E+02  0.45594000000E+02  0.51100000000E-03 0. -1.
    9900012    2    1    2    0    0  0.22952720450E+01  0.21644079332E+02  0.23302114273E+02  0.59301906268E+02  0.49999931136E+02 0.  0.
         12    1    1    2    0    0 -0.22952720450E+01 -0.21644079332E+02 -0.23302114273E+02  0.31886093732E+02  0.00000000000E+00 0. -1.
         11    1    3    3    0    0  0.84694278124E+01  0.28653716689E+02  0.80662667116E+01  0.30948850487E+02  0.51100000000E-03 0. -1.
        -11    1    3    3    0    0  0.31889456167E+01  0.55628782566E+01 -0.11424037276E+00  0.64131146698E+01  0.51100000000E-03 0.  1.
        -12    1    3    3    0    0 -0.93631013841E+01 -0.12572515614E+02  0.15350087934E+02  0.21939941111E+02  0.00000000000E+00 0.  1.
</event>
<event>
 7    1  0.3449603E-013  0.5930206E+02  0.7816164E-02  0.1266604E+00
        -11   -1    0    0    0    0  0.00000000000E+00  0.00000000000E+00  0.45593999997E+02  0.45594000000E+02  0.51100000000E-03 0.  1.
         11   -1    0    0    0    0 -0.00000000000E+00 -0.00000000000E+00 -0.45593999997E+02  0.45594000000E+02  0.51100000000E-03 0. -1.
    9900012    2    1    2    0    0 -0.21124801498E+02  0.78341897264E+01 -0.22562832538E+02  0.59302059852E+02  0.50000211235E+02 0.  0.
         12    1    1    2    0    0  0.21124801498E+02 -0.78341897264E+01  0.22562832538E+02  0.31885940148E+02  0.00000000000E+00 0. -1.
         11    1    3    3    0    0 -0.70372051631E+01  0.14892504468E+02 -0.15650113494E+01  0.16545640110E+02  0.51100000000E-03 0. -1.
        -11    1    3    3    0    0  0.24969658199E+01  0.11182684195E+02 -0.19972971569E+01  0.11630840911E+02  0.51100000000E-03 0.  1.
        -12    1    3    3    0    0 -0.16584562155E+02 -0.18240998937E+02 -0.19000524031E+02  0.31125578831E+02  0.00000000000E+00 0.  1.
</event>
<event>
 7    1  0.3449603E-013  0.5930197E+02  0.7816164E-02  0.1266605E+00
        -11   -1    0    0    0    0  0.00000000000E+00  0.00000000000E+00  0.45593999997E+02  0.45594000000E+02  0.51100000000E-03 0.  1.
         11   -1    0    0    0    0 -0.00000000000E+00 -0.00000000000E+00 -0.45593999997E+02  0.45594000000E+02  0.51100000000E-03 0. -1.
    9900012    2    1    2    0    0 -0.30241791082E+02  0.27728457782E+01  0.97192817282E+01  0.59301967966E+02  0.50000043658E+02 0.  0.
         12    1    1    2    0    0  0.30241791082E+02 -0.27728457782E+01 -0.97192817282E+01  0.31886032034E+02  0.00000000000E+00 0. -1.
         11    1    3    3    0    0  0.10248712664E+01  0.62707105910E+01  0.27278529776E+00  0.63597629287E+01  0.51100000000E-03 0. -1.
        -11    1    3    3    0    0  0.65541781087E+01 -0.11588541305E+02  0.38777831741E+01  0.13866821657E+02  0.51100000000E-03 0.  1.
        -12    1    3    3    0    0 -0.37820840457E+02  0.80906764922E+01  0.55687132563E+01  0.39075383380E+02  0.00000000000E+00 0.  1.
</event>
<event>
 7    1  0.4548226E-013  0.5930194E+02  0.7816164E-02  0.1266605E+00
        -11   -1    0    0    0    0  0.00000000000E+00  0.00000000000E+00  0.45593999997E+02  0.45594000000E+02  0.51100000000E-03 0.  1.
         11   -1    0    0    0    0 -0.00000000000E+00 -0.00000000000E+00 -0.45593999997E+02  0.45594000000E+02  0.51100000000E-03 0. -1.
    9900012    2    1    2    0    0 -0.89661186468E+01 -0.29847937763E+02  0.67401854839E+01  0.59301940779E+02  0.49999994075E+02 0.  0.
         12    1    1    2    0    0  0.89661186468E+01  0.29847937763E+02 -0.67401854839E+01  0.31886059221E+02  0.00000000000E+00 0. -1.
         11    1    3    3    0    0  0.10828032969E+02 -0.83863661511E+01 -0.35543240504E+01  0.14149581439E+02  0.51100000000E-03 0. -1.
        -11    1    3    3    0    0 -0.10234317498E+02 -0.28431642254E+02  0.12202857115E+01  0.30242166480E+02  0.51100000000E-03 0.  1.
         12    1    3    3    0    0 -0.95598341178E+01  0.69700706426E+01  0.90742238228E+01  0.14910192860E+02  0.00000000000E+00 0. -1.
</event>
<event>
 7    1  0.3449603E-013  0.5930195E+02  0.7816164E-02  0.1266605E+00
        -11   -1    0    0    0    0  0.00000000000E+00  0.00000000000E+00  0.45593999997E+02  0.45594000000E+02  0.51100000000E-03 0.  1.
         11   -1    0    0    0    0 -0.00000000000E+00 -0.00000000000E+00 -0.45593999997E+02  0.45594000000E+02  0.51100000000E-03 0. -1.
    9900012    2    1    2    0    0  0.82030439816E+01 -0.23233431443E+02  0.20239521465E+02  0.59301945112E+02  0.50000001977E+02 0.  0.
         12    1    1    2    0    0 -0.82030439816E+01  0.23233431443E+02 -0.20239521465E+02  0.31886054888E+02  0.00000000000E+00 0. -1.
         11    1    3    3    0    0 -0.90565532804E+00  0.55690832571E+01  0.54257190914E+01  0.78277281390E+01  0.51100000000E-03 0. -1.
        -11    1    3    3    0    0 -0.74152456263E+01  0.18295485024E+01  0.14816921259E+02  0.16669561221E+02  0.51100000000E-03 0.  1.
         12    1    3    3    0    0  0.16523944936E+02 -0.30632063203E+02 -0.31188854376E-02  0.34804655752E+02  0.00000000000E+00 0. -1.
</event>
<event>
 7    1  0.3449603E-013  0.5930190E+02  0.7816164E-02  0.1266605E+00
        -11   -1    0    0    0    0  0.00000000000E+00  0.00000000000E+00  0.45593999997E+02  0.45594000000E+02  0.51100000000E-03 0.  1.
         11   -1    0    0    0    0 -0.00000000000E+00 -0.00000000000E+00 -0.45593999997E+02  0.45594000000E+02  0.51100000000E-03 0. -1.
    9900012    2    1    2    0    0 -0.24208300153E+02  0.19134003978E+02  0.80356241139E+01  0.59301903352E+02  0.49999925817E+02 0.  0.
         12    1    1    2    0    0  0.24208300153E+02 -0.19134003978E+02 -0.80356241139E+01  0.31886096648E+02  0.00000000000E+00 0. -1.
         11    1    3    3    0    0 -0.14679283415E+02 -0.72785963933E+01  0.59023030209E+01  0.17415410079E+02  0.51100000000E-03 0. -1.
        -11    1    3    3    0    0 -0.14826529292E+02  0.28780550968E+01  0.79555399881E+01  0.17070436103E+02  0.51100000000E-03 0.  1.
        -12    1    3    3    0    0  0.52975125538E+01  0.23534545275E+02 -0.58222188951E+01  0.24816057169E+02  0.00000000000E+00 0.  1.
</event>
<event>
 7    1  0.3449603E-013  0.5930196E+02  0.7816164E-02  0.1266605E+00
        -11   -1    0    0    0    0  0.00000000000E+00  0.00000000000E+00  0.45593999997E+02  0.45594000000E+02  0.51100000000E-03 0.  1.
         11   -1    0    0    0    0 -0.00000000000E+00 -0.00000000000E+00 -0.45593999997E+02  0.45594000000E+02  0.51100000000E-03 0. -1.
    9900012    2    1    2    0    0 -0.31796755979E+02 -0.20951783362E+01  0.11383825305E+01  0.59301962651E+02  0.50000033964E+02 0.  0.
         12    1    1    2    0    0  0.31796755979E+02  0.20951783362E+01 -0.11383825305E+01  0.31886037349E+02  0.00000000000E+00 0. -1.
         11    1    3    3    0    0 -0.74299270404E+01  0.13254469271E+00  0.59957324323E+01  0.95483083100E+01  0.51100000000E-03 0.  1.
        -11    1    3    3    0    0 -0.17107260242E+02 -0.16602317655E+02 -0.17256731401E+02  0.29429408479E+02  0.51100000000E-03 0. -1.
         12    1    3    3    0    0 -0.72595686961E+01  0.14374594626E+02  0.12399381499E+02  0.20324245862E+02  0.00000000000E+00 0. -1.
</event>
<event>
 7    1  0.3449603E-013  0.5930195E+02  0.7816164E-02  0.1266605E+00
        -11   -1    0    0    0    0  0.00000000000E+00  0.00000000000E+00  0.45593999997E+02  0.45594000000E+02  0.51100000000E-03 0.  1.
         11   -1    0    0    0    0 -0.00000000000E+00 -0.00000000000E+00 -0.45593999997E+02  0.45594000000E+02  0.51100000000E-03 0. -1.
    9900012    2    1    2    0    0  0.60301450733E+01  0.23080105042E+02  0.21158130289E+02  0.59301947004E+02  0.50000005428E+02 0.  0.
         12    1    1    2    0    0 -0.60301450733E+01 -0.23080105042E+02 -0.21158130289E+02  0.31886052996E+02  0.00000000000E+00 0. -1.
         11    1    3    3    0    0  0.15360804781E+02  0.59471178547E+01  0.27291161177E+02  0.31876794270E+02  0.51100000000E-03 0. -1.
        -11    1    3    3    0    0  0.31918552709E+01  0.10408042274E+02  0.19706115302E+01  0.11063389812E+02  0.51100000000E-03 0.  1.
         12    1    3    3    0    0 -0.12522514979E+02  0.67249449130E+01 -0.81036424185E+01  0.16361762922E+02  0.00000000000E+00 0. -1.
</event>
<event>
 7    1  0.3449603E-013  0.5930160E+02  0.7816164E-02  0.1266606E+00
        -11   -1    0    0    0    0  0.00000000000E+00  0.00000000000E+00  0.45593999997E+02  0.45594000000E+02  0.51100000000E-03 0. -1.
         11   -1    0    0    0    0 -0.00000000000E+00 -0.00000000000E+00 -0.45593999997E+02  0.45594000000E+02  0.51100000000E-03 0.  1.
    9900012    2    1    2    0    0  0.29618213727E+02  0.63043360079E+01  0.99879679516E+01  0.59301596304E+02  0.49999365832E+02 0.  0.
         12    1    1    2    0    0 -0.29618213727E+02 -0.63043360079E+01 -0.99879679516E+01  0.31886403696E+02  0.00000000000E+00 0. -1.
         11    1    3    3    0    0  0.29481236754E+02  0.22015122369E+00  0.17686900029E+01  0.29535064782E+02  0.51100000000E-03 0.  1.
        -11    1    3    3    0    0  0.78209277240E+01  0.10366971599E+02  0.14112396382E+02  0.19178131883E+02  0.51100000000E-03 0. -1.
        -12    1    3    3    0    0 -0.76839507513E+01 -0.42827868145E+01 -0.58931184338E+01  0.10588399639E+02  0.00000000000E+00 0.  1.
</event>
<event>
 7    1  0.3449603E-013  0.5930194E+02  0.7816164E-02  0.1266605E+00
        -11   -1    0    0    0    0  0.00000000000E+00  0.00000000000E+00  0.45593999997E+02  0.45594000000E+02  0.51100000000E-03 0.  1.
         11   -1    0    0    0    0 -0.00000000000E+00 -0.00000000000E+00 -0.45593999997E+02  0.45594000000E+02  0.51100000000E-03 0. -1.
    9900012    2    1    2    0    0 -0.30574789782E+02 -0.53947868107E+01  0.72662927329E+01  0.59301944976E+02  0.50000001729E+02 0.  0.
         12    1    1    2    0    0  0.30574789782E+02  0.53947868107E+01 -0.72662927329E+01  0.31886055024E+02  0.00000000000E+00 0. -1.
         11    1    3    3    0    0 -0.11457781962E+01  0.48205224546E+01 -0.10494181035E+02  0.11605088551E+02  0.51100000000E-03 0. -1.
        -11    1    3    3    0    0 -0.20854489875E+02 -0.13827843676E+01 -0.52952348787E+01  0.21560643618E+02  0.51100000000E-03 0.  1.
        -12    1    3    3    0    0 -0.85745217110E+01 -0.88325248976E+01  0.23055708647E+02  0.26136212806E+02  0.00000000000E+00 0.  1.
</event>
<event>
 7    1  0.3449603E-013  0.5930177E+02  0.7816164E-02  0.1266605E+00
        -11   -1    0    0    0    0  0.00000000000E+00  0.00000000000E+00  0.45593999997E+02  0.45594000000E+02  0.51100000000E-03 0.  1.
         11   -1    0    0    0    0 -0.00000000000E+00 -0.00000000000E+00 -0.45593999997E+02  0.45594000000E+02  0.51100000000E-03 0. -1.
    9900012    2    1    2    0    0  0.39319926531E+01 -0.17442046309E+02  0.26401632676E+02  0.59301768588E+02  0.49999680040E+02 0.  0.
         12    1    1    2    0    0 -0.39319926531E+01  0.17442046309E+02 -0.26401632676E+02  0.31886231412E+02  0.00000000000E+00 0. -1.
         11    1    3    3    0    0 -0.63791229838E+01  0.11684464894E+02  0.11882908284E+02  0.17844423203E+02  0.51100000000E-03 0.  1.
        -11    1    3    3    0    0  0.97558984880E+01 -0.86247238162E+01 -0.42079770813E+01  0.13684680763E+02  0.51100000000E-03 0. -1.
        -12    1    3    3    0    0  0.55521714898E+00 -0.20501787387E+02  0.18726701473E+02  0.27772664622E+02  0.00000000000E+00 0.  1.
</event>
<event>
 7    1  0.3449603E-013  0.5930196E+02  0.7816164E-02  0.1266605E+00
        -11   -1    0    0    0    0  0.00000000000E+00  0.00000000000E+00  0.45593999997E+02  0.45594000000E+02  0.51100000000E-03 0.  1.
         11   -1    0    0    0    0 -0.00000000000E+00 -0.00000000000E+00 -0.45593999997E+02  0.45594000000E+02  0.51100000000E-03 0. -1.
    9900012    2    1    2    0    0 -0.19782791693E+02 -0.20479772983E+02 -0.14350591105E+02  0.59301962088E+02  0.50000032938E+02 0.  0.
         12    1    1    2    0    0  0.19782791693E+02  0.20479772983E+02  0.14350591105E+02  0.31886037912E+02  0.00000000000E+00 0. -1.
         11    1    3    3    0    0  0.98514595017E+01 -0.53176224949E+00 -0.12068989625E+02  0.15588282017E+02  0.51100000000E-03 0. -1.
        -11    1    3    3    0    0  0.13724046564E+01 -0.10999382363E+02  0.16355574759E+01  0.11204684530E+02  0.51100000000E-03 0.  1.
         12    1    3    3    0    0 -0.31006655852E+02 -0.89486283712E+01 -0.39171589561E+01  0.32508995541E+02  0.00000000000E+00 0. -1.
</event>
<event>
 7    1  0.3449603E-013  0.5930194E+02  0.7816164E-02  0.1266605E+00
        -11   -1    0    0    0    0  0.00000000000E+00  0.00000000000E+00  0.45593999997E+02  0.45594000000E+02  0.51100000000E-03 0.  1.
         11   -1    0    0    0    0 -0.00000000000E+00 -0.00000000000E+00 -0.45593999997E+02  0.45594000000E+02  0.51100000000E-03 0. -1.
    9900012    2    1    2    0    0 -0.92672425229E+01  0.28922094692E+02  0.97134641546E+01  0.59301941429E+02  0.49999995260E+02 0.  0.
         12    1    1    2    0    0  0.92672425229E+01 -0.28922094692E+02 -0.97134641546E+01  0.31886058571E+02  0.00000000000E+00 0. -1.
         11    1    3    3    0    0 -0.54677427949E+01  0.90918232593E+01 -0.16770721472E+01  0.10741044302E+02  0.51100000000E-03 0. -1.
        -11    1    3    3    0    0  0.12771701806E+01  0.29119569997E+02 -0.44738038373E+01  0.29488903701E+02  0.51100000000E-03 0.  1.
        -12    1    3    3    0    0 -0.50766699086E+01 -0.92892985641E+01  0.15864340139E+02  0.19071993426E+02  0.00000000000E+00 0.  1.
</event>
<event>
 7    1  0.3449603E-013  0.5930200E+02  0.7816164E-02  0.1266605E+00
        -11   -1    0    0    0    0  0.00000000000E+00  0.00000000000E+00  0.45593999997E+02  0.45594000000E+02  0.51100000000E-03 0.  1.
         11   -1    0    0    0    0 -0.00000000000E+00 -0.00000000000E+00 -0.45593999997E+02  0.45594000000E+02  0.51100000000E-03 0. -1.
    9900012    2    1    2    0    0  0.98046682245E+01 -0.26138890879E+02 -0.15405978084E+02  0.59301995294E+02  0.50000093497E+02 0.  0.
         12    1    1    2    0    0 -0.98046682245E+01  0.26138890879E+02  0.15405978084E+02  0.31886004706E+02  0.00000000000E+00 0. -1.
         11    1    3    3    0    0  0.57620563726E+00 -0.12020785781E+02 -0.62446774494E+01  0.13558292681E+02  0.51100000000E-03 0. -1.
        -11    1    3    3    0    0 -0.31304219550E+01 -0.25642201217E+02 -0.12209892833E+02  0.28572775646E+02  0.51100000000E-03 0.  1.
         12    1    3    3    0    0  0.12358884542E+02  0.11524096119E+02  0.30485921979E+01  0.17170926966E+02  0.00000000000E+00 0. -1.
</event>
<event>
 7    1  0.3449603E-013  0.5930195E+02  0.7816164E-02  0.1266605E+00
        -11   -1    0    0    0    0  0.00000000000E+00  0.00000000000E+00  0.45593999997E+02  0.45594000000E+02  0.51100000000E-03 0. -1.
         11   -1    0    0    0    0 -0.00000000000E+00 -0.00000000000E+00 -0.45593999997E+02  0.45594000000E+02  0.51100000000E-03 0.  1.
    9900012    2    1    2    0    0 -0.16064363858E+02  0.27005306308E+02 -0.54193685001E+01  0.59301954307E+02  0.50000018748E+02 0.  0.
         12    1    1    2    0    0  0.16064363858E+02 -0.27005306308E+02  0.54193685001E+01  0.31886045693E+02  0.00000000000E+00 0. -1.
         11    1    3    3    0    0  0.17033991527E+01  0.44688637897E+01  0.84239007090E+01  0.96868165906E+01  0.51100000000E-03 0. -1.
        -11    1    3    3    0    0 -0.19606288785E+02  0.24420135601E+02  0.40066517954E+01  0.31572184618E+02  0.51100000000E-03 0.  1.
        -12    1    3    3    0    0  0.18385257741E+01 -0.18836930823E+01 -0.17849921005E+02  0.18042953099E+02  0.00000000000E+00 0.  1.
</event>
<event>
 7    1  0.3449603E-013  0.5930192E+02  0.7816164E-02  0.1266605E+00
        -11   -1    0    0    0    0  0.00000000000E+00  0.00000000000E+00  0.45593999997E+02  0.45594000000E+02  0.51100000000E-03 0. -1.
         11   -1    0    0    0    0 -0.00000000000E+00 -0.00000000000E+00 -0.45593999997E+02  0.45594000000E+02  0.51100000000E-03 0.  1.
    9900012    2    1    2    0    0  0.22771022540E+02  0.17372507344E+02  0.14014231977E+02  0.59301918760E+02  0.49999953917E+02 0.  0.
         12    1    1    2    0    0 -0.22771022540E+02 -0.17372507344E+02 -0.14014231977E+02  0.31886081240E+02  0.00000000000E+00 0. -1.
         11    1    3    3    0    0  0.24513496928E+02  0.84306764041E+01  0.23052313165E+01  0.26025025033E+02  0.51100000000E-03 0. -1.
        -11    1    3    3    0    0  0.98184117592E+01 -0.64934856272E+01  0.56909155633E+01  0.13074902878E+02  0.51100000000E-03 0.  1.
         12    1    3    3    0    0 -0.11560886147E+02  0.15435316567E+02  0.60180850970E+01  0.20201990849E+02  0.00000000000E+00 0. -1.
</event>
<event>
 7    1  0.3449603E-013  0.5930191E+02  0.7816164E-02  0.1266605E+00
        -11   -1    0    0    0    0  0.00000000000E+00  0.00000000000E+00  0.45593999997E+02  0.45594000000E+02  0.51100000000E-03 0.  1.
         11   -1    0    0    0    0 -0.00000000000E+00 -0.00000000000E+00 -0.45593999997E+02  0.45594000000E+02  0.51100000000E-03 0. -1.
    9900012    2    1    2    0    0 -0.10758298777E+02 -0.96975985753E+01  0.28406657689E+02  0.59301911940E+02  0.49999941480E+02 0.  0.
         12    1    1    2    0    0  0.10758298777E+02  0.96975985753E+01 -0.28406657689E+02  0.31886088060E+02  0.00000000000E+00 0. -1.
         11    1    3    3    0    0  0.17298075977E+02 -0.50945603729E+01  0.16770516781E+02  0.24625763161E+02  0.51100000000E-03 0.  1.
        -11    1    3    3    0    0 -0.10482953594E+02  0.15040395597E+00 -0.34453921196E+01  0.11035654240E+02  0.51100000000E-03 0. -1.
        -12    1    3    3    0    0 -0.17573421160E+02 -0.47534421583E+01  0.15081533027E+02  0.23640494539E+02  0.00000000000E+00 0.  1.
</event>
<event>
 7    1  0.3449603E-013  0.5930198E+02  0.7816164E-02  0.1266605E+00
        -11   -1    0    0    0    0  0.00000000000E+00  0.00000000000E+00  0.45593999997E+02  0.45594000000E+02  0.51100000000E-03 0.  1.
         11   -1    0    0    0    0 -0.00000000000E+00 -0.00000000000E+00 -0.45593999997E+02  0.45594000000E+02  0.51100000000E-03 0. -1.
    9900012    2    1    2    0    0  0.30780238565E+02  0.71816827995E+01 -0.42093318577E+01  0.59301982239E+02  0.50000069688E+02 0.  0.
         12    1    1    2    0    0 -0.30780238565E+02 -0.71816827995E+01  0.42093318577E+01  0.31886017761E+02  0.00000000000E+00 0. -1.
         11    1    3    3    0    0  0.23667912735E+02  0.20847170346E+02 -0.68559572794E+01  0.32276597639E+02  0.51100000000E-03 0. -1.
        -11    1    3    3    0    0  0.29479345036E+01  0.11655614241E+01 -0.77953556041E+01  0.84152492849E+01  0.51100000000E-03 0.  1.
        -12    1    3    3    0    0  0.41643913262E+01 -0.14831048971E+02  0.10441981026E+02  0.18610135315E+02  0.00000000000E+00 0.  1.
</event>
<event>
 7    1  0.3449603E-013  0.5930199E+02  0.7816164E-02  0.1266605E+00
        -11   -1    0    0    0    0  0.00000000000E+00  0.00000000000E+00  0.45593999997E+02  0.45594000000E+02  0.51100000000E-03 0.  1.
         11   -1    0    0    0    0 -0.00000000000E+00 -0.00000000000E+00 -0.45593999997E+02  0.45594000000E+02  0.51100000000E-03 0. -1.
    9900012    2    1    2    0    0  0.17281815496E+02 -0.58400490606E+01  0.26152440861E+02  0.59301992365E+02  0.50000088156E+02 0.  0.
         12    1    1    2    0    0 -0.17281815496E+02  0.58400490606E+01 -0.26152440861E+02  0.31886007635E+02  0.00000000000E+00 0. -1.
         11    1    3    3    0    0 -0.24352146090E+01  0.11599709036E+02  0.17432294424E+02  0.21080047654E+02  0.51100000000E-03 0. -1.
        -11    1    3    3    0    0 -0.61337103915E+01 -0.51478544533E+01  0.47849957892E+01  0.93283971615E+01  0.51100000000E-03 0.  1.
        -12    1    3    3    0    0  0.25850740497E+02 -0.12291903644E+02  0.39351506475E+01  0.28893547550E+02  0.00000000000E+00 0.  1.
</event>
<event>
 7    1  0.5372964E-013  0.5930195E+02  0.7816164E-02  0.1266605E+00
        -11   -1    0    0    0    0  0.00000000000E+00  0.00000000000E+00  0.45593999997E+02  0.45594000000E+02  0.51100000000E-03 0. -1.
         11   -1    0    0    0    0 -0.00000000000E+00 -0.00000000000E+00 -0.45593999997E+02  0.45594000000E+02  0.51100000000E-03 0.  1.
    9900012    2    1    2    0    0  0.89263061405E+01 -0.22586602820E+02 -0.20661238590E+02  0.59301947433E+02  0.50000006210E+02 0.  0.
         12    1    1    2    0    0 -0.89263061405E+01  0.22586602820E+02  0.20661238590E+02  0.31886052567E+02  0.00000000000E+00 0. -1.
         11    1    3    3    0    0 -0.90472532872E+01 -0.13671027733E+02 -0.16176379909E+01  0.16473206860E+02  0.51100000000E-03 0. -1.
        -11    1    3    3    0    0 -0.29412119173E+01 -0.72012264162E+01 -0.20367232753E+02  0.21802122826E+02  0.51100000000E-03 0.  1.
         12    1    3    3    0    0  0.20914771345E+02 -0.17143486712E+01  0.13236321543E+01  0.21026617747E+02  0.00000000000E+00 0. -1.
</event>
<event>
 7    1  0.3449603E-013  0.5930194E+02  0.7816164E-02  0.1266605E+00
        -11   -1    0    0    0    0  0.00000000000E+00  0.00000000000E+00  0.45593999997E+02  0.45594000000E+02  0.51100000000E-03 0.  1.
         11   -1    0    0    0    0 -0.00000000000E+00 -0.00000000000E+00 -0.45593999997E+02  0.45594000000E+02  0.51100000000E-03 0. -1.
    9900012    2    1    2    0    0  0.28258435500E+02 -0.44978798616E+01  0.14069496010E+02  0.59301940065E+02  0.49999992774E+02 0.  0.
         12    1    1    2    0    0 -0.28258435500E+02  0.44978798616E+01 -0.14069496010E+02  0.31886059935E+02  0.00000000000E+00 0. -1.
         11    1    3    3    0    0  0.12522508417E+01 -0.38356170948E+01 -0.52583816973E+00  0.40689798120E+01  0.51100000000E-03 0. -1.
        -11    1    3    3    0    0  0.33466933778E+02 -0.46664189362E+01  0.25223310308E+02  0.42166651578E+02  0.51100000000E-03 0.  1.
         12    1    3    3    0    0 -0.64607491193E+01  0.40041561694E+01 -0.10627976128E+02  0.13066308675E+02  0.00000000000E+00 0. -1.
</event>
<event>
 7    1  0.3449603E-013  0.5930206E+02  0.7816164E-02  0.1266604E+00
        -11   -1    0    0    0    0  0.00000000000E+00  0.00000000000E+00  0.45593999997E+02  0.45594000000E+02  0.51100000000E-03 0.  1.
         11   -1    0    0    0    0 -0.00000000000E+00 -0.00000000000E+00 -0.45593999997E+02  0.45594000000E+02  0.51100000000E-03 0. -1.
    9900012    2    1    2    0    0  0.19738986550E+02 -0.75434188536E+00  0.25030318212E+02  0.59302055581E+02  0.50000203446E+02 0.  0.
         12    1    1    2    0    0 -0.19738986550E+02  0.75434188536E+00 -0.25030318212E+02  0.31885944419E+02  0.00000000000E+00 0. -1.
         11    1    3    3    0    0 -0.76257373215E+01  0.64831835362E+01 -0.77323619990E+01  0.12648041777E+02  0.51100000000E-03 0. -1.
        -11    1    3    3    0    0 -0.98096029082E+00 -0.40971952167E+01  0.72674500746E+01  0.84003049102E+01  0.51100000000E-03 0.  1.
        -12    1    3    3    0    0  0.28345684162E+02 -0.31403302048E+01  0.25495230136E+02  0.38253708893E+02  0.00000000000E+00 0.  1.
</event>
<event>
 7    1  0.3449603E-013  0.5930195E+02  0.7816164E-02  0.1266605E+00
        -11   -1    0    0    0    0  0.00000000000E+00  0.00000000000E+00  0.45593999997E+02  0.45594000000E+02  0.51100000000E-03 0.  1.
         11   -1    0    0    0    0 -0.00000000000E+00 -0.00000000000E+00 -0.45593999997E+02  0.45594000000E+02  0.51100000000E-03 0. -1.
    9900012    2    1    2    0    0 -0.41066186467E+01 -0.25160776541E+02  0.19151801160E+02  0.59301945360E+02  0.50000002430E+02 0.  0.
         12    1    1    2    0    0  0.41066186467E+01  0.25160776541E+02 -0.19151801160E+02  0.31886054640E+02  0.00000000000E+00 0. -1.
         11    1    3    3    0    0  0.97114789946E+01  0.36947552036E+00 -0.22751150587E+01  0.99812566952E+01  0.51100000000E-03 0. -1.
        -11    1    3    3    0    0  0.97023651963E+01 -0.14798729627E+02  0.13570989343E+02  0.22300449345E+02  0.51100000000E-03 0.  1.
        -12    1    3    3    0    0 -0.23520462838E+02 -0.10731522434E+02  0.78559268747E+01  0.27020239320E+02  0.00000000000E+00 0.  1.
</event>
<event>
 7    1  0.3449603E-013  0.5930192E+02  0.7816164E-02  0.1266605E+00
        -11   -1    0    0    0    0  0.00000000000E+00  0.00000000000E+00  0.45593999997E+02  0.45594000000E+02  0.51100000000E-03 0.  1.
         11   -1    0    0    0    0 -0.00000000000E+00 -0.00000000000E+00 -0.45593999997E+02  0.45594000000E+02  0.51100000000E-03 0. -1.
    9900012    2    1    2    0    0 -0.24902434862E+02 -0.11724043542E+02  0.16097761307E+02  0.59301915604E+02  0.49999948161E+02 0.  0.
         12    1    1    2    0    0  0.24902434862E+02  0.11724043542E+02 -0.16097761307E+02  0.31886084396E+02  0.00000000000E+00 0. -1.
         11    1    3    3    0    0 -0.70945749047E+01 -0.71253300666E+01  0.16116941869E+02  0.18996292720E+02  0.51100000000E-03 0. -1.
        -11    1    3    3    0    0 -0.33179820315E+01 -0.23946875959E+00  0.17121468340E+02  0.17441646379E+02  0.51100000000E-03 0.  1.
         12    1    3    3    0    0 -0.14489877926E+02 -0.43592447163E+01 -0.17140648902E+02  0.22863976504E+02  0.00000000000E+00 0. -1.
</event>
<event>
 7    1  0.3449603E-013  0.5930198E+02  0.7816164E-02  0.1266605E+00
        -11   -1    0    0    0    0  0.00000000000E+00  0.00000000000E+00  0.45593999997E+02  0.45594000000E+02  0.51100000000E-03 0. -1.
         11   -1    0    0    0    0 -0.00000000000E+00 -0.00000000000E+00 -0.45593999997E+02  0.45594000000E+02  0.51100000000E-03 0.  1.
    9900012    2    1    2    0    0 -0.22005551518E+02 -0.21206306626E+02  0.90976279624E+01  0.59301975273E+02  0.50000056984E+02 0.  0.
         12    1    1    2    0    0  0.22005551518E+02  0.21206306626E+02 -0.90976279624E+01  0.31886024727E+02  0.00000000000E+00 0. -1.
         11    1    3    3    0    0 -0.78330876715E+01  0.96309219978E+01  0.14697370036E+02  0.19238622800E+02  0.51100000000E-03 0. -1.
        -11    1    3    3    0    0 -0.16610310460E+02 -0.13797721706E+02  0.10291682427E+01  0.21618018535E+02  0.51100000000E-03 0.  1.
        -12    1    3    3    0    0  0.24378466131E+01 -0.17039506917E+02 -0.66289103166E+01  0.18445333938E+02  0.00000000000E+00 0.  1.
</event>
<event>
 7    1  0.3449603E-013  0.5930193E+02  0.7816164E-02  0.1266605E+00
        -11   -1    0    0    0    0  0.00000000000E+00  0.00000000000E+00  0.45593999997E+02  0.45594000000E+02  0.51100000000E-03 0.  1.
         11   -1    0    0    0    0 -0.00000000000E+00 -0.00000000000E+00 -0.45593999997E+02  0.45594000000E+02  0.51100000000E-03 0. -1.
    9900012    2    1    2    0    0  0.10522271260E+01 -0.30858415219E+02 -0.79606999217E+01  0.59301926002E+02  0.49999967126E+02 0.  0.
         12    1    1    2    0    0 -0.10522271260E+01  0.30858415219E+02  0.79606999217E+01  0.31886073998E+02  0.00000000000E+00 0. -1.
         11    1    3    3    0    0 -0.18505975730E+02 -0.11607488770E+02 -0.47731506150E+01  0.22360409216E+02  0.51100000000E-03 0. -1.
        -11    1    3    3    0    0  0.20515801563E+00  0.40112458734E+01  0.41805783184E+01  0.57973630735E+01  0.51100000000E-03 0.  1.
        -12    1    3    3    0    0  0.19353044841E+02 -0.23262172323E+02 -0.73681276251E+01  0.31144153713E+02  0.00000000000E+00 0.  1.
</event>
<event>
 7    1  0.3449603E-013  0.5930190E+02  0.7816164E-02  0.1266605E+00
        -11   -1    0    0    0    0  0.00000000000E+00  0.00000000000E+00  0.45593999997E+02  0.45594000000E+02  0.51100000000E-03 0.  1.
         11   -1    0    0    0    0 -0.00000000000E+00 -0.00000000000E+00 -0.45593999997E+02  0.45594000000E+02  0.51100000000E-03 0. -1.
    9900012    2    1    2    0    0 -0.41545666675E+01  0.14211031800E+02  0.28240216125E+02  0.59301895569E+02  0.49999911623E+02 0.  0.
         12    1    1    2    0    0  0.41545666675E+01 -0.14211031800E+02 -0.28240216125E+02  0.31886104431E+02  0.00000000000E+00 0. -1.
         11    1    3    3    0    0 -0.12288911819E+02  0.81090893370E+01 -0.45005110668E+01  0.15395755379E+02  0.51100000000E-03 0.  1.
        -11    1    3    3    0    0 -0.81934217695E+01  0.50239659354E+01  0.22842255573E+02  0.24781869057E+02  0.51100000000E-03 0. -1.
         12    1    3    3    0    0  0.16327766921E+02  0.10779765273E+01  0.98984716185E+01  0.19124271134E+02  0.00000000000E+00 0. -1.
</event>
<event>
 7    1  0.3449603E-013  0.5930195E+02  0.7816164E-02  0.1266605E+00
        -11   -1    0    0    0    0  0.00000000000E+00  0.00000000000E+00  0.45593999997E+02  0.45594000000E+02  0.51100000000E-03 0.  1.
         11   -1    0    0    0    0 -0.00000000000E+00 -0.00000000000E+00 -0.45593999997E+02  0.45594000000E+02  0.51100000000E-03 0. -1.
    9900012    2    1    2    0    0 -0.43608778890E+01  0.96077898844E+01  0.30089754332E+02  0.59301949787E+02  0.50000010503E+02 0.  0.
         12    1    1    2    0    0  0.43608778890E+01 -0.96077898844E+01 -0.30089754332E+02  0.31886050213E+02  0.00000000000E+00 0. -1.
         11    1    3    3    0    0  0.11562865127E+02  0.58919651286E+01  0.48966701249E+01  0.13870561690E+02  0.51100000000E-03 0. -1.
        -11    1    3    3    0    0  0.57435483346E+01  0.15806457485E+00  0.22602833478E+02  0.23321694050E+02  0.51100000000E-03 0.  1.
        -12    1    3    3    0    0 -0.21667291351E+02  0.35577601809E+01  0.25902507296E+01  0.22109694046E+02  0.00000000000E+00 0.  1.
</event>
<event>
 7    1  0.5232559E-013  0.5930192E+02  0.7816164E-02  0.1266605E+00
        -11   -1    0    0    0    0  0.00000000000E+00  0.00000000000E+00  0.45593999997E+02  0.45594000000E+02  0.51100000000E-03 0. -1.
         11   -1    0    0    0    0 -0.00000000000E+00 -0.00000000000E+00 -0.45593999997E+02  0.45594000000E+02  0.51100000000E-03 0.  1.
    9900012    2    1    2    0    0  0.81320347686E+00 -0.26014376345E+01 -0.31769379936E+02  0.59301917156E+02  0.49999950992E+02 0.  0.
         12    1    1    2    0    0 -0.81320347686E+00  0.26014376345E+01  0.31769379936E+02  0.31886082844E+02  0.00000000000E+00 0. -1.
         11    1    3    3    0    0 -0.86622702436E+01 -0.10495744872E+02 -0.68017580505E+01  0.15213793052E+02  0.51100000000E-03 0. -1.
        -11    1    3    3    0    0 -0.91590726453E+01  0.94790821897E+01 -0.21271826195E+02  0.25024631882E+02  0.51100000000E-03 0.  1.
         12    1    3    3    0    0  0.18634546366E+02 -0.15847749520E+01 -0.36957956904E+01  0.19063492222E+02  0.00000000000E+00 0. -1.
</event>
<event>
 7    1  0.3449603E-013  0.5930181E+02  0.7816164E-02  0.1266605E+00
        -11   -1    0    0    0    0  0.00000000000E+00  0.00000000000E+00  0.45593999997E+02  0.45594000000E+02  0.51100000000E-03 0.  1.
         11   -1    0    0    0    0 -0.00000000000E+00 -0.00000000000E+00 -0.45593999997E+02  0.45594000000E+02  0.51100000000E-03 0. -1.
    9900012    2    1    2    0    0 -0.19186947378E+02 -0.24180308073E+02 -0.79939393676E+01  0.59301806831E+02  0.49999749785E+02 0.  0.
         12    1    1    2    0    0  0.19186947378E+02  0.24180308073E+02  0.79939393676E+01  0.31886193169E+02  0.00000000000E+00 0. -1.
         11    1    3    3    0    0  0.32107213607E+01  0.34907048249E+01 -0.21079752716E+01  0.51901167461E+01  0.51100000000E-03 0.  1.
        -11    1    3    3    0    0 -0.18307005715E+01  0.59103519638E+01 -0.12719075552E+02  0.14144207580E+02  0.51100000000E-03 0. -1.
        -12    1    3    3    0    0 -0.20566968168E+02 -0.33581364861E+02  0.68331114561E+01  0.39967482504E+02  0.00000000000E+00 0.  1.
</event>
<event>
 7    1  0.3449603E-013  0.5930195E+02  0.7816164E-02  0.1266605E+00
        -11   -1    0    0    0    0  0.00000000000E+00  0.00000000000E+00  0.45593999997E+02  0.45594000000E+02  0.51100000000E-03 0.  1.
         11   -1    0    0    0    0 -0.00000000000E+00 -0.00000000000E+00 -0.45593999997E+02  0.45594000000E+02  0.51100000000E-03 0. -1.
    9900012    2    1    2    0    0  0.18391793599E+02  0.98146875426E+01  0.24127459287E+02  0.59301945760E+02  0.50000003159E+02 0.  0.
         12    1    1    2    0    0 -0.18391793599E+02 -0.98146875426E+01 -0.24127459287E+02  0.31886054240E+02  0.00000000000E+00 0. -1.
         11    1    3    3    0    0  0.99569410773E+00  0.31255332570E+01 -0.69692290265E+01  0.77026306144E+01  0.51100000000E-03 0. -1.
        -11    1    3    3    0    0  0.99027814241E+01  0.11359880892E+02 -0.38501219777E+01  0.15554273153E+02  0.51100000000E-03 0.  1.
        -12    1    3    3    0    0  0.74933180671E+01 -0.46707266067E+01  0.34946810291E+02  0.36045041992E+02  0.00000000000E+00 0.  1.
</event>
<event>
 7    1  0.3449603E-013  0.5930196E+02  0.7816164E-02  0.1266605E+00
        -11   -1    0    0    0    0  0.00000000000E+00  0.00000000000E+00  0.45593999997E+02  0.45594000000E+02  0.51100000000E-03 0. -1.
         11   -1    0    0    0    0 -0.00000000000E+00 -0.00000000000E+00 -0.45593999997E+02  0.45594000000E+02  0.51100000000E-03 0.  1.
    9900012    2    1    2    0    0 -0.24580515686E+02  0.14665918009E+02 -0.14050921113E+02  0.59301964082E+02  0.50000036574E+02 0.  0.
         12    1    1    2    0    0  0.24580515686E+02 -0.14665918009E+02  0.14050921113E+02  0.31886035918E+02  0.00000000000E+00 0. -1.
         11    1    3    3    0    0 -0.13908232277E+01 -0.16096865910E+01 -0.10728882383E+02  0.10937751031E+02  0.51100000000E-03 0. -1.
        -11    1    3    3    0    0  0.96754462489E+01  0.11513972456E+02 -0.12505408498E+01  0.15091377488E+02  0.51100000000E-03 0.  1.
        -12    1    3    3    0    0 -0.32865138707E+02  0.47616321445E+01 -0.20714978805E+01  0.33272835563E+02  0.00000000000E+00 0.  1.
</event>
<event>
 7    1  0.3449603E-013  0.5930201E+02  0.7816164E-02  0.1266605E+00
        -11   -1    0    0    0    0  0.00000000000E+00  0.00000000000E+00  0.45593999997E+02  0.45594000000E+02  0.51100000000E-03 0. -1.
         11   -1    0    0    0    0 -0.00000000000E+00 -0.00000000000E+00 -0.45593999997E+02  0.45594000000E+02  0.51100000000E-03 0.  1.
    9900012    2    1    2    0    0 -0.13632239484E+02  0.21026292939E+02 -0.19717337672E+02  0.59302010083E+02  0.50000120469E+02 0.  0.
         12    1    1    2    0    0  0.13632239484E+02 -0.21026292939E+02  0.19717337672E+02  0.31885989917E+02  0.00000000000E+00 0. -1.
         11    1    3    3    0    0  0.10633435412E+02  0.68958678832E+01 -0.23236451032E+01  0.12884962916E+02  0.51100000000E-03 0. -1.
        -11    1    3    3    0    0 -0.13741841337E+02  0.24444206134E+02 -0.89583443422E+01  0.29438229405E+02  0.51100000000E-03 0.  1.
        -12    1    3    3    0    0 -0.10523833559E+02 -0.10313781078E+02 -0.84353482266E+01  0.16978817762E+02  0.00000000000E+00 0.  1.
</event>
<event>
 7    1  0.3449603E-013  0.5930192E+02  0.7816164E-02  0.1266605E+00
        -11   -1    0    0    0    0  0.00000000000E+00  0.00000000000E+00  0.45593999997E+02  0.45594000000E+02  0.51100000000E-03 0.  1.
         11   -1    0    0    0    0 -0.00000000000E+00 -0.00000000000E+00 -0.45593999997E+02  0.45594000000E+02  0.51100000000E-03 0. -1.
    9900012    2    1    2    0    0  0.25445244525E+02  0.45401021089E+01 -0.18672146123E+02  0.59301920954E+02  0.49999957919E+02 0.  0.
         12    1    1    2    0    0 -0.25445244525E+02 -0.45401021089E+01  0.18672146123E+02  0.31886079046E+02  0.00000000000E+00 0. -1.
         11    1    3    3    0    0 -0.43496396366E+01 -0.36151895497E+01 -0.55881619853E+01  0.79508814029E+01  0.51100000000E-03 0. -1.
        -11    1    3    3    0    0  0.24050241049E+02  0.10947296801E+02  0.93465550718E+01  0.28028833257E+02  0.51100000000E-03 0.  1.
         12    1    3    3    0    0  0.57446431128E+01 -0.27920051427E+01 -0.22430539209E+02  0.23322206294E+02  0.00000000000E+00 0. -1.
</event>
<event>
 7    1  0.3449603E-013  0.5930190E+02  0.7816164E-02  0.1266605E+00
        -11   -1    0    0    0    0  0.00000000000E+00  0.00000000000E+00  0.45593999997E+02  0.45594000000E+02  0.51100000000E-03 0.  1.
         11   -1    0    0    0    0 -0.00000000000E+00 -0.00000000000E+00 -0.45593999997E+02  0.45594000000E+02  0.51100000000E-03 0. -1.
    9900012    2    1    2    0    0 -0.24230935727E+02 -0.10279468914E+02  0.17997720448E+02  0.59301895367E+02  0.49999911255E+02 0.  0.
         12    1    1    2    0    0  0.24230935727E+02  0.10279468914E+02 -0.17997720448E+02  0.31886104633E+02  0.00000000000E+00 0. -1.
         11    1    3    3    0    0  0.72213028949E+01 -0.15635722978E+01  0.82565139152E+01  0.11079801267E+02  0.51100000000E-03 0. -1.
        -11    1    3    3    0    0  0.40231377824E+01  0.35040762360E+01  0.92728286723E+01  0.10698109166E+02  0.51100000000E-03 0.  1.
         12    1    3    3    0    0 -0.35475376404E+02 -0.12219972852E+02  0.46837786032E+00  0.37523984934E+02  0.00000000000E+00 0. -1.
</event>
<event>
 7    1  0.3449603E-013  0.5930190E+02  0.7816164E-02  0.1266605E+00
        -11   -1    0    0    0    0  0.00000000000E+00  0.00000000000E+00  0.45593999997E+02  0.45594000000E+02  0.51100000000E-03 0. -1.
         11   -1    0    0    0    0 -0.00000000000E+00 -0.00000000000E+00 -0.45593999997E+02  0.45594000000E+02  0.51100000000E-03 0.  1.
    9900012    2    1    2    0    0 -0.18172225564E+02 -0.24061408201E+02  0.10370242651E+02  0.59301904610E+02  0.49999928112E+02 0.  0.
         12    1    1    2    0    0  0.18172225564E+02  0.24061408201E+02 -0.10370242651E+02  0.31886095390E+02  0.00000000000E+00 0. -1.
         11    1    3    3    0    0  0.11255163681E+02  0.67138411473E+01  0.49003516678E+01  0.13991705370E+02  0.51100000000E-03 0. -1.
        -11    1    3    3    0    0  0.55011872258E+00  0.39579860015E+00  0.17819156656E+01  0.19064393096E+01  0.51100000000E-03 0.  1.
        -12    1    3    3    0    0 -0.29977507968E+02 -0.31171047948E+02  0.36879753175E+01  0.43403759930E+02  0.00000000000E+00 0.  1.
</event>
<event>
 7    1  0.3449603E-013  0.5930197E+02  0.7816164E-02  0.1266605E+00
        -11   -1    0    0    0    0  0.00000000000E+00  0.00000000000E+00  0.45593999997E+02  0.45594000000E+02  0.51100000000E-03 0. -1.
         11   -1    0    0    0    0 -0.00000000000E+00 -0.00000000000E+00 -0.45593999997E+02  0.45594000000E+02  0.51100000000E-03 0.  1.
    9900012    2    1    2    0    0 -0.64048599484E+01 -0.25718910159E+02 -0.17726659101E+02  0.59301968362E+02  0.50000044380E+02 0.  0.
         12    1    1    2    0    0  0.64048599484E+01  0.25718910159E+02  0.17726659101E+02  0.31886031638E+02  0.00000000000E+00 0. -1.
         11    1    3    3    0    0 -0.80727842804E+01  0.63211220781E+01  0.48748745666E+01  0.11353009851E+02  0.51100000000E-03 0. -1.
        -11    1    3    3    0    0 -0.36081745478E+01 -0.97095526535E+00 -0.15098796020E+02  0.15554270127E+02  0.51100000000E-03 0.  1.
        -12    1    3    3    0    0  0.52760988798E+01 -0.31069076972E+02 -0.75027376476E+01  0.32394688384E+02  0.00000000000E+00 0.  1.
</event>
<event>
 7    1  0.3449603E-013  0.5930198E+02  0.7816164E-02  0.1266605E+00
        -11   -1    0    0    0    0  0.00000000000E+00  0.00000000000E+00  0.45593999997E+02  0.45594000000E+02  0.51100000000E-03 0. -1.
         11   -1    0    0    0    0 -0.00000000000E+00 -0.00000000000E+00 -0.45593999997E+02  0.45594000000E+02  0.51100000000E-03 0.  1.
    9900012    2    1    2    0    0 -0.16290992688E+02  0.17385077799E+02 -0.21191529488E+02  0.59301979633E+02  0.50000064935E+02 0.  0.
         12    1    1    2    0    0  0.16290992688E+02 -0.17385077799E+02  0.21191529488E+02  0.31886020367E+02  0.00000000000E+00 0. -1.
         11    1    3    3    0    0 -0.85485917248E+01  0.83371832038E+01  0.13143891786E+02  0.17758066781E+02  0.51100000000E-03 0. -1.
        -11    1    3    3    0    0 -0.23156961332E+01  0.11821452243E+02 -0.78775906666E+01  0.14393248997E+02  0.51100000000E-03 0.  1.
        -12    1    3    3    0    0 -0.54267048296E+01 -0.27735576475E+01 -0.26457830607E+02  0.27150663855E+02  0.00000000000E+00 0.  1.
</event>
<event>
 7    1  0.3449603E-013  0.5930193E+02  0.7816164E-02  0.1266605E+00
        -11   -1    0    0    0    0  0.00000000000E+00  0.00000000000E+00  0.45593999997E+02  0.45594000000E+02  0.51100000000E-03 0.  1.
         11   -1    0    0    0    0 -0.00000000000E+00 -0.00000000000E+00 -0.45593999997E+02  0.45594000000E+02  0.51100000000E-03 0. -1.
    9900012    2    1    2    0    0 -0.74283219556E+01  0.26899059167E+02 -0.15426671869E+02  0.59301928494E+02  0.49999971670E+02 0.  0.
         12    1    1    2    0    0  0.74283219556E+01 -0.26899059167E+02  0.15426671869E+02  0.31886071506E+02  0.00000000000E+00 0. -1.
         11    1    3    3    0    0 -0.10881105416E+02  0.36020161971E+01 -0.88729183517E+01  0.14494883791E+02  0.51100000000E-03 0. -1.
        -11    1    3    3    0    0  0.92968237562E+01  0.32248572609E+02 -0.38644225047E+01  0.33783651798E+02  0.51100000000E-03 0.  1.
         12    1    3    3    0    0 -0.58440402955E+01 -0.89515296386E+01 -0.26893310123E+01  0.11023392905E+02  0.00000000000E+00 0. -1.
</event>
<event>
 7    1  0.3449603E-013  0.5930168E+02  0.7816164E-02  0.1266606E+00
        -11   -1    0    0    0    0  0.00000000000E+00  0.00000000000E+00  0.45593999997E+02  0.45594000000E+02  0.51100000000E-03 0. -1.
         11   -1    0    0    0    0 -0.00000000000E+00 -0.00000000000E+00 -0.45593999997E+02  0.45594000000E+02  0.51100000000E-03 0.  1.
    9900012    2    1    2    0    0  0.12516074241E+02  0.28909615683E+02 -0.49314463550E+01  0.59301683868E+02  0.49999525529E+02 0.  0.
         12    1    1    2    0    0 -0.12516074241E+02 -0.28909615683E+02  0.49314463550E+01  0.31886316132E+02  0.00000000000E+00 0. -1.
         11    1    3    3    0    0  0.24103535727E+01  0.17659759722E+02  0.66656503036E+01  0.19029130617E+02  0.51100000000E-03 0. -1.
        -11    1    3    3    0    0 -0.46081523331E+01 -0.50300356648E+01  0.82358649905E+01  0.10694194646E+02  0.51100000000E-03 0.  1.
        -12    1    3    3    0    0  0.14713873001E+02  0.16279891625E+02 -0.19832961649E+02  0.29578358606E+02  0.00000000000E+00 0.  1.
</event>
<event>
 7    1  0.3449603E-013  0.5930192E+02  0.7816164E-02  0.1266605E+00
        -11   -1    0    0    0    0  0.00000000000E+00  0.00000000000E+00  0.45593999997E+02  0.45594000000E+02  0.51100000000E-03 0.  1.
         11   -1    0    0    0    0 -0.00000000000E+00 -0.00000000000E+00 -0.45593999997E+02  0.45594000000E+02  0.51100000000E-03 0. -1.
    9900012    2    1    2    0    0 -0.18407246592E+02 -0.14366238342E+02  0.21714207835E+02  0.59301915996E+02  0.49999948877E+02 0.  0.
         12    1    1    2    0    0  0.18407246592E+02  0.14366238342E+02 -0.21714207835E+02  0.31886084004E+02  0.00000000000E+00 0. -1.
         11    1    3    3    0    0  0.13827816454E+01 -0.30040804835E+01 -0.88741514113E+01  0.94703298867E+01  0.51100000000E-03 0. -1.
        -11    1    3    3    0    0  0.41856881736E+00  0.99472385580E+01  0.83436558915E+01  0.12989971081E+02  0.51100000000E-03 0.  1.
         12    1    3    3    0    0 -0.20208597055E+02 -0.21309396417E+02  0.22244703355E+02  0.36841615028E+02  0.00000000000E+00 0. -1.
</event>
<event>
 7    1  0.3449603E-013  0.5930193E+02  0.7816164E-02  0.1266605E+00
        -11   -1    0    0    0    0  0.00000000000E+00  0.00000000000E+00  0.45593999997E+02  0.45594000000E+02  0.51100000000E-03 0.  1.
         11   -1    0    0    0    0 -0.00000000000E+00 -0.00000000000E+00 -0.45593999997E+02  0.45594000000E+02  0.51100000000E-03 0. -1.
    9900012    2    1    2    0    0 -0.13751138360E+02  0.70148383971E+01  0.27900169560E+02  0.59301933679E+02  0.49999981126E+02 0.  0.
         12    1    1    2    0    0  0.13751138360E+02 -0.70148383971E+01 -0.27900169560E+02  0.31886066321E+02  0.00000000000E+00 0. -1.
         11    1    3    3    0    0 -0.11401849066E+02  0.11938605883E+02  0.28513518926E+01  0.16752990193E+02  0.51100000000E-03 0. -1.
        -11    1    3    3    0    0 -0.15155262113E+02 -0.97367853600E+01  0.22175458688E+02  0.28569877968E+02  0.51100000000E-03 0.  1.
         12    1    3    3    0    0  0.12805972819E+02  0.48130178746E+01  0.28733589800E+01  0.13979065517E+02  0.00000000000E+00 0. -1.
</event>
<event>
 7    1  0.3449603E-013  0.5930186E+02  0.7816164E-02  0.1266605E+00
        -11   -1    0    0    0    0  0.00000000000E+00  0.00000000000E+00  0.45593999997E+02  0.45594000000E+02  0.51100000000E-03 0. -1.
         11   -1    0    0    0    0 -0.00000000000E+00 -0.00000000000E+00 -0.45593999997E+02  0.45594000000E+02  0.51100000000E-03 0.  1.
    9900012    2    1    2    0    0  0.14965973368E+02 -0.21633376268E+02 -0.18020621329E+02  0.59301856917E+02  0.49999841131E+02 0.  0.
         12    1    1    2    0    0 -0.14965973368E+02  0.21633376268E+02  0.18020621329E+02  0.31886143083E+02  0.00000000000E+00 0. -1.
         11    1    3    3    0    0  0.41417813141E+01 -0.76223087248E+00 -0.10246026521E+02  0.11077743818E+02  0.51100000000E-03 0. -1.
        -11    1    3    3    0    0 -0.13784437933E+02 -0.16483383152E+01 -0.97039539648E+01  0.16937959474E+02  0.51100000000E-03 0.  1.
         12    1    3    3    0    0  0.24608629987E+02 -0.19222807080E+02  0.19293591571E+01  0.31286153625E+02  0.00000000000E+00 0. -1.
</event>
<event>
 7    1  0.3449603E-013  0.5930156E+02  0.7816164E-02  0.1266606E+00
        -11   -1    0    0    0    0  0.00000000000E+00  0.00000000000E+00  0.45593999997E+02  0.45594000000E+02  0.51100000000E-03 0. -1.
         11   -1    0    0    0    0 -0.00000000000E+00 -0.00000000000E+00 -0.45593999997E+02  0.45594000000E+02  0.51100000000E-03 0.  1.
    9900012    2    1    2    0    0 -0.11579714578E+02  0.14713899650E+02 -0.25810008570E+02  0.59301558132E+02  0.49999296214E+02 0.  0.
         12    1    1    2    0    0  0.11579714578E+02 -0.14713899650E+02  0.25810008570E+02  0.31886441868E+02  0.00000000000E+00 0. -1.
         11    1    3    3    0    0 -0.32624176173E+01  0.68001858132E+01  0.13449812274E+02  0.15420225234E+02  0.51100000000E-03 0. -1.
        -11    1    3    3    0    0 -0.28152566586E+01  0.33339434529E+01 -0.41599776309E+00  0.43833666743E+01  0.51100000000E-03 0.  1.
        -12    1    3    3    0    0 -0.55020403017E+01  0.45797703837E+01 -0.38843823081E+02  0.39497966224E+02  0.00000000000E+00 0.  1.
</event>
<event>
 7    1  0.3449603E-013  0.5930193E+02  0.7816164E-02  0.1266605E+00
        -11   -1    0    0    0    0  0.00000000000E+00  0.00000000000E+00  0.45593999997E+02  0.45594000000E+02  0.51100000000E-03 0.  1.
         11   -1    0    0    0    0 -0.00000000000E+00 -0.00000000000E+00 -0.45593999997E+02  0.45594000000E+02  0.51100000000E-03 0. -1.
    9900012    2    1    2    0    0  0.28351170127E+02 -0.13929349012E+02  0.43480755165E+01  0.59301931378E+02  0.49999976929E+02 0.  0.
         12    1    1    2    0    0 -0.28351170127E+02  0.13929349012E+02 -0.43480755165E+01  0.31886068622E+02  0.00000000000E+00 0. -1.
         11    1    3    3    0    0  0.66947147203E+01 -0.23394944090E+01  0.87105160803E+01  0.11232343029E+02  0.51100000000E-03 0.  1.
        -11    1    3    3    0    0  0.25898034454E+02  0.14172531749E+01  0.10398356336E+02  0.27943561153E+02  0.51100000000E-03 0. -1.
         12    1    3    3    0    0 -0.42415790470E+01 -0.13007107778E+02 -0.14760796900E+02  0.20126027196E+02  0.00000000000E+00 0. -1.
</event>
<event>
 7    1  0.3449603E-013  0.5930213E+02  0.7816164E-02  0.1266604E+00
        -11   -1    0    0    0    0  0.00000000000E+00  0.00000000000E+00  0.45593999997E+02  0.45594000000E+02  0.51100000000E-03 0.  1.
         11   -1    0    0    0    0 -0.00000000000E+00 -0.00000000000E+00 -0.45593999997E+02  0.45594000000E+02  0.51100000000E-03 0. -1.
    9900012    2    1    2    0    0  0.27342158530E+02  0.11934488210E+02  0.11255343084E+02  0.59302134952E+02  0.50000348199E+02 0.  0.
         12    1    1    2    0    0 -0.27342158530E+02 -0.11934488210E+02 -0.11255343084E+02  0.31885865048E+02  0.00000000000E+00 0. -1.
         11    1    3    3    0    0  0.21731543666E+02 -0.20331433267E+01 -0.56457313379E+00  0.21833744639E+02  0.51100000000E-03 0. -1.
        -11    1    3    3    0    0  0.16999188830E+02 -0.65348770069E+00  0.61075482676E+01  0.18074889022E+02  0.51100000000E-03 0.  1.
        -12    1    3    3    0    0 -0.11388573966E+02  0.14621119237E+02  0.57123679502E+01  0.19393501291E+02  0.00000000000E+00 0.  1.
</event>
<event>
 7    1  0.3449603E-013  0.5930195E+02  0.7816164E-02  0.1266605E+00
        -11   -1    0    0    0    0  0.00000000000E+00  0.00000000000E+00  0.45593999997E+02  0.45594000000E+02  0.51100000000E-03 0.  1.
         11   -1    0    0    0    0 -0.00000000000E+00 -0.00000000000E+00 -0.45593999997E+02  0.45594000000E+02  0.51100000000E-03 0. -1.
    9900012    2    1    2    0    0  0.29862339840E+01 -0.93033519604E+01  0.30352099934E+02  0.59301954125E+02  0.50000018416E+02 0.  0.
         12    1    1    2    0    0 -0.29862339840E+01  0.93033519604E+01 -0.30352099934E+02  0.31886045875E+02  0.00000000000E+00 0. -1.
         11    1    3    3    0    0 -0.11298810781E+02  0.57264439787E+01  0.20384113054E+02  0.23999319802E+02  0.51100000000E-03 0. -1.
        -11    1    3    3    0    0  0.10870257654E+02  0.52498535981E+01  0.83415659834E+01  0.14673281418E+02  0.51100000000E-03 0.  1.
         12    1    3    3    0    0  0.34147871104E+01 -0.20279649537E+02  0.16264208971E+01  0.20629352905E+02  0.00000000000E+00 0. -1.
</event>
<event>
 7    1  0.4259681E-013  0.5930196E+02  0.7816164E-02  0.1266605E+00
        -11   -1    0    0    0    0  0.00000000000E+00  0.00000000000E+00  0.45593999997E+02  0.45594000000E+02  0.51100000000E-03 0.  1.
         11   -1    0    0    0    0 -0.00000000000E+00 -0.00000000000E+00 -0.45593999997E+02  0.45594000000E+02  0.51100000000E-03 0. -1.
    9900012    2    1    2    0    0 -0.24432825648E+02  0.36149832569E+01 -0.20166511932E+02  0.59301964238E+02  0.50000036859E+02 0.  0.
         12    1    1    2    0    0  0.24432825648E+02 -0.36149832569E+01  0.20166511932E+02  0.31886035762E+02  0.00000000000E+00 0. -1.
         11    1    3    3    0    0 -0.16170242160E+02  0.17250213347E+02 -0.10141778955E+02  0.25727461450E+02  0.51100000000E-03 0. -1.
        -11    1    3    3    0    0 -0.74206668107E+01  0.52527189396E+01 -0.11442570696E+02  0.14614710964E+02  0.51100000000E-03 0.  1.
         12    1    3    3    0    0 -0.84191667719E+00 -0.18887949029E+02  0.14178377186E+01  0.18959791824E+02  0.00000000000E+00 0. -1.
</event>
<event>
 7    1  0.3449603E-013  0.5930192E+02  0.7816164E-02  0.1266605E+00
        -11   -1    0    0    0    0  0.00000000000E+00  0.00000000000E+00  0.45593999997E+02  0.45594000000E+02  0.51100000000E-03 0. -1.
         11   -1    0    0    0    0 -0.00000000000E+00 -0.00000000000E+00 -0.45593999997E+02  0.45594000000E+02  0.51100000000E-03 0.  1.
    9900012    2    1    2    0    0 -0.15618883437E+02 -0.22789899826E+02  0.15918331417E+02  0.59301916374E+02  0.49999949566E+02 0.  0.
         12    1    1    2    0    0  0.15618883437E+02  0.22789899826E+02 -0.15918331417E+02  0.31886083626E+02  0.00000000000E+00 0. -1.
         11    1    3    3    0    0 -0.21512706681E+02 -0.11565819468E+02  0.21467845077E+02  0.32518196463E+02  0.51100000000E-03 0. -1.
        -11    1    3    3    0    0  0.75788409240E+01 -0.71438282102E+00  0.69906899484E+01  0.10335323835E+02  0.51100000000E-03 0.  1.
        -12    1    3    3    0    0 -0.16850176804E+01 -0.10509697537E+02 -0.12540203609E+02  0.16448396075E+02  0.00000000000E+00 0.  1.
</event>
<event>
 7    1  0.3449603E-013  0.5930195E+02  0.7816164E-02  0.1266605E+00
        -11   -1    0    0    0    0  0.00000000000E+00  0.00000000000E+00  0.45593999997E+02  0.45594000000E+02  0.51100000000E-03 0. -1.
         11   -1    0    0    0    0 -0.00000000000E+00 -0.00000000000E+00 -0.45593999997E+02  0.45594000000E+02  0.51100000000E-03 0.  1.
    9900012    2    1    2    0    0  0.15365225946E+02  0.18952154885E+02 -0.20529144432E+02  0.59301951102E+02  0.50000012903E+02 0.  0.
         12    1    1    2    0    0 -0.15365225946E+02 -0.18952154885E+02  0.20529144432E+02  0.31886048898E+02  0.00000000000E+00 0. -1.
         11    1    3    3    0    0  0.11871806357E+02  0.60703634846E+01 -0.59814316320E+01  0.14613918832E+02  0.51100000000E-03 0. -1.
        -11    1    3    3    0    0  0.11760229794E+02 -0.39985918598E+01 -0.21348820849E+02  0.24699471524E+02  0.51100000000E-03 0.  1.
         12    1    3    3    0    0 -0.82668102046E+01  0.16880383261E+02  0.68011080490E+01  0.19988560746E+02  0.00000000000E+00 0. -1.
</event>
<event>
 7    1  0.3449603E-013  0.5930193E+02  0.7816164E-02  0.1266605E+00
        -11   -1    0    0    0    0  0.00000000000E+00  0.00000000000E+00  0.45593999997E+02  0.45594000000E+02  0.51100000000E-03 0.  1.
         11   -1    0    0    0    0 -0.00000000000E+00 -0.00000000000E+00 -0.45593999997E+02  0.45594000000E+02  0.51100000000E-03 0. -1.
    9900012    2    1    2    0    0  0.36684859381E+01  0.30946694999E+02  0.67502335707E+01  0.59301931354E+02  0.49999976885E+02 0.  0.
         12    1    1    2    0    0 -0.36684859381E+01 -0.30946694999E+02 -0.67502335707E+01  0.31886068646E+02  0.00000000000E+00 0. -1.
         11    1    3    3    0    0 -0.21331851020E+01  0.16057468012E+02  0.11216778005E+02  0.19703016691E+02  0.51100000000E-03 0. -1.
        -11    1    3    3    0    0  0.40446187887E+01  0.13565750773E+02  0.14640893639E+02  0.20365271960E+02  0.51100000000E-03 0.  1.
         12    1    3    3    0    0  0.17570522515E+01  0.13234762136E+01 -0.19107438073E+02  0.19233642703E+02  0.00000000000E+00 0. -1.
</event>
<event>
 7    1  0.3449603E-013  0.5930202E+02  0.7816164E-02  0.1266604E+00
        -11   -1    0    0    0    0  0.00000000000E+00  0.00000000000E+00  0.45593999997E+02  0.45594000000E+02  0.51100000000E-03 0. -1.
         11   -1    0    0    0    0 -0.00000000000E+00 -0.00000000000E+00 -0.45593999997E+02  0.45594000000E+02  0.51100000000E-03 0.  1.
    9900012    2    1    2    0    0  0.10175710728E+02 -0.28847739215E+02 -0.89987989182E+01  0.59302023011E+02  0.50000144046E+02 0.  0.
         12    1    1    2    0    0 -0.10175710728E+02  0.28847739215E+02  0.89987989182E+01  0.31885976989E+02  0.00000000000E+00 0. -1.
         11    1    3    3    0    0  0.45108909285E+01 -0.53438752623E+01 -0.34456976204E+01  0.77960228412E+01  0.51100000000E-03 0. -1.
        -11    1    3    3    0    0  0.13480449074E+02 -0.25402605507E+02 -0.19960077133E+02  0.35005993104E+02  0.51100000000E-03 0.  1.
         12    1    3    3    0    0 -0.78156292746E+01  0.18987415552E+01  0.14406975835E+02  0.16500007065E+02  0.00000000000E+00 0. -1.
</event>
<event>
 7    1  0.3449603E-013  0.5930198E+02  0.7816164E-02  0.1266605E+00
        -11   -1    0    0    0    0  0.00000000000E+00  0.00000000000E+00  0.45593999997E+02  0.45594000000E+02  0.51100000000E-03 0.  1.
         11   -1    0    0    0    0 -0.00000000000E+00 -0.00000000000E+00 -0.45593999997E+02  0.45594000000E+02  0.51100000000E-03 0. -1.
    9900012    2    1    2    0    0 -0.30632189100E+00 -0.28448223708E+02  0.14398709214E+02  0.59301982809E+02  0.50000070729E+02 0.  0.
         12    1    1    2    0    0  0.30632189100E+00  0.28448223708E+02 -0.14398709214E+02  0.31886017191E+02  0.00000000000E+00 0. -1.
         11    1    3    3    0    0 -0.19121095279E+02  0.15381240379E+01  0.81020452638E+01  0.20823670376E+02  0.51100000000E-03 0. -1.
        -11    1    3    3    0    0  0.45163994921E+01 -0.22937633577E+01 -0.30848282765E+01  0.59308836163E+01  0.51100000000E-03 0.  1.
        -12    1    3    3    0    0  0.14298373896E+02 -0.27692584388E+02  0.93814922264E+01  0.32547428817E+02  0.00000000000E+00 0.  1.
</event>
<event>
 7    1  0.3449603E-013  0.5930194E+02  0.7816164E-02  0.1266605E+00
        -11   -1    0    0    0    0  0.00000000000E+00  0.00000000000E+00  0.45593999997E+02  0.45594000000E+02  0.51100000000E-03 0. -1.
         11   -1    0    0    0    0 -0.00000000000E+00 -0.00000000000E+00 -0.45593999997E+02  0.45594000000E+02  0.51100000000E-03 0.  1.
    9900012    2    1    2    0    0 -0.20903343008E+02 -0.17747197883E+02 -0.16272914051E+02  0.59301944846E+02  0.50000001492E+02 0.  0.
         12    1    1    2    0    0  0.20903343008E+02  0.17747197883E+02  0.16272914051E+02  0.31886055154E+02  0.00000000000E+00 0. -1.
         11    1    3    3    0    0  0.24404306248E+01 -0.11322120376E+02  0.56946564252E+01  0.12906402423E+02  0.51100000000E-03 0.  1.
        -11    1    3    3    0    0 -0.45624779595E+01  0.59863784396E+01  0.66092609828E+01  0.10016749121E+02  0.51100000000E-03 0. -1.
        -12    1    3    3    0    0 -0.18781295673E+02 -0.12411455947E+02 -0.28576831459E+02  0.36378793302E+02  0.00000000000E+00 0.  1.
</event>
<event>
 7    1  0.3449603E-013  0.5930193E+02  0.7816164E-02  0.1266605E+00
        -11   -1    0    0    0    0  0.00000000000E+00  0.00000000000E+00  0.45593999997E+02  0.45594000000E+02  0.51100000000E-03 0. -1.
         11   -1    0    0    0    0 -0.00000000000E+00 -0.00000000000E+00 -0.45593999997E+02  0.45594000000E+02  0.51100000000E-03 0.  1.
    9900012    2    1    2    0    0 -0.79048647293E+01  0.18806070356E+02 -0.24506452057E+02  0.59301931553E+02  0.49999977249E+02 0.  0.
         12    1    1    2    0    0  0.79048647293E+01 -0.18806070356E+02  0.24506452057E+02  0.31886068447E+02  0.00000000000E+00 0. -1.
         11    1    3    3    0    0 -0.11671979421E+02 -0.18371848690E+01 -0.10937014725E+02  0.16100578971E+02  0.51100000000E-03 0. -1.
        -11    1    3    3    0    0  0.28199376969E+01 -0.98935395311E+01 -0.17095385520E+01  0.10428647822E+02  0.51100000000E-03 0.  1.
         12    1    3    3    0    0  0.94717699468E+00  0.30536794756E+02 -0.11859898779E+02  0.32772704760E+02  0.00000000000E+00 0. -1.
</event>
<event>
 7    1  0.3449603E-013  0.5930193E+02  0.7816164E-02  0.1266605E+00
        -11   -1    0    0    0    0  0.00000000000E+00  0.00000000000E+00  0.45593999997E+02  0.45594000000E+02  0.51100000000E-03 0.  1.
         11   -1    0    0    0    0 -0.00000000000E+00 -0.00000000000E+00 -0.45593999997E+02  0.45594000000E+02  0.51100000000E-03 0. -1.
    9900012    2    1    2    0    0  0.12876980765E+02 -0.12598713720E+02  0.26309258212E+02  0.59301932687E+02  0.49999979318E+02 0.  0.
         12    1    1    2    0    0 -0.12876980765E+02  0.12598713720E+02 -0.26309258212E+02  0.31886067313E+02  0.00000000000E+00 0. -1.
         11    1    3    3    0    0  0.79574836019E-01  0.79567591486E+01 -0.27827815205E+00  0.79620215583E+01  0.51100000000E-03 0. -1.
        -11    1    3    3    0    0  0.27467587614E+01 -0.80588891579E+01 -0.89491722821E+01  0.12352249307E+02  0.51100000000E-03 0.  1.
        -12    1    3    3    0    0  0.10050647167E+02 -0.12496583711E+02  0.35536708646E+02  0.38987661822E+02  0.00000000000E+00 0.  1.
</event>
<event>
 7    1  0.3449603E-013  0.5930194E+02  0.7816164E-02  0.1266605E+00
        -11   -1    0    0    0    0  0.00000000000E+00  0.00000000000E+00  0.45593999997E+02  0.45594000000E+02  0.51100000000E-03 0.  1.
         11   -1    0    0    0    0 -0.00000000000E+00 -0.00000000000E+00 -0.45593999997E+02  0.45594000000E+02  0.51100000000E-03 0. -1.
    9900012    2    1    2    0    0  0.28796285613E+02  0.11854509435E+02 -0.68531361133E+01  0.59301938254E+02  0.49999989471E+02 0.  0.
         12    1    1    2    0    0 -0.28796285613E+02 -0.11854509435E+02  0.68531361133E+01  0.31886061746E+02  0.00000000000E+00 0. -1.
         11    1    3    3    0    0 -0.42302344891E+01 -0.36022906637E+01 -0.33790715854E+01  0.65030382821E+01  0.51100000000E-03 0. -1.
        -11    1    3    3    0    0 -0.46862658924E+01  0.11872743390E+02  0.54504719201E+01  0.13879148678E+02  0.51100000000E-03 0.  1.
         12    1    3    3    0    0  0.37712785995E+02  0.35840567088E+01 -0.89245364480E+01  0.38919751294E+02  0.00000000000E+00 0. -1.
</event>
<event>
 7    1  0.3449603E-013  0.5930193E+02  0.7816164E-02  0.1266605E+00
        -11   -1    0    0    0    0  0.00000000000E+00  0.00000000000E+00  0.45593999997E+02  0.45594000000E+02  0.51100000000E-03 0.  1.
         11   -1    0    0    0    0 -0.00000000000E+00 -0.00000000000E+00 -0.45593999997E+02  0.45594000000E+02  0.51100000000E-03 0. -1.
    9900012    2    1    2    0    0  0.43785440292E+00  0.45354878542E+00  0.31879833892E+02  0.59301933577E+02  0.49999980940E+02 0.  0.
         12    1    1    2    0    0 -0.43785440292E+00 -0.45354878542E+00 -0.31879833892E+02  0.31886066423E+02  0.00000000000E+00 0. -1.
         11    1    3    3    0    0  0.13822316937E+02  0.64134415132E+01  0.12914607036E+02  0.19974377405E+02  0.51100000000E-03 0.  1.
        -11    1    3    3    0    0 -0.10745063541E+02  0.18647886802E+01 -0.64048441613E+01  0.12647365588E+02  0.51100000000E-03 0. -1.
         12    1    3    3    0    0 -0.26393989930E+01 -0.78246814081E+01  0.25370071017E+02  0.26680190584E+02  0.00000000000E+00 0. -1.
</event>
<event>
 7    1  0.3449603E-013  0.5930196E+02  0.7816164E-02  0.1266605E+00
        -11   -1    0    0    0    0  0.00000000000E+00  0.00000000000E+00  0.45593999997E+02  0.45594000000E+02  0.51100000000E-03 0. -1.
         11   -1    0    0    0    0 -0.00000000000E+00 -0.00000000000E+00 -0.45593999997E+02  0.45594000000E+02  0.51100000000E-03 0.  1.
    9900012    2    1    2    0    0 -0.15509666597E+02 -0.11351189239E+02 -0.25442494893E+02  0.59301956008E+02  0.50000021848E+02 0.  0.
         12    1    1    2    0    0  0.15509666597E+02  0.11351189239E+02  0.25442494893E+02  0.31886043992E+02  0.00000000000E+00 0. -1.
         11    1    3    3    0    0  0.11200347707E+02 -0.15352202830E+02  0.39310552231E+00  0.19007694565E+02  0.51100000000E-03 0. -1.
        -11    1    3    3    0    0 -0.19773740255E+01 -0.41775098691E+01 -0.21951196852E+01  0.51166539298E+01  0.51100000000E-03 0.  1.
         12    1    3    3    0    0 -0.24732640278E+02  0.81785234604E+01 -0.23640480731E+02  0.35177607512E+02  0.00000000000E+00 0. -1.
</event>
<event>
 7    1  0.3449603E-013  0.5930193E+02  0.7816164E-02  0.1266605E+00
        -11   -1    0    0    0    0  0.00000000000E+00  0.00000000000E+00  0.45593999997E+02  0.45594000000E+02  0.51100000000E-03 0. -1.
         11   -1    0    0    0    0 -0.00000000000E+00 -0.00000000000E+00 -0.45593999997E+02  0.45594000000E+02  0.51100000000E-03 0.  1.
    9900012    2    1    2    0    0  0.97322116648E+01  0.30000612814E+02  0.46871108453E+01  0.59301925905E+02  0.49999966949E+02 0.  0.
         12    1    1    2    0    0 -0.97322116648E+01 -0.30000612814E+02 -0.46871108453E+01  0.31886074095E+02  0.00000000000E+00 0. -1.
         11    1    3    3    0    0 -0.22595446467E+01  0.32182327182E+02  0.10218956612E+02  0.33841317932E+02  0.51100000000E-03 0. -1.
        -11    1    3    3    0    0 -0.15518411569E+01  0.78458009430E+01 -0.19617376341E+01  0.82348781545E+01  0.51100000000E-03 0.  1.
         12    1    3    3    0    0  0.13543597468E+02 -0.10027515311E+02 -0.35701081322E+01  0.17225729818E+02  0.00000000000E+00 0. -1.
</event>
<event>
 7    1  0.3449603E-013  0.5930194E+02  0.7816164E-02  0.1266605E+00
        -11   -1    0    0    0    0  0.00000000000E+00  0.00000000000E+00  0.45593999997E+02  0.45594000000E+02  0.51100000000E-03 0. -1.
         11   -1    0    0    0    0 -0.00000000000E+00 -0.00000000000E+00 -0.45593999997E+02  0.45594000000E+02  0.51100000000E-03 0.  1.
    9900012    2    1    2    0    0  0.25147845366E+02 -0.26263301252E+01 -0.19427013751E+02  0.59301943490E+02  0.49999999019E+02 0.  0.
         12    1    1    2    0    0 -0.25147845366E+02  0.26263301252E+01  0.19427013751E+02  0.31886056510E+02  0.00000000000E+00 0. -1.
         11    1    3    3    0    0  0.10894927586E+02  0.16808638768E+02 -0.37723106089E+00  0.20034272831E+02  0.51100000000E-03 0. -1.
        -11    1    3    3    0    0  0.30612375900E+01  0.20575982461E+01  0.42664705919E+01  0.56398278074E+01  0.51100000000E-03 0.  1.
        -12    1    3    3    0    0  0.11191680190E+02 -0.21492567139E+02 -0.23316253282E+02  0.33627842851E+02  0.00000000000E+00 0.  1.
</event>
<event>
 7    1  0.3449603E-013  0.5930196E+02  0.7816164E-02  0.1266605E+00
        -11   -1    0    0    0    0  0.00000000000E+00  0.00000000000E+00  0.45593999997E+02  0.45594000000E+02  0.51100000000E-03 0.  1.
         11   -1    0    0    0    0 -0.00000000000E+00 -0.00000000000E+00 -0.45593999997E+02  0.45594000000E+02  0.51100000000E-03 0. -1.
    9900012    2    1    2    0    0  0.74169258543E+01 -0.20058678027E+02  0.23650751680E+02  0.59301962172E+02  0.50000033091E+02 0.  0.
         12    1    1    2    0    0 -0.74169258543E+01  0.20058678027E+02 -0.23650751680E+02  0.31886037828E+02  0.00000000000E+00 0. -1.
         11    1    3    3    0    0 -0.23833146278E+01 -0.63043076274E+01  0.17470385811E+02  0.18725353506E+02  0.51100000000E-03 0. -1.
        -11    1    3    3    0    0  0.13016898594E+01 -0.22480908216E+02  0.13606749045E+02  0.26310249914E+02  0.51100000000E-03 0.  1.
         12    1    3    3    0    0  0.84985506226E+01  0.87265378164E+01 -0.74263831765E+01  0.14266358752E+02  0.00000000000E+00 0. -1.
</event>
<event>
 7    1  0.3449603E-013  0.5930192E+02  0.7816164E-02  0.1266605E+00
        -11   -1    0    0    0    0  0.00000000000E+00  0.00000000000E+00  0.45593999997E+02  0.45594000000E+02  0.51100000000E-03 0. -1.
         11   -1    0    0    0    0 -0.00000000000E+00 -0.00000000000E+00 -0.45593999997E+02  0.45594000000E+02  0.51100000000E-03 0.  1.
    9900012    2    1    2    0    0 -0.51638369623E+01  0.26349617180E+02 -0.17197517754E+02  0.59301919109E+02  0.49999954554E+02 0.  0.
         12    1    1    2    0    0  0.51638369623E+01 -0.26349617180E+02  0.17197517754E+02  0.31886080891E+02  0.00000000000E+00 0. -1.
         11    1    3    3    0    0 -0.20154175385E+01  0.11116792518E+02 -0.30979928071E+02  0.32975762725E+02  0.51100000000E-03 0. -1.
        -11    1    3    3    0    0  0.11240563500E+01  0.78606839790E+01 -0.21777973198E+01  0.82338725228E+01  0.51100000000E-03 0.  1.
         12    1    3    3    0    0 -0.42724757738E+01  0.73721406833E+01  0.15960207637E+02  0.18092283861E+02  0.00000000000E+00 0. -1.
</event>
<event>
 7    1  0.3449603E-013  0.5930207E+02  0.7816164E-02  0.1266604E+00
        -11   -1    0    0    0    0  0.00000000000E+00  0.00000000000E+00  0.45593999997E+02  0.45594000000E+02  0.51100000000E-03 0. -1.
         11   -1    0    0    0    0 -0.00000000000E+00 -0.00000000000E+00 -0.45593999997E+02  0.45594000000E+02  0.51100000000E-03 0.  1.
    9900012    2    1    2    0    0 -0.12380834339E+02 -0.21148013269E+02 -0.20400711550E+02  0.59302069624E+02  0.50000229057E+02 0.  0.
         12    1    1    2    0    0  0.12380834339E+02  0.21148013269E+02  0.20400711550E+02  0.31885930376E+02  0.00000000000E+00 0. -1.
         11    1    3    3    0    0  0.36034589781E+01  0.78324468855E+01 -0.49700869602E+01  0.99515780394E+01  0.51100000000E-03 0. -1.
        -11    1    3    3    0    0  0.74687297141E+01  0.19292215840E+01 -0.34737392998E+00  0.77216894765E+01  0.51100000000E-03 0.  1.
         12    1    3    3    0    0 -0.23453023031E+02 -0.30909681739E+02 -0.15083250660E+02  0.41628802108E+02  0.00000000000E+00 0. -1.
</event>
<event>
 7    1  0.3449603E-013  0.5930197E+02  0.7816164E-02  0.1266605E+00
        -11   -1    0    0    0    0  0.00000000000E+00  0.00000000000E+00  0.45593999997E+02  0.45594000000E+02  0.51100000000E-03 0.  1.
         11   -1    0    0    0    0 -0.00000000000E+00 -0.00000000000E+00 -0.45593999997E+02  0.45594000000E+02  0.51100000000E-03 0. -1.
    9900012    2    1    2    0    0 -0.10931248299E+02 -0.25039276694E+01  0.29848903085E+02  0.59301970794E+02  0.50000048815E+02 0.  0.
         12    1    1    2    0    0  0.10931248299E+02  0.25039276694E+01 -0.29848903085E+02  0.31886029206E+02  0.00000000000E+00 0. -1.
         11    1    3    3    0    0  0.14916078466E+02 -0.35080887647E+01  0.30796643597E+01  0.15629472685E+02  0.51100000000E-03 0. -1.
        -11    1    3    3    0    0  0.35283521217E+01 -0.55825705309E+00  0.80431816103E+01  0.88007778241E+01  0.51100000000E-03 0.  1.
        -12    1    3    3    0    0 -0.29375678887E+02  0.15624181483E+01  0.18726057115E+02  0.34871720285E+02  0.00000000000E+00 0.  1.
</event>
<event>
 7    1  0.3449603E-013  0.5930197E+02  0.7816164E-02  0.1266605E+00
        -11   -1    0    0    0    0  0.00000000000E+00  0.00000000000E+00  0.45593999997E+02  0.45594000000E+02  0.51100000000E-03 0.  1.
         11   -1    0    0    0    0 -0.00000000000E+00 -0.00000000000E+00 -0.45593999997E+02  0.45594000000E+02  0.51100000000E-03 0. -1.
    9900012    2    1    2    0    0 -0.23812529289E+02  0.20938252701E+02 -0.33573256409E+01  0.59301974648E+02  0.50000055844E+02 0.  0.
         12    1    1    2    0    0  0.23812529289E+02 -0.20938252701E+02  0.33573256409E+01  0.31886025352E+02  0.00000000000E+00 0. -1.
         11    1    3    3    0    0 -0.21903814360E+02  0.99944026750E+01  0.23046396153E+01  0.24186288107E+02  0.51100000000E-03 0. -1.
        -11    1    3    3    0    0 -0.88185188971E+01  0.66328060803E+01  0.11611587142E+02  0.16018406545E+02  0.51100000000E-03 0.  1.
         12    1    3    3    0    0  0.69098039686E+01  0.43110439455E+01 -0.17273552398E+02  0.19097279996E+02  0.00000000000E+00 0. -1.
</event>
<event>
 7    1  0.3449603E-013  0.5930194E+02  0.7816164E-02  0.1266605E+00
        -11   -1    0    0    0    0  0.00000000000E+00  0.00000000000E+00  0.45593999997E+02  0.45594000000E+02  0.51100000000E-03 0.  1.
         11   -1    0    0    0    0 -0.00000000000E+00 -0.00000000000E+00 -0.45593999997E+02  0.45594000000E+02  0.51100000000E-03 0. -1.
    9900012    2    1    2    0    0  0.14672350075E+02 -0.31630942998E+01 -0.28132504050E+02  0.59301940250E+02  0.49999993110E+02 0.  0.
         12    1    1    2    0    0 -0.14672350075E+02  0.31630942998E+01  0.28132504050E+02  0.31886059750E+02  0.00000000000E+00 0. -1.
         11    1    3    3    0    0  0.67516357108E+01 -0.75850384285E+01 -0.23372905857E+02  0.25483526467E+02  0.51100000000E-03 0. -1.
        -11    1    3    3    0    0 -0.57533258828E+01 -0.84105462623E+01  0.63649168231E+01  0.12014583371E+02  0.51100000000E-03 0.  1.
        -12    1    3    3    0    0  0.13674040247E+02  0.12832490391E+02 -0.11124515016E+02  0.21803830412E+02  0.00000000000E+00 0.  1.
</event>
<event>
 7    1  0.3957113E-013  0.5930204E+02  0.7816164E-02  0.1266604E+00
        -11   -1    0    0    0    0  0.00000000000E+00  0.00000000000E+00  0.45593999997E+02  0.45594000000E+02  0.51100000000E-03 0. -1.
         11   -1    0    0    0    0 -0.00000000000E+00 -0.00000000000E+00 -0.45593999997E+02  0.45594000000E+02  0.51100000000E-03 0.  1.
    9900012    2    1    2    0    0  0.29803014933E+02 -0.11053114274E+02 -0.25146445499E+01  0.59302039586E+02  0.50000174276E+02 0.  0.
         12    1    1    2    0    0 -0.29803014933E+02  0.11053114274E+02  0.25146445499E+01  0.31885960414E+02  0.00000000000E+00 0. -1.
         11    1    3    3    0    0  0.63267837577E+01 -0.21000511664E+01 -0.16802169033E+02  0.18076263223E+02  0.51100000000E-03 0. -1.
        -11    1    3    3    0    0  0.16643259977E+02 -0.74656054669E+01 -0.64446584404E+01  0.19345981245E+02  0.51100000000E-03 0.  1.
         12    1    3    3    0    0  0.68329711983E+01 -0.14874576410E+01  0.20732182924E+02  0.21879795118E+02  0.00000000000E+00 0. -1.
</event>
<event>
 7    1  0.3449603E-013  0.5930192E+02  0.7816164E-02  0.1266605E+00
        -11   -1    0    0    0    0  0.00000000000E+00  0.00000000000E+00  0.45593999997E+02  0.45594000000E+02  0.51100000000E-03 0. -1.
         11   -1    0    0    0    0 -0.00000000000E+00 -0.00000000000E+00 -0.45593999997E+02  0.45594000000E+02  0.51100000000E-03 0.  1.
    9900012    2    1    2    0    0  0.31741045636E+02 -0.19235782988E+00 -0.30316368079E+01  0.59301924648E+02  0.49999964656E+02 0.  0.
         12    1    1    2    0    0 -0.31741045636E+02  0.19235782988E+00  0.30316368079E+01  0.31886075352E+02  0.00000000000E+00 0. -1.
         11    1    3    3    0    0  0.12765486132E+02  0.16312212380E+02  0.75538580395E+01  0.22047827115E+02  0.51100000000E-03 0. -1.
        -11    1    3    3    0    0  0.15739457004E+01  0.59250337268E+01 -0.58491895771E+01  0.84732726087E+01  0.51100000000E-03 0.  1.
        -12    1    3    3    0    0  0.17401613804E+02 -0.22429603937E+02 -0.47363052703E+01  0.28780824925E+02  0.00000000000E+00 0.  1.
</event>
<event>
 7    1  0.3449603E-013  0.5930193E+02  0.7816164E-02  0.1266605E+00
        -11   -1    0    0    0    0  0.00000000000E+00  0.00000000000E+00  0.45593999997E+02  0.45594000000E+02  0.51100000000E-03 0.  1.
         11   -1    0    0    0    0 -0.00000000000E+00 -0.00000000000E+00 -0.45593999997E+02  0.45594000000E+02  0.51100000000E-03 0. -1.
    9900012    2    1    2    0    0  0.20858318582E+02 -0.12362852026E+02  0.20707775285E+02  0.59301929036E+02  0.49999972659E+02 0.  0.
         12    1    1    2    0    0 -0.20858318582E+02  0.12362852026E+02 -0.20707775285E+02  0.31886070964E+02  0.00000000000E+00 0. -1.
         11    1    3    3    0    0 -0.29853616987E+01 -0.25862475204E+02  0.69252630929E+01  0.26939548573E+02  0.51100000000E-03 0.  1.
        -11    1    3    3    0    0  0.38738475935E+01  0.26875549417E+01  0.73986132054E+01  0.87732049085E+01  0.51100000000E-03 0. -1.
        -12    1    3    3    0    0  0.19969832687E+02  0.10812068236E+02  0.63838989863E+01  0.23589175555E+02  0.00000000000E+00 0.  1.
</event>
<event>
 7    1  0.3449603E-013  0.5930194E+02  0.7816164E-02  0.1266605E+00
        -11   -1    0    0    0    0  0.00000000000E+00  0.00000000000E+00  0.45593999997E+02  0.45594000000E+02  0.51100000000E-03 0. -1.
         11   -1    0    0    0    0 -0.00000000000E+00 -0.00000000000E+00 -0.45593999997E+02  0.45594000000E+02  0.51100000000E-03 0.  1.
    9900012    2    1    2    0    0 -0.12293666812E+02  0.24050043347E+02  0.16946447725E+02  0.59301938482E+02  0.49999989885E+02 0.  0.
         12    1    1    2    0    0  0.12293666812E+02 -0.24050043347E+02 -0.16946447725E+02  0.31886061518E+02  0.00000000000E+00 0. -1.
         11    1    3    3    0    0  0.24565066844E+01 -0.45885222013E+01 -0.97980293107E+00  0.52961283149E+01  0.51100000000E-03 0. -1.
        -11    1    3    3    0    0  0.60868781356E+01 -0.66782522261E+01  0.73772438003E+01  0.11665027415E+02  0.51100000000E-03 0.  1.
        -12    1    3    3    0    0 -0.20837051632E+02  0.35316817774E+02  0.10549006856E+02  0.42340782752E+02  0.00000000000E+00 0.  1.
</event>
<event>
 7    1  0.3449603E-013  0.5930191E+02  0.7816164E-02  0.1266605E+00
        -11   -1    0    0    0    0  0.00000000000E+00  0.00000000000E+00  0.45593999997E+02  0.45594000000E+02  0.51100000000E-03 0.  1.
         11   -1    0    0    0    0 -0.00000000000E+00 -0.00000000000E+00 -0.45593999997E+02  0.45594000000E+02  0.51100000000E-03 0. -1.
    9900012    2    1    2    0    0 -0.42164106807E+01  0.29151254509E+02 -0.12212647546E+02  0.59301913402E+02  0.49999944146E+02 0.  0.
         12    1    1    2    0    0  0.42164106807E+01 -0.29151254509E+02  0.12212647546E+02  0.31886086598E+02  0.00000000000E+00 0. -1.
         11    1    3    3    0    0 -0.88940897949E+01  0.18279305431E+02  0.26043282352E+01  0.20494398409E+02  0.51100000000E-03 0.  1.
        -11    1    3    3    0    0 -0.66679218962E+01  0.16240473965E+02  0.21665238618E+01  0.17689205831E+02  0.51100000000E-03 0. -1.
         12    1    3    3    0    0  0.11345601010E+02 -0.53685248877E+01 -0.16983499643E+02  0.21118309162E+02  0.00000000000E+00 0. -1.
</event>
<event>
 7    1  0.3449603E-013  0.5930193E+02  0.7816164E-02  0.1266605E+00
        -11   -1    0    0    0    0  0.00000000000E+00  0.00000000000E+00  0.45593999997E+02  0.45594000000E+02  0.51100000000E-03 0.  1.
         11   -1    0    0    0    0 -0.00000000000E+00 -0.00000000000E+00 -0.45593999997E+02  0.45594000000E+02  0.51100000000E-03 0. -1.
    9900012    2    1    2    0    0  0.10137209960E+02  0.29332634217E+02  0.73181082474E+01  0.59301934639E+02  0.49999982878E+02 0.  0.
         12    1    1    2    0    0 -0.10137209960E+02 -0.29332634217E+02 -0.73181082474E+01  0.31886065361E+02  0.00000000000E+00 0. -1.
         11    1    3    3    0    0  0.55105830544E+01 -0.37442401433E+01 -0.61318518345E+01  0.90545826536E+01  0.51100000000E-03 0. -1.
        -11    1    3    3    0    0  0.16655245780E+02  0.11989187052E+02 -0.32549546394E+01  0.20778174802E+02  0.51100000000E-03 0.  1.
        -12    1    3    3    0    0 -0.12028618874E+02  0.21087687308E+02  0.16704914721E+02  0.29469177183E+02  0.00000000000E+00 0.  1.
</event>
<event>
 7    1  0.3449603E-013  0.5930202E+02  0.7816164E-02  0.1266605E+00
        -11   -1    0    0    0    0  0.00000000000E+00  0.00000000000E+00  0.45593999997E+02  0.45594000000E+02  0.51100000000E-03 0.  1.
         11   -1    0    0    0    0 -0.00000000000E+00 -0.00000000000E+00 -0.45593999997E+02  0.45594000000E+02  0.51100000000E-03 0. -1.
    9900012    2    1    2    0    0  0.16372854753E+02 -0.27352123158E+02  0.71200426112E+00  0.59302016182E+02  0.50000131592E+02 0.  0.
         12    1    1    2    0    0 -0.16372854753E+02  0.27352123158E+02 -0.71200426112E+00  0.31885983818E+02  0.00000000000E+00 0. -1.
         11    1    3    3    0    0  0.91028154178E+01 -0.42517205478E+00  0.35096173411E+01  0.97652155096E+01  0.51100000000E-03 0. -1.
        -11    1    3    3    0    0  0.20209537800E+02 -0.12202696975E+02  0.10512895817E+02  0.25842836731E+02  0.51100000000E-03 0.  1.
        -12    1    3    3    0    0 -0.12939498465E+02 -0.14724254128E+02 -0.13310508897E+02  0.23693963941E+02  0.00000000000E+00 0.  1.
</event>
<event>
 7    1  0.3449603E-013  0.5930194E+02  0.7816164E-02  0.1266605E+00
        -11   -1    0    0    0    0  0.00000000000E+00  0.00000000000E+00  0.45593999997E+02  0.45594000000E+02  0.51100000000E-03 0.  1.
         11   -1    0    0    0    0 -0.00000000000E+00 -0.00000000000E+00 -0.45593999997E+02  0.45594000000E+02  0.51100000000E-03 0. -1.
    9900012    2    1    2    0    0  0.14556351944E+02  0.16849279606E+02  0.22824009228E+02  0.59301937176E+02  0.49999987504E+02 0.  0.
         12    1    1    2    0    0 -0.14556351944E+02 -0.16849279606E+02 -0.22824009228E+02  0.31886062824E+02  0.00000000000E+00 0. -1.
         11    1    3    3    0    0  0.12090269499E+02  0.78538596743E+01 -0.44768294132E+01  0.15096348241E+02  0.51100000000E-03 0. -1.
        -11    1    3    3    0    0 -0.82597756746E+01  0.16787489277E+02  0.24202434355E+02  0.30590873139E+02  0.51100000000E-03 0.  1.
         12    1    3    3    0    0  0.10725858120E+02 -0.77920693460E+01  0.30984042868E+01  0.13614715797E+02  0.00000000000E+00 0. -1.
</event>
<event>
 7    1  0.3449603E-013  0.5930195E+02  0.7816164E-02  0.1266605E+00
        -11   -1    0    0    0    0  0.00000000000E+00  0.00000000000E+00  0.45593999997E+02  0.45594000000E+02  0.51100000000E-03 0. -1.
         11   -1    0    0    0    0 -0.00000000000E+00 -0.00000000000E+00 -0.45593999997E+02  0.45594000000E+02  0.51100000000E-03 0.  1.
    9900012    2    1    2    0    0 -0.56276273534E+01 -0.19905260732E+01 -0.31322319515E+02  0.59301951585E+02  0.50000013783E+02 0.  0.
         12    1    1    2    0    0  0.56276273534E+01  0.19905260732E+01  0.31322319515E+02  0.31886048415E+02  0.00000000000E+00 0. -1.
         11    1    3    3    0    0  0.40682906381E+01 -0.16622043930E+02 -0.77972480282E+01  0.18805329303E+02  0.51100000000E-03 0. -1.
        -11    1    3    3    0    0 -0.80243299474E+01 -0.41906922253E+01  0.14608765731E+01  0.91698382240E+01  0.51100000000E-03 0.  1.
        -12    1    3    3    0    0 -0.16715880441E+01  0.18822210082E+02 -0.24985948060E+02  0.31326784058E+02  0.00000000000E+00 0.  1.
</event>
<event>
 7    1  0.3449603E-013  0.5930198E+02  0.7816164E-02  0.1266605E+00
        -11   -1    0    0    0    0  0.00000000000E+00  0.00000000000E+00  0.45593999997E+02  0.45594000000E+02  0.51100000000E-03 0.  1.
         11   -1    0    0    0    0 -0.00000000000E+00 -0.00000000000E+00 -0.45593999997E+02  0.45594000000E+02  0.51100000000E-03 0. -1.
    9900012    2    1    2    0    0 -0.34180446787E-01  0.24092660637E+02  0.20886853735E+02  0.59301982315E+02  0.50000069826E+02 0.  0.
         12    1    1    2    0    0  0.34180446787E-01 -0.24092660637E+02 -0.20886853735E+02  0.31886017685E+02  0.00000000000E+00 0. -1.
         11    1    3    3    0    0  0.18097949261E+02  0.11936196099E+02  0.62333460450E+01  0.22557995212E+02  0.51100000000E-03 0. -1.
        -11    1    3    3    0    0 -0.71845799391E+01  0.18209240572E+02  0.14277501769E+02  0.24228943191E+02  0.51100000000E-03 0.  1.
         12    1    3    3    0    0 -0.10947549769E+02 -0.60527760348E+01  0.37600592121E+00  0.12515043912E+02  0.00000000000E+00 0. -1.
</event>
<event>
 7    1  0.3449603E-013  0.5930189E+02  0.7816164E-02  0.1266605E+00
        -11   -1    0    0    0    0  0.00000000000E+00  0.00000000000E+00  0.45593999997E+02  0.45594000000E+02  0.51100000000E-03 0.  1.
         11   -1    0    0    0    0 -0.00000000000E+00 -0.00000000000E+00 -0.45593999997E+02  0.45594000000E+02  0.51100000000E-03 0. -1.
    9900012    2    1    2    0    0  0.24895880108E+02  0.16404114201E+02  0.11305931597E+02  0.59301891765E+02  0.49999904685E+02 0.  0.
         12    1    1    2    0    0 -0.24895880108E+02 -0.16404114201E+02 -0.11305931597E+02  0.31886108235E+02  0.00000000000E+00 0. -1.
         11    1    3    3    0    0 -0.26993123182E+01  0.72510239585E+01  0.25698576445E+01  0.81527789135E+01  0.51100000000E-03 0. -1.
        -11    1    3    3    0    0  0.19086996942E+02  0.20644934303E+02 -0.79073014052E+01  0.29207057031E+02  0.51100000000E-03 0.  1.
        -12    1    3    3    0    0  0.85081954842E+01 -0.11491844061E+02  0.16643375358E+02  0.21942055820E+02  0.00000000000E+00 0.  1.
</event>
<event>
 7    1  0.3449603E-013  0.5930192E+02  0.7816164E-02  0.1266605E+00
        -11   -1    0    0    0    0  0.00000000000E+00  0.00000000000E+00  0.45593999997E+02  0.45594000000E+02  0.51100000000E-03 0.  1.
         11   -1    0    0    0    0 -0.00000000000E+00 -0.00000000000E+00 -0.45593999997E+02  0.45594000000E+02  0.51100000000E-03 0. -1.
    9900012    2    1    2    0    0 -0.89665192343E+01 -0.32095991406E+01  0.30430608673E+02  0.59301922505E+02  0.49999960747E+02 0.  0.
         12    1    1    2    0    0  0.89665192343E+01  0.32095991406E+01 -0.30430608673E+02  0.31886077495E+02  0.00000000000E+00 0. -1.
         11    1    3    3    0    0 -0.75988851910E+01 -0.11940841795E+02  0.26227411819E+01  0.14394635476E+02  0.51100000000E-03 0. -1.
        -11    1    3    3    0    0 -0.75331836621E+01 -0.11613930574E+02  0.13079794191E+02  0.19045032313E+02  0.51100000000E-03 0.  1.
         12    1    3    3    0    0  0.61655496189E+01  0.20345173229E+02  0.14728073300E+02  0.25862254715E+02  0.00000000000E+00 0. -1.
</event>
<event>
 7    1  0.3449603E-013  0.5930195E+02  0.7816164E-02  0.1266605E+00
        -11   -1    0    0    0    0  0.00000000000E+00  0.00000000000E+00  0.45593999997E+02  0.45594000000E+02  0.51100000000E-03 0.  1.
         11   -1    0    0    0    0 -0.00000000000E+00 -0.00000000000E+00 -0.45593999997E+02  0.45594000000E+02  0.51100000000E-03 0. -1.
    9900012    2    1    2    0    0  0.27199879477E+02 -0.16379563863E+02  0.29320010531E+01  0.59301949977E+02  0.50000010849E+02 0.  0.
         12    1    1    2    0    0 -0.27199879477E+02  0.16379563863E+02 -0.29320010531E+01  0.31886050023E+02  0.00000000000E+00 0. -1.
         11    1    3    3    0    0  0.63369357343E+01 -0.16223736550E+02 -0.57513751946E+01  0.18342428929E+02  0.51100000000E-03 0. -1.
        -11    1    3    3    0    0  0.18806525710E+02 -0.12067635145E+02  0.15393139653E+02  0.27134147783E+02  0.51100000000E-03 0.  1.
        -12    1    3    3    0    0  0.20564180329E+01  0.11911807832E+02 -0.67097634051E+01  0.13825373264E+02  0.00000000000E+00 0.  1.
</event>
<event>
 7    1  0.3449603E-013  0.5930194E+02  0.7816164E-02  0.1266605E+00
        -11   -1    0    0    0    0  0.00000000000E+00  0.00000000000E+00  0.45593999997E+02  0.45594000000E+02  0.51100000000E-03 0.  1.
         11   -1    0    0    0    0 -0.00000000000E+00 -0.00000000000E+00 -0.45593999997E+02  0.45594000000E+02  0.51100000000E-03 0. -1.
    9900012    2    1    2    0    0  0.14507310823E+02 -0.27636997516E+01  0.28259875428E+02  0.59301942501E+02  0.49999997216E+02 0.  0.
         12    1    1    2    0    0 -0.14507310823E+02  0.27636997516E+01 -0.28259875428E+02  0.31886057499E+02  0.00000000000E+00 0. -1.
         11    1    3    3    0    0 -0.82100042313E+01 -0.91639713288E+01  0.57238454667E+01  0.13570001738E+02  0.51100000000E-03 0. -1.
        -11    1    3    3    0    0  0.12761178232E+01  0.16147931988E+02  0.10225443180E+02  0.19155779094E+02  0.51100000000E-03 0.  1.
         12    1    3    3    0    0  0.21441197231E+02 -0.97476604108E+01  0.12310586781E+02  0.26576161669E+02  0.00000000000E+00 0. -1.
</event>
<event>
 7    1  0.3449603E-013  0.5930194E+02  0.7816164E-02  0.1266605E+00
        -11   -1    0    0    0    0  0.00000000000E+00  0.00000000000E+00  0.45593999997E+02  0.45594000000E+02  0.51100000000E-03 0.  1.
         11   -1    0    0    0    0 -0.00000000000E+00 -0.00000000000E+00 -0.45593999997E+02  0.45594000000E+02  0.51100000000E-03 0. -1.
    9900012    2    1    2    0    0 -0.70500890519E+01 -0.94995124938E+00  0.31082388392E+02  0.59301936726E+02  0.49999986683E+02 0.  0.
         12    1    1    2    0    0  0.70500890519E+01  0.94995124938E+00 -0.31082388392E+02  0.31886063274E+02  0.00000000000E+00 0. -1.
         11    1    3    3    0    0  0.87627512427E+01 -0.48170027607E+00  0.33727171865E+01  0.94017586641E+01  0.51100000000E-03 0. -1.
        -11    1    3    3    0    0 -0.30814351363E+01 -0.24346501749E+01 -0.96303983826E+01  0.10400352746E+02  0.51100000000E-03 0.  1.
        -12    1    3    3    0    0 -0.12731405158E+02  0.19663992016E+01  0.37340069588E+02  0.39499825315E+02  0.00000000000E+00 0.  1.
</event>
<event>
 7    1  0.3449603E-013  0.5930194E+02  0.7816164E-02  0.1266605E+00
        -11   -1    0    0    0    0  0.00000000000E+00  0.00000000000E+00  0.45593999997E+02  0.45594000000E+02  0.51100000000E-03 0.  1.
         11   -1    0    0    0    0 -0.00000000000E+00 -0.00000000000E+00 -0.45593999997E+02  0.45594000000E+02  0.51100000000E-03 0. -1.
    9900012    2    1    2    0    0  0.94355383151E+01 -0.26243929743E+02  0.15457923294E+02  0.59301943106E+02  0.49999998319E+02 0.  0.
         12    1    1    2    0    0 -0.94355383151E+01  0.26243929743E+02 -0.15457923294E+02  0.31886056894E+02  0.00000000000E+00 0. -1.
         11    1    3    3    0    0  0.35065747047E+01 -0.13129240756E+02 -0.11131726574E+02  0.17566683403E+02  0.51100000000E-03 0. -1.
        -11    1    3    3    0    0  0.31261403104E+01 -0.12167993960E+02 -0.22339592773E+01  0.12760227450E+02  0.51100000000E-03 0.  1.
        -12    1    3    3    0    0  0.28028233000E+01 -0.94669502675E+00  0.28823609145E+02  0.28975032253E+02  0.00000000000E+00 0.  1.
</event>
<event>
 7    1  0.3449603E-013  0.5930186E+02  0.7816164E-02  0.1266605E+00
        -11   -1    0    0    0    0  0.00000000000E+00  0.00000000000E+00  0.45593999997E+02  0.45594000000E+02  0.51100000000E-03 0.  1.
         11   -1    0    0    0    0 -0.00000000000E+00 -0.00000000000E+00 -0.45593999997E+02  0.45594000000E+02  0.51100000000E-03 0. -1.
    9900012    2    1    2    0    0  0.30545085371E+02 -0.61439499739E+01  0.67805194759E+01  0.59301861852E+02  0.49999850132E+02 0.  0.
         12    1    1    2    0    0 -0.30545085371E+02  0.61439499739E+01 -0.67805194759E+01  0.31886138148E+02  0.00000000000E+00 0. -1.
         11    1    3    3    0    0  0.35751158462E+01  0.40528560564E+01 -0.15907590734E+02  0.16800551740E+02  0.51100000000E-03 0. -1.
        -11    1    3    3    0    0  0.77613045057E+01 -0.60689388472E+01  0.20484792298E+02  0.22730960871E+02  0.51100000000E-03 0.  1.
         12    1    3    3    0    0  0.19208665019E+02 -0.41278671831E+01  0.22033179120E+01  0.19770349241E+02  0.00000000000E+00 0. -1.
</event>
<event>
 7    1  0.3449603E-013  0.5930196E+02  0.7816164E-02  0.1266605E+00
        -11   -1    0    0    0    0  0.00000000000E+00  0.00000000000E+00  0.45593999997E+02  0.45594000000E+02  0.51100000000E-03 0.  1.
         11   -1    0    0    0    0 -0.00000000000E+00 -0.00000000000E+00 -0.45593999997E+02  0.45594000000E+02  0.51100000000E-03 0. -1.
    9900012    2    1    2    0    0 -0.50271541199E+01 -0.10109173413E+02  0.29820325803E+02  0.59301960788E+02  0.50000030567E+02 0.  0.
         12    1    1    2    0    0  0.50271541199E+01  0.10109173413E+02 -0.29820325803E+02  0.31886039212E+02  0.00000000000E+00 0. -1.
         11    1    3    3    0    0  0.12353750437E+02 -0.57623946712E+01  0.30524759092E+01  0.13969178631E+02  0.51100000000E-03 0. -1.
        -11    1    3    3    0    0 -0.12562067366E+02 -0.18067848439E+02  0.17118441831E+02  0.27879988069E+02  0.51100000000E-03 0.  1.
        -12    1    3    3    0    0 -0.48188371901E+01  0.13721069698E+02  0.96494080624E+01  0.17452794088E+02  0.00000000000E+00 0.  1.
</event>
<event>
 7    1  0.3449603E-013  0.5930195E+02  0.7816164E-02  0.1266605E+00
        -11   -1    0    0    0    0  0.00000000000E+00  0.00000000000E+00  0.45593999997E+02  0.45594000000E+02  0.51100000000E-03 0.  1.
         11   -1    0    0    0    0 -0.00000000000E+00 -0.00000000000E+00 -0.45593999997E+02  0.45594000000E+02  0.51100000000E-03 0. -1.
    9900012    2    1    2    0    0  0.19812201867E+02  0.21327184815E+02  0.13013370260E+02  0.59301953514E+02  0.50000017301E+02 0.  0.
         12    1    1    2    0    0 -0.19812201867E+02 -0.21327184815E+02 -0.13013370260E+02  0.31886046486E+02  0.00000000000E+00 0. -1.
         11    1    3    3    0    0 -0.97284300790E+01 -0.69668760738E+01 -0.87246386805E+00  0.11997537560E+02  0.51100000000E-03 0. -1.
        -11    1    3    3    0    0  0.13961093071E+02  0.35250942144E+01  0.10556418450E+02  0.17854309836E+02  0.51100000000E-03 0.  1.
        -12    1    3    3    0    0  0.15579538875E+02  0.24768966674E+02  0.33294156786E+01  0.29450106119E+02  0.00000000000E+00 0.  1.
</event>
<event>
 7    1  0.3449603E-013  0.5930193E+02  0.7816164E-02  0.1266605E+00
        -11   -1    0    0    0    0  0.00000000000E+00  0.00000000000E+00  0.45593999997E+02  0.45594000000E+02  0.51100000000E-03 0.  1.
         11   -1    0    0    0    0 -0.00000000000E+00 -0.00000000000E+00 -0.45593999997E+02  0.45594000000E+02  0.51100000000E-03 0. -1.
    9900012    2    1    2    0    0 -0.30379937330E+02  0.92728271243E+01 -0.27921020112E+01  0.59301925474E+02  0.49999966162E+02 0.  0.
         12    1    1    2    0    0  0.30379937330E+02 -0.92728271243E+01  0.27921020112E+01  0.31886074526E+02  0.00000000000E+00 0. -1.
         11    1    3    3    0    0 -0.57300777739E+01 -0.90045004256E+01  0.20550157059E+01  0.10869126415E+02  0.51100000000E-03 0. -1.
        -11    1    3    3    0    0 -0.17686422444E+02  0.41457859597E+01  0.14670804303E+02  0.23350151589E+02  0.51100000000E-03 0.  1.
         12    1    3    3    0    0 -0.69634371122E+01  0.14131541590E+02 -0.19517922020E+02  0.25082647470E+02  0.00000000000E+00 0. -1.
</event>
<event>
 7    1  0.3449603E-013  0.5930197E+02  0.7816164E-02  0.1266605E+00
        -11   -1    0    0    0    0  0.00000000000E+00  0.00000000000E+00  0.45593999997E+02  0.45594000000E+02  0.51100000000E-03 0.  1.
         11   -1    0    0    0    0 -0.00000000000E+00 -0.00000000000E+00 -0.45593999997E+02  0.45594000000E+02  0.51100000000E-03 0. -1.
    9900012    2    1    2    0    0 -0.57412315593E+01 -0.31054936128E+02  0.43986552095E+01  0.59301969119E+02  0.50000045760E+02 0.  0.
         12    1    1    2    0    0  0.57412315593E+01  0.31054936128E+02 -0.43986552095E+01  0.31886030881E+02  0.00000000000E+00 0. -1.
         11    1    3    3    0    0  0.87842743417E+01  0.17555755887E+01 -0.96871145453E+00  0.90102121785E+01  0.51100000000E-03 0. -1.
        -11    1    3    3    0    0 -0.57869666916E+01 -0.15906265953E+02  0.20062481598E+02  0.26248837083E+02  0.51100000000E-03 0.  1.
         12    1    3    3    0    0 -0.87385392094E+01 -0.16904245763E+02 -0.14695114934E+02  0.24042919857E+02  0.00000000000E+00 0. -1.
</event>
<event>
 7    1  0.3449603E-013  0.5930198E+02  0.7816164E-02  0.1266605E+00
        -11   -1    0    0    0    0  0.00000000000E+00  0.00000000000E+00  0.45593999997E+02  0.45594000000E+02  0.51100000000E-03 0. -1.
         11   -1    0    0    0    0 -0.00000000000E+00 -0.00000000000E+00 -0.45593999997E+02  0.45594000000E+02  0.51100000000E-03 0.  1.
    9900012    2    1    2    0    0  0.29458184184E+02 -0.60802378773E+01 -0.10581316801E+02  0.59301981539E+02  0.50000068411E+02 0.  0.
         12    1    1    2    0    0 -0.29458184184E+02  0.60802378773E+01  0.10581316801E+02  0.31886018461E+02  0.00000000000E+00 0. -1.
         11    1    3    3    0    0  0.12449939584E+02  0.55897979012E+01 -0.15959498591E+02  0.20998867393E+02  0.51100000000E-03 0. -1.
        -11    1    3    3    0    0  0.20623895409E+01  0.34490268505E+01 -0.10841828002E+02  0.11562632552E+02  0.51100000000E-03 0.  1.
         12    1    3    3    0    0  0.14945855059E+02 -0.15119062629E+02  0.16220009793E+02  0.26740481594E+02  0.00000000000E+00 0. -1.
</event>
<event>
 7    1  0.3449603E-013  0.5930195E+02  0.7816164E-02  0.1266605E+00
        -11   -1    0    0    0    0  0.00000000000E+00  0.00000000000E+00  0.45593999997E+02  0.45594000000E+02  0.51100000000E-03 0. -1.
         11   -1    0    0    0    0 -0.00000000000E+00 -0.00000000000E+00 -0.45593999997E+02  0.45594000000E+02  0.51100000000E-03 0.  1.
    9900012    2    1    2    0    0 -0.44496845608E+01 -0.11452268224E+02 -0.29423906944E+02  0.59301945995E+02  0.50000003588E+02 0.  0.
         12    1    1    2    0    0  0.44496845608E+01  0.11452268224E+02  0.29423906944E+02  0.31886054005E+02  0.00000000000E+00 0. -1.
         11    1    3    3    0    0 -0.12703703877E+02 -0.14083137491E+02  0.24922204527E+01  0.19129297342E+02  0.51100000000E-03 0. -1.
        -11    1    3    3    0    0  0.26123897928E+00 -0.27182686550E+01  0.29408381330E+01  0.40131981599E+01  0.51100000000E-03 0.  1.
        -12    1    3    3    0    0  0.79927803365E+01  0.53491379214E+01 -0.34856965529E+02  0.36159450493E+02  0.00000000000E+00 0.  1.
</event>
<event>
 7    1  0.3449603E-013  0.5930193E+02  0.7816164E-02  0.1266605E+00
        -11   -1    0    0    0    0  0.00000000000E+00  0.00000000000E+00  0.45593999997E+02  0.45594000000E+02  0.51100000000E-03 0.  1.
         11   -1    0    0    0    0 -0.00000000000E+00 -0.00000000000E+00 -0.45593999997E+02  0.45594000000E+02  0.51100000000E-03 0. -1.
    9900012    2    1    2    0    0  0.97888355569E+00 -0.27246755639E+02  0.16534130834E+02  0.59301931125E+02  0.49999976468E+02 0.  0.
         12    1    1    2    0    0 -0.97888355569E+00  0.27246755639E+02 -0.16534130834E+02  0.31886068875E+02  0.00000000000E+00 0. -1.
         11    1    3    3    0    0  0.93489314208E+01 -0.64081444988E+01 -0.10377181334E+02  0.15367261543E+02  0.51100000000E-03 0. -1.
        -11    1    3    3    0    0 -0.14101285798E+02 -0.22708611024E+01  0.63101303867E+01  0.15614762793E+02  0.51100000000E-03 0.  1.
        -12    1    3    3    0    0  0.57312379334E+01 -0.18567750038E+02  0.20601181781E+02  0.28319906789E+02  0.00000000000E+00 0.  1.
</event>
<event>
 7    1  0.3449603E-013  0.5930195E+02  0.7816164E-02  0.1266605E+00
        -11   -1    0    0    0    0  0.00000000000E+00  0.00000000000E+00  0.45593999997E+02  0.45594000000E+02  0.51100000000E-03 0.  1.
         11   -1    0    0    0    0 -0.00000000000E+00 -0.00000000000E+00 -0.45593999997E+02  0.45594000000E+02  0.51100000000E-03 0. -1.
    9900012    2    1    2    0    0  0.20549982350E+02  0.19898889158E+02  0.14087321283E+02  0.59301949990E+02  0.50000010874E+02 0.  0.
         12    1    1    2    0    0 -0.20549982350E+02 -0.19898889158E+02 -0.14087321283E+02  0.31886050010E+02  0.00000000000E+00 0. -1.
         11    1    3    3    0    0 -0.19062038835E+01  0.28344302462E+01  0.25810194219E+00  0.34255254984E+01  0.51100000000E-03 0.  1.
        -11    1    3    3    0    0 -0.10677914278E+02 -0.72472913065E+01  0.50148635963E+01  0.13845213677E+02  0.51100000000E-03 0. -1.
        -12    1    3    3    0    0  0.33134100511E+02  0.24311750218E+02  0.88143557448E+01  0.42031210815E+02  0.00000000000E+00 0.  1.
</event>
<event>
 7    1  0.3449603E-013  0.5930197E+02  0.7816164E-02  0.1266605E+00
        -11   -1    0    0    0    0  0.00000000000E+00  0.00000000000E+00  0.45593999997E+02  0.45594000000E+02  0.51100000000E-03 0.  1.
         11   -1    0    0    0    0 -0.00000000000E+00 -0.00000000000E+00 -0.45593999997E+02  0.45594000000E+02  0.51100000000E-03 0. -1.
    9900012    2    1    2    0    0 -0.24184722786E+02 -0.19982865424E+02  0.57011458765E+01  0.59301971851E+02  0.50000050743E+02 0.  0.
         12    1    1    2    0    0  0.24184722786E+02  0.19982865424E+02 -0.57011458765E+01  0.31886028149E+02  0.00000000000E+00 0. -1.
         11    1    3    3    0    0 -0.13368147818E+02 -0.23654811708E+02  0.71922836489E+01  0.28106697375E+02  0.51100000000E-03 0. -1.
        -11    1    3    3    0    0 -0.12051133932E+02 -0.73629090918E+01 -0.99170063063E+01  0.17256571899E+02  0.51100000000E-03 0.  1.
         12    1    3    3    0    0  0.12345589641E+01  0.11034855375E+02  0.84258685339E+01  0.13938702577E+02  0.00000000000E+00 0. -1.
</event>
<event>
 7    1  0.3449603E-013  0.5930193E+02  0.7816164E-02  0.1266605E+00
        -11   -1    0    0    0    0  0.00000000000E+00  0.00000000000E+00  0.45593999997E+02  0.45594000000E+02  0.51100000000E-03 0.  1.
         11   -1    0    0    0    0 -0.00000000000E+00 -0.00000000000E+00 -0.45593999997E+02  0.45594000000E+02  0.51100000000E-03 0. -1.
    9900012    2    1    2    0    0  0.17729804707E+02  0.20959074354E+02  0.16220141415E+02  0.59301925292E+02  0.49999965831E+02 0.  0.
         12    1    1    2    0    0 -0.17729804707E+02 -0.20959074354E+02 -0.16220141415E+02  0.31886074708E+02  0.00000000000E+00 0. -1.
         11    1    3    3    0    0  0.21272094832E+02  0.16843319402E+02  0.22161469295E+02  0.35033272023E+02  0.51100000000E-03 0. -1.
        -11    1    3    3    0    0 -0.36594482486E+01  0.13572473988E+02 -0.31183663584E+01  0.14398882618E+02  0.51100000000E-03 0.  1.
         12    1    3    3    0    0  0.11715812385E+00 -0.94567190364E+01 -0.28229615219E+01  0.98697706515E+01  0.00000000000E+00 0. -1.
</event>
<event>
 7    1  0.3449603E-013  0.5930192E+02  0.7816164E-02  0.1266605E+00
        -11   -1    0    0    0    0  0.00000000000E+00  0.00000000000E+00  0.45593999997E+02  0.45594000000E+02  0.51100000000E-03 0.  1.
         11   -1    0    0    0    0 -0.00000000000E+00 -0.00000000000E+00 -0.45593999997E+02  0.45594000000E+02  0.51100000000E-03 0. -1.
    9900012    2    1    2    0    0  0.22529551371E+02 -0.22495331932E+02 -0.17610451169E+01  0.59301922731E+02  0.49999961159E+02 0.  0.
         12    1    1    2    0    0 -0.22529551371E+02  0.22495331932E+02  0.17610451169E+01  0.31886077269E+02  0.00000000000E+00 0. -1.
         11    1    3    3    0    0 -0.33289418428E+01 -0.28288580684E+00  0.19203541389E+01  0.38535228625E+01  0.51100000000E-03 0. -1.
        -11    1    3    3    0    0 -0.10780037045E+01 -0.23067386115E+02  0.10070031183E+02  0.25192695816E+02  0.51100000000E-03 0.  1.
         12    1    3    3    0    0  0.26936496918E+02  0.85493998941E+00 -0.13751430439E+02  0.30255704053E+02  0.00000000000E+00 0. -1.
</event>
<event>
 7    1  0.3449603E-013  0.5930195E+02  0.7816164E-02  0.1266605E+00
        -11   -1    0    0    0    0  0.00000000000E+00  0.00000000000E+00  0.45593999997E+02  0.45594000000E+02  0.51100000000E-03 0. -1.
         11   -1    0    0    0    0 -0.00000000000E+00 -0.00000000000E+00 -0.45593999997E+02  0.45594000000E+02  0.51100000000E-03 0.  1.
    9900012    2    1    2    0    0 -0.25671780774E+01  0.28134499024E+02 -0.14784437210E+02  0.59301952547E+02  0.50000015536E+02 0.  0.
         12    1    1    2    0    0  0.25671780774E+01 -0.28134499024E+02  0.14784437210E+02  0.31886047453E+02  0.00000000000E+00 0. -1.
         11    1    3    3    0    0 -0.11437065167E+02  0.17426094748E+01 -0.21256553752E+02  0.24200913725E+02  0.51100000000E-03 0. -1.
        -11    1    3    3    0    0  0.73029571712E+01  0.11058485980E+02 -0.66785531002E+01  0.14840025856E+02  0.51100000000E-03 0.  1.
        -12    1    3    3    0    0  0.15669299183E+01  0.15333403569E+02  0.13150669643E+02  0.20261012966E+02  0.00000000000E+00 0.  1.
</event>
<event>
 7    1  0.3449603E-013  0.5930193E+02  0.7816164E-02  0.1266605E+00
        -11   -1    0    0    0    0  0.00000000000E+00  0.00000000000E+00  0.45593999997E+02  0.45594000000E+02  0.51100000000E-03 0. -1.
         11   -1    0    0    0    0 -0.00000000000E+00 -0.00000000000E+00 -0.45593999997E+02  0.45594000000E+02  0.51100000000E-03 0.  1.
    9900012    2    1    2    0    0 -0.20039849825E+02 -0.19142879804E+02 -0.15769473076E+02  0.59301926091E+02  0.49999967288E+02 0.  0.
         12    1    1    2    0    0  0.20039849825E+02  0.19142879804E+02  0.15769473076E+02  0.31886073909E+02  0.00000000000E+00 0. -1.
         11    1    3    3    0    0  0.47272525962E+01  0.78357135303E+01 -0.10467213794E+02  0.13903520724E+02  0.51100000000E-03 0. -1.
        -11    1    3    3    0    0  0.48020553341E+01 -0.64848856347E+01  0.27620265541E+01  0.85289077890E+01  0.51100000000E-03 0.  1.
         12    1    3    3    0    0 -0.29569157755E+02 -0.20493707700E+02 -0.80642858361E+01  0.36869497579E+02  0.00000000000E+00 0. -1.
</event>
<event>
 7    1  0.3449603E-013  0.5930198E+02  0.7816164E-02  0.1266605E+00
        -11   -1    0    0    0    0  0.00000000000E+00  0.00000000000E+00  0.45593999997E+02  0.45594000000E+02  0.51100000000E-03 0.  1.
         11   -1    0    0    0    0 -0.00000000000E+00 -0.00000000000E+00 -0.45593999997E+02  0.45594000000E+02  0.51100000000E-03 0. -1.
    9900012    2    1    2    0    0 -0.11520518677E+02  0.29418508661E+02  0.43066494181E+01  0.59301980625E+02  0.50000066744E+02 0.  0.
         12    1    1    2    0    0  0.11520518677E+02 -0.29418508661E+02 -0.43066494181E+01  0.31886019375E+02  0.00000000000E+00 0. -1.
         11    1    3    3    0    0  0.67998912652E+01 -0.95296463757E+01 -0.53923344963E+01  0.12889140889E+02  0.51100000000E-03 0. -1.
        -11    1    3    3    0    0 -0.66790435499E+01  0.25376908585E+01  0.19928629595E+01  0.74176142169E+01  0.51100000000E-03 0.  1.
        -12    1    3    3    0    0 -0.11641366392E+02  0.36410464178E+02  0.77061209549E+01  0.38995225519E+02  0.00000000000E+00 0.  1.
</event>
<event>
 7    1  0.3449603E-013  0.5930194E+02  0.7816164E-02  0.1266605E+00
        -11   -1    0    0    0    0  0.00000000000E+00  0.00000000000E+00  0.45593999997E+02  0.45594000000E+02  0.51100000000E-03 0.  1.
         11   -1    0    0    0    0 -0.00000000000E+00 -0.00000000000E+00 -0.45593999997E+02  0.45594000000E+02  0.51100000000E-03 0. -1.
    9900012    2    1    2    0    0 -0.14410877427E+01  0.31484484106E+02  0.48343792643E+01  0.59301941978E+02  0.49999996263E+02 0.  0.
         12    1    1    2    0    0  0.14410877427E+01 -0.31484484106E+02 -0.48343792643E+01  0.31886058022E+02  0.00000000000E+00 0. -1.
         11    1    3    3    0    0 -0.69395834871E+01  0.24740868279E+02 -0.99287530276E+01  0.27547205287E+02  0.51100000000E-03 0. -1.
        -11    1    3    3    0    0  0.23486700318E+01  0.10533943577E+02 -0.46310178924E+01  0.11744213264E+02  0.51100000000E-03 0.  1.
         12    1    3    3    0    0  0.31498257125E+01 -0.37903277507E+01  0.19394150184E+02  0.20010523428E+02  0.00000000000E+00 0. -1.
</event>
<event>
 7    1  0.3449603E-013  0.5930195E+02  0.7816164E-02  0.1266605E+00
        -11   -1    0    0    0    0  0.00000000000E+00  0.00000000000E+00  0.45593999997E+02  0.45594000000E+02  0.51100000000E-03 0.  1.
         11   -1    0    0    0    0 -0.00000000000E+00 -0.00000000000E+00 -0.45593999997E+02  0.45594000000E+02  0.51100000000E-03 0. -1.
    9900012    2    1    2    0    0 -0.21409282881E+02 -0.19432875406E+02  0.13443442743E+02  0.59301949871E+02  0.50000010656E+02 0.  0.
         12    1    1    2    0    0  0.21409282881E+02  0.19432875406E+02 -0.13443442743E+02  0.31886050129E+02  0.00000000000E+00 0. -1.
         11    1    3    3    0    0 -0.81816524439E+01 -0.20467369929E+02 -0.40686509039E+01  0.22414428143E+02  0.51100000000E-03 0. -1.
        -11    1    3    3    0    0 -0.19678816470E+02 -0.80228214125E+00  0.17682714742E+01  0.19774383899E+02  0.51100000000E-03 0.  1.
        -12    1    3    3    0    0  0.64511860328E+01  0.18367766641E+01  0.15743822173E+02  0.17113137829E+02  0.00000000000E+00 0.  1.
</event>
<event>
 7    1  0.3449603E-013  0.5930194E+02  0.7816164E-02  0.1266605E+00
        -11   -1    0    0    0    0  0.00000000000E+00  0.00000000000E+00  0.45593999997E+02  0.45594000000E+02  0.51100000000E-03 0. -1.
         11   -1    0    0    0    0 -0.00000000000E+00 -0.00000000000E+00 -0.45593999997E+02  0.45594000000E+02  0.51100000000E-03 0.  1.
    9900012    2    1    2    0    0 -0.31357340948E+02  0.50872677732E+01  0.27491018320E+01  0.59301942143E+02  0.49999996564E+02 0.  0.
         12    1    1    2    0    0  0.31357340948E+02 -0.50872677732E+01 -0.27491018320E+01  0.31886057857E+02  0.00000000000E+00 0. -1.
         11    1    3    3    0    0  0.40921596101E+01 -0.12889746808E+01  0.11630928577E+01  0.44452234207E+01  0.51100000000E-03 0. -1.
        -11    1    3    3    0    0  0.28983183862E+01 -0.11668171397E+02 -0.24973368337E+01  0.12279379656E+02  0.51100000000E-03 0.  1.
        -12    1    3    3    0    0 -0.38347818945E+02  0.18044413851E+02  0.40833458080E+01  0.42577339067E+02  0.00000000000E+00 0.  1.
</event>
<event>
 7    1  0.3449603E-013  0.5930197E+02  0.7816164E-02  0.1266605E+00
        -11   -1    0    0    0    0  0.00000000000E+00  0.00000000000E+00  0.45593999997E+02  0.45594000000E+02  0.51100000000E-03 0.  1.
         11   -1    0    0    0    0 -0.00000000000E+00 -0.00000000000E+00 -0.45593999997E+02  0.45594000000E+02  0.51100000000E-03 0. -1.
    9900012    2    1    2    0    0 -0.22208492480E+02 -0.14912488611E+02  0.17352795174E+02  0.59301969278E+02  0.50000046051E+02 0.  0.
         12    1    1    2    0    0  0.22208492480E+02  0.14912488611E+02 -0.17352795174E+02  0.31886030722E+02  0.00000000000E+00 0. -1.
         11    1    3    3    0    0  0.46441534763E+01  0.57232829377E+01  0.12267834427E+02  0.14311669744E+02  0.51100000000E-03 0. -1.
        -11    1    3    3    0    0  0.52600764113E+01  0.27353036956E+00  0.40706511162E+01  0.66568328420E+01  0.51100000000E-03 0.  1.
        -12    1    3    3    0    0 -0.32112722368E+02 -0.20909301918E+02  0.10143096311E+01  0.38333466692E+02  0.00000000000E+00 0.  1.
</event>
<event>
 7    1  0.3449603E-013  0.5930196E+02  0.7816164E-02  0.1266605E+00
        -11   -1    0    0    0    0  0.00000000000E+00  0.00000000000E+00  0.45593999997E+02  0.45594000000E+02  0.51100000000E-03 0. -1.
         11   -1    0    0    0    0 -0.00000000000E+00 -0.00000000000E+00 -0.45593999997E+02  0.45594000000E+02  0.51100000000E-03 0.  1.
    9900012    2    1    2    0    0  0.27214597963E+02 -0.15630615684E+02  0.56364127844E+01  0.59301958571E+02  0.50000026524E+02 0.  0.
         12    1    1    2    0    0 -0.27214597963E+02  0.15630615684E+02 -0.56364127844E+01  0.31886041429E+02  0.00000000000E+00 0. -1.
         11    1    3    3    0    0 -0.44801152117E+01 -0.29900827255E+01 -0.39659604942E+01  0.66888616310E+01  0.51100000000E-03 0. -1.
        -11    1    3    3    0    0  0.26799242077E+02 -0.25625874174E+02  0.28743573950E+01  0.37190680738E+02  0.51100000000E-03 0.  1.
         12    1    3    3    0    0  0.48954710978E+01  0.12985341216E+02  0.67280158836E+01  0.15422416202E+02  0.00000000000E+00 0. -1.
</event>
<event>
 7    1  0.3449603E-013  0.5930194E+02  0.7816164E-02  0.1266605E+00
        -11   -1    0    0    0    0  0.00000000000E+00  0.00000000000E+00  0.45593999997E+02  0.45594000000E+02  0.51100000000E-03 0.  1.
         11   -1    0    0    0    0 -0.00000000000E+00 -0.00000000000E+00 -0.45593999997E+02  0.45594000000E+02  0.51100000000E-03 0. -1.
    9900012    2    1    2    0    0 -0.20766978431E+02  0.23682382205E+02  0.49596720329E+01  0.59301937735E+02  0.49999988524E+02 0.  0.
         12    1    1    2    0    0  0.20766978431E+02 -0.23682382205E+02 -0.49596720329E+01  0.31886062265E+02  0.00000000000E+00 0. -1.
         11    1    3    3    0    0  0.40512139971E+01  0.15824908250E+02  0.11580089370E+02  0.20023449405E+02  0.51100000000E-03 0. -1.
        -11    1    3    3    0    0  0.22239803699E+01  0.11079470350E+02 -0.21798089621E+00  0.11302577929E+02  0.51100000000E-03 0.  1.
        -12    1    3    3    0    0 -0.27042172798E+02 -0.32219963948E+01 -0.64024364412E+01  0.27975910401E+02  0.00000000000E+00 0.  1.
</event>
<event>
 7    1  0.3449603E-013  0.5930196E+02  0.7816164E-02  0.1266605E+00
        -11   -1    0    0    0    0  0.00000000000E+00  0.00000000000E+00  0.45593999997E+02  0.45594000000E+02  0.51100000000E-03 0.  1.
         11   -1    0    0    0    0 -0.00000000000E+00 -0.00000000000E+00 -0.45593999997E+02  0.45594000000E+02  0.51100000000E-03 0. -1.
    9900012    2    1    2    0    0  0.23453408501E+02 -0.21548410912E+02 -0.15242250294E+01  0.59301958460E+02  0.50000026321E+02 0.  0.
         12    1    1    2    0    0 -0.23453408501E+02  0.21548410912E+02  0.15242250294E+01  0.31886041540E+02  0.00000000000E+00 0. -1.
         11    1    3    3    0    0  0.10919401927E+02 -0.10332889709E+02 -0.27654710516E+01  0.15285606909E+02  0.51100000000E-03 0. -1.
        -11    1    3    3    0    0  0.10960043454E+02 -0.18032381937E+02  0.16789730496E+02  0.26966356840E+02  0.51100000000E-03 0.  1.
        -12    1    3    3    0    0  0.15739631206E+01  0.68168607348E+01 -0.15548484474E+02  0.17049994710E+02  0.00000000000E+00 0.  1.
</event>
<event>
 7    1  0.3449603E-013  0.5930196E+02  0.7816164E-02  0.1266605E+00
        -11   -1    0    0    0    0  0.00000000000E+00  0.00000000000E+00  0.45593999997E+02  0.45594000000E+02  0.51100000000E-03 0.  1.
         11   -1    0    0    0    0 -0.00000000000E+00 -0.00000000000E+00 -0.45593999997E+02  0.45594000000E+02  0.51100000000E-03 0. -1.
    9900012    2    1    2    0    0  0.55824621609E+01 -0.34384507200E+01  0.31204694550E+02  0.59301956202E+02  0.50000022203E+02 0.  0.
         12    1    1    2    0    0 -0.55824621609E+01  0.34384507200E+01 -0.31204694550E+02  0.31886043798E+02  0.00000000000E+00 0. -1.
         11    1    3    3    0    0  0.18318335951E+01 -0.74328959912E+01 -0.61093285204E+01  0.97942560906E+01  0.51100000000E-03 0. -1.
        -11    1    3    3    0    0 -0.10850631230E+02 -0.33883747504E+01  0.34192269549E+01  0.11870484184E+02  0.51100000000E-03 0.  1.
         12    1    3    3    0    0  0.14601259795E+02  0.73828200217E+01  0.33894796115E+02  0.37637215928E+02  0.00000000000E+00 0. -1.
</event>
<event>
 7    1  0.3449603E-013  0.5930195E+02  0.7816164E-02  0.1266605E+00
        -11   -1    0    0    0    0  0.00000000000E+00  0.00000000000E+00  0.45593999997E+02  0.45594000000E+02  0.51100000000E-03 0.  1.
         11   -1    0    0    0    0 -0.00000000000E+00 -0.00000000000E+00 -0.45593999997E+02  0.45594000000E+02  0.51100000000E-03 0. -1.
    9900012    2    1    2    0    0  0.13944005712E+02  0.19302107365E+02  0.21206455055E+02  0.59301946936E+02  0.50000005303E+02 0.  0.
         12    1    1    2    0    0 -0.13944005712E+02 -0.19302107365E+02 -0.21206455055E+02  0.31886053064E+02  0.00000000000E+00 0. -1.
         11    1    3    3    0    0  0.90506494545E+01  0.13522500390E+01  0.12249785538E+02  0.15290522611E+02  0.51100000000E-03 0. -1.
        -11    1    3    3    0    0  0.18043350137E+02  0.99154081350E+01  0.16934943485E+02  0.26658396683E+02  0.51100000000E-03 0.  1.
         12    1    3    3    0    0 -0.13149993879E+02  0.80344491908E+01 -0.79782739676E+01  0.17353027641E+02  0.00000000000E+00 0. -1.
</event>
<event>
 7    1  0.3449603E-013  0.5930204E+02  0.7816164E-02  0.1266604E+00
        -11   -1    0    0    0    0  0.00000000000E+00  0.00000000000E+00  0.45593999997E+02  0.45594000000E+02  0.51100000000E-03 0.  1.
         11   -1    0    0    0    0 -0.00000000000E+00 -0.00000000000E+00 -0.45593999997E+02  0.45594000000E+02  0.51100000000E-03 0. -1.
    9900012    2    1    2    0    0 -0.68204385691E+01 -0.28903958422E+02  0.11608499021E+02  0.59302040014E+02  0.50000175055E+02 0.  0.
         12    1    1    2    0    0  0.68204385691E+01  0.28903958422E+02 -0.11608499021E+02  0.31885959986E+02  0.00000000000E+00 0. -1.
         11    1    3    3    0    0 -0.33807802944E+01 -0.81127815562E+01  0.20131842468E+02  0.21966747174E+02  0.51100000000E-03 0. -1.
        -11    1    3    3    0    0 -0.40133250581E+01 -0.54294894293E+01  0.10742521360E+02  0.12688100682E+02  0.51100000000E-03 0.  1.
         12    1    3    3    0    0  0.57366678334E+00 -0.15361687436E+02 -0.19265864808E+02  0.24647192157E+02  0.00000000000E+00 0. -1.
</event>
<event>
 7    1  0.3449603E-013  0.5930194E+02  0.7816164E-02  0.1266605E+00
        -11   -1    0    0    0    0  0.00000000000E+00  0.00000000000E+00  0.45593999997E+02  0.45594000000E+02  0.51100000000E-03 0. -1.
         11   -1    0    0    0    0 -0.00000000000E+00 -0.00000000000E+00 -0.45593999997E+02  0.45594000000E+02  0.51100000000E-03 0.  1.
    9900012    2    1    2    0    0  0.21966858407E+02 -0.69884082788E+01 -0.22030429782E+02  0.59301944193E+02  0.50000000302E+02 0.  0.
         12    1    1    2    0    0 -0.21966858407E+02  0.69884082788E+01  0.22030429782E+02  0.31886055807E+02  0.00000000000E+00 0. -1.
         11    1    3    3    0    0 -0.13454724387E+02 -0.47899358515E+01 -0.14084971647E+02  0.20058901275E+02  0.51100000000E-03 0. -1.
        -11    1    3    3    0    0  0.12366185763E+02 -0.10264348374E+01  0.42729538902E+01  0.13123804860E+02  0.51100000000E-03 0.  1.
        -12    1    3    3    0    0  0.23055397031E+02 -0.11720375900E+01 -0.12218412025E+02  0.26119238059E+02  0.00000000000E+00 0.  1.
</event>
<event>
 7    1  0.3449603E-013  0.5930225E+02  0.7816164E-02  0.1266604E+00
        -11   -1    0    0    0    0  0.00000000000E+00  0.00000000000E+00  0.45593999997E+02  0.45594000000E+02  0.51100000000E-03 0. -1.
         11   -1    0    0    0    0 -0.00000000000E+00 -0.00000000000E+00 -0.45593999997E+02  0.45594000000E+02  0.51100000000E-03 0.  1.
    9900012    2    1    2    0    0  0.26351021311E+02 -0.14682650719E+01  0.17893258557E+02  0.59302253526E+02  0.50000564447E+02 0.  0.
         12    1    1    2    0    0 -0.26351021311E+02  0.14682650719E+01 -0.17893258557E+02  0.31885746474E+02  0.00000000000E+00 0. -1.
         11    1    3    3    0    0 -0.37021095489E+01 -0.17596443105E+01  0.77831958388E+01  0.87965959858E+01  0.51100000000E-03 0. -1.
        -11    1    3    3    0    0 -0.10803816653E+01  0.15006590627E+02  0.28625380515E+01  0.15315322757E+02  0.51100000000E-03 0.  1.
        -12    1    3    3    0    0  0.31133512525E+02 -0.14715211388E+02  0.72475246666E+01  0.35190334783E+02  0.00000000000E+00 0.  1.
</event>
<event>
 7    1  0.3449603E-013  0.5930195E+02  0.7816164E-02  0.1266605E+00
        -11   -1    0    0    0    0  0.00000000000E+00  0.00000000000E+00  0.45593999997E+02  0.45594000000E+02  0.51100000000E-03 0. -1.
         11   -1    0    0    0    0 -0.00000000000E+00 -0.00000000000E+00 -0.45593999997E+02  0.45594000000E+02  0.51100000000E-03 0.  1.
    9900012    2    1    2    0    0 -0.20376839554E+01  0.16770614995E+02 -0.27042832262E+02  0.59301945682E+02  0.50000003017E+02 0.  0.
         12    1    1    2    0    0  0.20376839554E+01 -0.16770614995E+02  0.27042832262E+02  0.31886054318E+02  0.00000000000E+00 0. -1.
         11    1    3    3    0    0  0.12001075294E+02  0.67305729332E+01 -0.80126870694E+01  0.15922612052E+02  0.51100000000E-03 0. -1.
        -11    1    3    3    0    0 -0.53947262969E+01  0.22418751817E+02 -0.70704934722E+01  0.24118361948E+02  0.51100000000E-03 0.  1.
         12    1    3    3    0    0 -0.86440329524E+01 -0.12378709755E+02 -0.11959651721E+02  0.19260971682E+02  0.00000000000E+00 0. -1.
</event>
<event>
 7    1  0.3583469E-013  0.5930197E+02  0.7816164E-02  0.1266605E+00
        -11   -1    0    0    0    0  0.00000000000E+00  0.00000000000E+00  0.45593999997E+02  0.45594000000E+02  0.51100000000E-03 0. -1.
         11   -1    0    0    0    0 -0.00000000000E+00 -0.00000000000E+00 -0.45593999997E+02  0.45594000000E+02  0.51100000000E-03 0.  1.
    9900012    2    1    2    0    0  0.30108336006E+02  0.15210691869E+01  0.10387185146E+02  0.59301966007E+02  0.50000040085E+02 0.  0.
         12    1    1    2    0    0 -0.30108336006E+02 -0.15210691869E+01 -0.10387185146E+02  0.31886033993E+02  0.00000000000E+00 0. -1.
         11    1    3    3    0    0 -0.33927351421E+00 -0.68640523186E+01  0.58559757374E+01  0.90289962259E+01  0.51100000000E-03 0. -1.
        -11    1    3    3    0    0  0.26597066418E+02 -0.10724720175E+02 -0.40710072026E+01  0.28965439144E+02  0.51100000000E-03 0.  1.
         12    1    3    3    0    0  0.38505431020E+01  0.19109841680E+02  0.86022166115E+01  0.21307530637E+02  0.00000000000E+00 0. -1.
</event>
<event>
 7    1  0.3449603E-013  0.5930194E+02  0.7816164E-02  0.1266605E+00
        -11   -1    0    0    0    0  0.00000000000E+00  0.00000000000E+00  0.45593999997E+02  0.45594000000E+02  0.51100000000E-03 0.  1.
         11   -1    0    0    0    0 -0.00000000000E+00 -0.00000000000E+00 -0.45593999997E+02  0.45594000000E+02  0.51100000000E-03 0. -1.
    9900012    2    1    2    0    0 -0.96153411742E+01 -0.27839679023E+02  0.12215497849E+02  0.59301938755E+02  0.49999990384E+02 0.  0.
         12    1    1    2    0    0  0.96153411742E+01  0.27839679023E+02 -0.12215497849E+02  0.31886061245E+02  0.00000000000E+00 0. -1.
         11    1    3    3    0    0  0.63906889183E+01 -0.94629063379E+00 -0.95122540343E+01  0.11498667222E+02  0.51100000000E-03 0. -1.
        -11    1    3    3    0    0 -0.77098820584E+01 -0.23136106713E+02  0.15556632670E+00  0.24387413072E+02  0.51100000000E-03 0.  1.
        -12    1    3    3    0    0 -0.82961480341E+01 -0.37572816759E+01  0.21572185556E+02  0.23415858461E+02  0.00000000000E+00 0.  1.
</event>
<event>
 7    1  0.3449603E-013  0.5930196E+02  0.7816164E-02  0.1266605E+00
        -11   -1    0    0    0    0  0.00000000000E+00  0.00000000000E+00  0.45593999997E+02  0.45594000000E+02  0.51100000000E-03 0.  1.
         11   -1    0    0    0    0 -0.00000000000E+00 -0.00000000000E+00 -0.45593999997E+02  0.45594000000E+02  0.51100000000E-03 0. -1.
    9900012    2    1    2    0    0 -0.21377428264E+02 -0.16425468273E+02  0.17027309161E+02  0.59301957529E+02  0.50000024623E+02 0.  0.
         12    1    1    2    0    0  0.21377428264E+02  0.16425468273E+02 -0.17027309161E+02  0.31886042471E+02  0.00000000000E+00 0. -1.
         11    1    3    3    0    0 -0.23058957243E+02 -0.23851246701E+02  0.27165374510E+02  0.42878375096E+02  0.51100000000E-03 0. -1.
        -11    1    3    3    0    0  0.45810578095E+01 -0.36872156049E+00 -0.39013767988E+01  0.60284979415E+01  0.51100000000E-03 0.  1.
        -12    1    3    3    0    0 -0.28995288305E+01  0.77944999884E+01 -0.62366885507E+01  0.10395084491E+02  0.00000000000E+00 0.  1.
</event>
<event>
 7    1  0.3449603E-013  0.5930189E+02  0.7816164E-02  0.1266605E+00
        -11   -1    0    0    0    0  0.00000000000E+00  0.00000000000E+00  0.45593999997E+02  0.45594000000E+02  0.51100000000E-03 0.  1.
         11   -1    0    0    0    0 -0.00000000000E+00 -0.00000000000E+00 -0.45593999997E+02  0.45594000000E+02  0.51100000000E-03 0. -1.
    9900012    2    1    2    0    0  0.79468666766E+01  0.23937692667E+02  0.19507904112E+02  0.59301887929E+02  0.49999897689E+02 0.  0.
         12    1    1    2    0    0 -0.79468666766E+01 -0.23937692667E+02 -0.19507904112E+02  0.31886112071E+02  0.00000000000E+00 0. -1.
         11    1    3    3    0    0  0.81881835531E+01  0.83981773419E+01  0.24800440671E+02  0.27434241202E+02  0.51100000000E-03 0. -1.
        -11    1    3    3    0    0 -0.30508112696E+01  0.12383165576E+02  0.98704500727E+01  0.16126872728E+02  0.51100000000E-03 0.  1.
         12    1    3    3    0    0  0.28094943932E+01  0.31563497491E+01 -0.15162986632E+02  0.15740773999E+02  0.00000000000E+00 0. -1.
</event>
<event>
 7    1  0.3449603E-013  0.5930195E+02  0.7816164E-02  0.1266605E+00
        -11   -1    0    0    0    0  0.00000000000E+00  0.00000000000E+00  0.45593999997E+02  0.45594000000E+02  0.51100000000E-03 0. -1.
         11   -1    0    0    0    0 -0.00000000000E+00 -0.00000000000E+00 -0.45593999997E+02  0.45594000000E+02  0.51100000000E-03 0.  1.
    9900012    2    1    2    0    0  0.15488145454E+01  0.17135057584E+02 -0.26846068319E+02  0.59301946480E+02  0.50000004472E+02 0.  0.
         12    1    1    2    0    0 -0.15488145454E+01 -0.17135057584E+02  0.26846068319E+02  0.31886053520E+02  0.00000000000E+00 0. -1.
         11    1    3    3    0    0  0.29504357749E+01 -0.19350919618E+00  0.47805228614E+01  0.56210244760E+01  0.51100000000E-03 0. -1.
        -11    1    3    3    0    0  0.23098067142E+01 -0.84712937659E+01  0.39084411792E+01  0.96111361366E+01  0.51100000000E-03 0.  1.
        -12    1    3    3    0    0 -0.37114279437E+01  0.25799860546E+02 -0.35535032359E+02  0.44069785867E+02  0.00000000000E+00 0.  1.
</event>
<event>
 7    1  0.3449603E-013  0.5930185E+02  0.7816164E-02  0.1266605E+00
        -11   -1    0    0    0    0  0.00000000000E+00  0.00000000000E+00  0.45593999997E+02  0.45594000000E+02  0.51100000000E-03 0.  1.
         11   -1    0    0    0    0 -0.00000000000E+00 -0.00000000000E+00 -0.45593999997E+02  0.45594000000E+02  0.51100000000E-03 0. -1.
    9900012    2    1    2    0    0 -0.51633187688E+01 -0.31323861309E+02  0.29803690201E+01  0.59301847089E+02  0.49999823206E+02 0.  0.
         12    1    1    2    0    0  0.51633187688E+01  0.31323861309E+02 -0.29803690201E+01  0.31886152911E+02  0.00000000000E+00 0. -1.
         11    1    3    3    0    0 -0.10600354685E+02 -0.15121878081E+02 -0.24025793840E+01  0.18622865088E+02  0.51100000000E-03 0. -1.
        -11    1    3    3    0    0 -0.59428361749E+01 -0.67075294562E+00  0.17116559556E+02  0.18131294014E+02  0.51100000000E-03 0.  1.
         12    1    3    3    0    0  0.11379872091E+02 -0.15531230282E+02 -0.11733611152E+02  0.22547687986E+02  0.00000000000E+00 0. -1.
</event>
<event>
 7    1  0.3449603E-013  0.5930196E+02  0.7816164E-02  0.1266605E+00
        -11   -1    0    0    0    0  0.00000000000E+00  0.00000000000E+00  0.45593999997E+02  0.45594000000E+02  0.51100000000E-03 0. -1.
         11   -1    0    0    0    0 -0.00000000000E+00 -0.00000000000E+00 -0.45593999997E+02  0.45594000000E+02  0.51100000000E-03 0.  1.
    9900012    2    1    2    0    0  0.47116359969E+00  0.25820718463E+02 -0.18702619188E+02  0.59301961338E+02  0.50000031569E+02 0.  0.
         12    1    1    2    0    0 -0.47116359969E+00 -0.25820718463E+02  0.18702619188E+02  0.31886038662E+02  0.00000000000E+00 0. -1.
         11    1    3    3    0    0 -0.41797656892E+00 -0.65724312525E+01 -0.28844896525E+01  0.71897035960E+01  0.51100000000E-03 0. -1.
        -11    1    3    3    0    0 -0.11077742582E+02  0.80165038819E+01 -0.20413932469E+02  0.24570497641E+02  0.51100000000E-03 0.  1.
        -12    1    3    3    0    0  0.11966882751E+02  0.24376645833E+02  0.45958029334E+01  0.27541760101E+02  0.00000000000E+00 0.  1.
</event>
<event>
 7    1  0.3449603E-013  0.5930193E+02  0.7816164E-02  0.1266605E+00
        -11   -1    0    0    0    0  0.00000000000E+00  0.00000000000E+00  0.45593999997E+02  0.45594000000E+02  0.51100000000E-03 0.  1.
         11   -1    0    0    0    0 -0.00000000000E+00 -0.00000000000E+00 -0.45593999997E+02  0.45594000000E+02  0.51100000000E-03 0. -1.
    9900012    2    1    2    0    0 -0.26162267485E+02 -0.40296370192E+01  0.17776926511E+02  0.59301932029E+02  0.49999978117E+02 0.  0.
         12    1    1    2    0    0  0.26162267485E+02  0.40296370192E+01 -0.17776926511E+02  0.31886067971E+02  0.00000000000E+00 0. -1.
         11    1    3    3    0    0  0.12666377874E+01  0.26001342894E+01  0.16858975642E+01  0.33477336312E+01  0.51100000000E-03 0. -1.
        -11    1    3    3    0    0 -0.55474499619E+01  0.10073817862E+02  0.24587858943E+02  0.27144406700E+02  0.51100000000E-03 0.  1.
        -12    1    3    3    0    0 -0.21881455311E+02 -0.16703589171E+02 -0.84968299968E+01  0.28809791698E+02  0.00000000000E+00 0.  1.
</event>
<event>
 7    1  0.3449603E-013  0.5930191E+02  0.7816164E-02  0.1266605E+00
        -11   -1    0    0    0    0  0.00000000000E+00  0.00000000000E+00  0.45593999997E+02  0.45594000000E+02  0.51100000000E-03 0.  1.
         11   -1    0    0    0    0 -0.00000000000E+00 -0.00000000000E+00 -0.45593999997E+02  0.45594000000E+02  0.51100000000E-03 0. -1.
    9900012    2    1    2    0    0 -0.11152620477E+02 -0.78622839920E+01  0.28818850141E+02  0.59301912492E+02  0.49999942487E+02 0.  0.
         12    1    1    2    0    0  0.11152620477E+02  0.78622839920E+01 -0.28818850141E+02  0.31886087508E+02  0.00000000000E+00 0. -1.
         11    1    3    3    0    0  0.17928659429E+01 -0.44804511480E+01  0.11303019194E+02  0.12290120176E+02  0.51100000000E-03 0. -1.
        -11    1    3    3    0    0 -0.37471988266E+00 -0.54316500360E+01  0.29214630842E+02  0.29717636054E+02  0.51100000000E-03 0.  1.
         12    1    3    3    0    0 -0.12570766538E+02  0.20498171920E+01 -0.11698799895E+02  0.17294156263E+02  0.00000000000E+00 0. -1.
</event>
<event>
 7    1  0.3449603E-013  0.5930194E+02  0.7816164E-02  0.1266605E+00
        -11   -1    0    0    0    0  0.00000000000E+00  0.00000000000E+00  0.45593999997E+02  0.45594000000E+02  0.51100000000E-03 0. -1.
         11   -1    0    0    0    0 -0.00000000000E+00 -0.00000000000E+00 -0.45593999997E+02  0.45594000000E+02  0.51100000000E-03 0.  1.
    9900012    2    1    2    0    0 -0.73033428327E+01  0.20374213265E+02 -0.23415235499E+02  0.59301942919E+02  0.49999997977E+02 0.  0.
         12    1    1    2    0    0  0.73033428327E+01 -0.20374213265E+02  0.23415235499E+02  0.31886057081E+02  0.00000000000E+00 0. -1.
         11    1    3    3    0    0 -0.10274339131E+02 -0.68482080256E+01 -0.10678420886E+02  0.16324480716E+02  0.51100000000E-03 0. -1.
        -11    1    3    3    0    0  0.14233015784E+02  0.68535085466E+01 -0.11738612502E+02  0.19681065556E+02  0.51100000000E-03 0.  1.
         12    1    3    3    0    0 -0.11262019485E+02  0.20368912744E+02 -0.99820211097E+00  0.23296396647E+02  0.00000000000E+00 0. -1.
</event>
<event>
 7    1  0.3449603E-013  0.5930198E+02  0.7816164E-02  0.1266605E+00
        -11   -1    0    0    0    0  0.00000000000E+00  0.00000000000E+00  0.45593999997E+02  0.45594000000E+02  0.51100000000E-03 0. -1.
         11   -1    0    0    0    0 -0.00000000000E+00 -0.00000000000E+00 -0.45593999997E+02  0.45594000000E+02  0.51100000000E-03 0.  1.
    9900012    2    1    2    0    0 -0.42269207303E+01  0.63855025449E+01 -0.30952818468E+02  0.59301976844E+02  0.50000059848E+02 0.  0.
         12    1    1    2    0    0  0.42269207303E+01 -0.63855025449E+01  0.30952818468E+02  0.31886023156E+02  0.00000000000E+00 0. -1.
         11    1    3    3    0    0  0.24915935665E+01  0.17201967142E+01  0.68880462627E+01  0.75241143542E+01  0.51100000000E-03 0. -1.
        -11    1    3    3    0    0  0.29496567218E+01 -0.91843826630E+01  0.72684110805E+00  0.96737613127E+01  0.51100000000E-03 0.  1.
        -12    1    3    3    0    0 -0.96681710186E+01  0.13849688494E+02 -0.38567705839E+02  0.42104101177E+02  0.00000000000E+00 0.  1.
</event>
<event>
 7    1  0.3449603E-013  0.5930194E+02  0.7816164E-02  0.1266605E+00
        -11   -1    0    0    0    0  0.00000000000E+00  0.00000000000E+00  0.45593999997E+02  0.45594000000E+02  0.51100000000E-03 0. -1.
         11   -1    0    0    0    0 -0.00000000000E+00 -0.00000000000E+00 -0.45593999997E+02  0.45594000000E+02  0.51100000000E-03 0.  1.
    9900012    2    1    2    0    0  0.83113990960E+01  0.26547419474E+02 -0.15584468922E+02  0.59301944941E+02  0.50000001666E+02 0.  0.
         12    1    1    2    0    0 -0.83113990960E+01 -0.26547419474E+02  0.15584468922E+02  0.31886055059E+02  0.00000000000E+00 0. -1.
         11    1    3    3    0    0  0.46627462968E+01 -0.10631489622E+02 -0.31374462934E+01  0.12025528850E+02  0.51100000000E-03 0.  1.
        -11    1    3    3    0    0  0.63724744345E+01  0.18324278477E+02  0.64485656224E+01  0.20444354012E+02  0.51100000000E-03 0. -1.
        -12    1    3    3    0    0 -0.27238216353E+01  0.18854630619E+02 -0.18895588251E+02  0.26832062079E+02  0.00000000000E+00 0.  1.
</event>
<event>
 7    1  0.3449603E-013  0.5930193E+02  0.7816164E-02  0.1266605E+00
        -11   -1    0    0    0    0  0.00000000000E+00  0.00000000000E+00  0.45593999997E+02  0.45594000000E+02  0.51100000000E-03 0.  1.
         11   -1    0    0    0    0 -0.00000000000E+00 -0.00000000000E+00 -0.45593999997E+02  0.45594000000E+02  0.51100000000E-03 0. -1.
    9900012    2    1    2    0    0 -0.82551262848E+01 -0.30706789451E+02  0.23805957084E+01  0.59301933070E+02  0.49999980016E+02 0.  0.
         12    1    1    2    0    0  0.82551262848E+01  0.30706789451E+02 -0.23805957084E+01  0.31886066930E+02  0.00000000000E+00 0. -1.
         11    1    3    3    0    0 -0.16903652506E+02 -0.73832452744E+01  0.59213063028E+01  0.19372858525E+02  0.51100000000E-03 0. -1.
        -11    1    3    3    0    0  0.59622495758E+01 -0.11294009291E+02  0.13703898034E+02  0.18732321999E+02  0.51100000000E-03 0.  1.
        -12    1    3    3    0    0  0.26862766457E+01 -0.12029534885E+02 -0.17244608628E+02  0.21196752546E+02  0.00000000000E+00 0.  1.
</event>
<event>
 7    1  0.3449603E-013  0.5930192E+02  0.7816164E-02  0.1266605E+00
        -11   -1    0    0    0    0  0.00000000000E+00  0.00000000000E+00  0.45593999997E+02  0.45594000000E+02  0.51100000000E-03 0.  1.
         11   -1    0    0    0    0 -0.00000000000E+00 -0.00000000000E+00 -0.45593999997E+02  0.45594000000E+02  0.51100000000E-03 0. -1.
    9900012    2    1    2    0    0 -0.26202891138E+02  0.18018394933E+02  0.23383194866E+01  0.59301924701E+02  0.49999964752E+02 0.  0.
         12    1    1    2    0    0  0.26202891138E+02 -0.18018394933E+02 -0.23383194866E+01  0.31886075299E+02  0.00000000000E+00 0. -1.
         11    1    3    3    0    0 -0.52930825422E+01  0.29083252099E+01 -0.88359319395E+01  0.10702745995E+02  0.51100000000E-03 0. -1.
        -11    1    3    3    0    0 -0.30710391040E+02  0.97603928894E+01  0.16528929337E+02  0.36216003265E+02  0.51100000000E-03 0.  1.
         12    1    3    3    0    0  0.98005824442E+01  0.53496768338E+01 -0.53546779109E+01  0.12383175441E+02  0.00000000000E+00 0. -1.
</event>
<event>
 7    1  0.3449603E-013  0.5930194E+02  0.7816164E-02  0.1266605E+00
        -11   -1    0    0    0    0  0.00000000000E+00  0.00000000000E+00  0.45593999997E+02  0.45594000000E+02  0.51100000000E-03 0.  1.
         11   -1    0    0    0    0 -0.00000000000E+00 -0.00000000000E+00 -0.45593999997E+02  0.45594000000E+02  0.51100000000E-03 0. -1.
    9900012    2    1    2    0    0 -0.22808322643E+02 -0.11983534746E+02  0.18785537699E+02  0.59301935435E+02  0.49999984329E+02 0.  0.
         12    1    1    2    0    0  0.22808322643E+02  0.11983534746E+02 -0.18785537699E+02  0.31886064565E+02  0.00000000000E+00 0. -1.
         11    1    3    3    0    0 -0.49474125088E+01  0.61202271317E+00 -0.88867258491E+01  0.10189472946E+02  0.51100000000E-03 0. -1.
        -11    1    3    3    0    0  0.80402187626E+01 -0.12253663555E+02  0.93601677406E+01  0.17389943320E+02  0.51100000000E-03 0.  1.
        -12    1    3    3    0    0 -0.25901128897E+02 -0.34189390407E+00  0.18312095808E+02  0.31722519169E+02  0.00000000000E+00 0.  1.
</event>
<event>
 7    1  0.3449603E-013  0.5930195E+02  0.7816164E-02  0.1266605E+00
        -11   -1    0    0    0    0  0.00000000000E+00  0.00000000000E+00  0.45593999997E+02  0.45594000000E+02  0.51100000000E-03 0.  1.
         11   -1    0    0    0    0 -0.00000000000E+00 -0.00000000000E+00 -0.45593999997E+02  0.45594000000E+02  0.51100000000E-03 0. -1.
    9900012    2    1    2    0    0 -0.14347850343E+02  0.25182000051E+02  0.13293842941E+02  0.59301949818E+02  0.50000010560E+02 0.  0.
         12    1    1    2    0    0  0.14347850343E+02 -0.25182000051E+02 -0.13293842941E+02  0.31886050182E+02  0.00000000000E+00 0. -1.
         11    1    3    3    0    0  0.82137055330E+00 -0.48684653130E+01 -0.40362758840E+01  0.63771566833E+01  0.51100000000E-03 0. -1.
        -11    1    3    3    0    0  0.62839010368E+01  0.15314570324E+02 -0.63576612660E+01  0.17732550112E+02  0.51100000000E-03 0.  1.
        -12    1    3    3    0    0 -0.21453121933E+02  0.14735895041E+02  0.23687780091E+02  0.35192243023E+02  0.00000000000E+00 0.  1.
</event>
<event>
 7    1  0.3449603E-013  0.5930194E+02  0.7816164E-02  0.1266605E+00
        -11   -1    0    0    0    0  0.00000000000E+00  0.00000000000E+00  0.45593999997E+02  0.45594000000E+02  0.51100000000E-03 0.  1.
         11   -1    0    0    0    0 -0.00000000000E+00 -0.00000000000E+00 -0.45593999997E+02  0.45594000000E+02  0.51100000000E-03 0. -1.
    9900012    2    1    2    0    0  0.23928807252E+02 -0.11081283658E+02  0.17925900325E+02  0.59301944012E+02  0.49999999971E+02 0.  0.
         12    1    1    2    0    0 -0.23928807252E+02  0.11081283658E+02 -0.17925900325E+02  0.31886055988E+02  0.00000000000E+00 0. -1.
         11    1    3    3    0    0  0.27330090998E+02 -0.11562563855E+02  0.12908464988E+01  0.29703418016E+02  0.51100000000E-03 0. -1.
        -11    1    3    3    0    0  0.35124596355E+01 -0.26886331786E+01  0.20566445061E+02  0.21036748412E+02  0.51100000000E-03 0.  1.
         12    1    3    3    0    0 -0.69137433818E+01  0.31699133754E+01 -0.39313912343E+01  0.85617775838E+01  0.00000000000E+00 0. -1.
</event>
<event>
 7    1  0.3449603E-013  0.5930194E+02  0.7816164E-02  0.1266605E+00
        -11   -1    0    0    0    0  0.00000000000E+00  0.00000000000E+00  0.45593999997E+02  0.45594000000E+02  0.51100000000E-03 0. -1.
         11   -1    0    0    0    0 -0.00000000000E+00 -0.00000000000E+00 -0.45593999997E+02  0.45594000000E+02  0.51100000000E-03 0.  1.
    9900012    2    1    2    0    0 -0.20800712920E+02 -0.23186976087E+01 -0.24055660930E+02  0.59301939733E+02  0.49999992168E+02 0.  0.
         12    1    1    2    0    0  0.20800712920E+02  0.23186976087E+01  0.24055660930E+02  0.31886060267E+02  0.00000000000E+00 0. -1.
         11    1    3    3    0    0 -0.93947998290E+01 -0.48172584158E+01 -0.27116245237E+02  0.29099123673E+02  0.51100000000E-03 0.  1.
        -11    1    3    3    0    0 -0.99156383180E+01  0.87637545232E+01 -0.93619843765E+01  0.16210182859E+02  0.51100000000E-03 0. -1.
        -12    1    3    3    0    0 -0.14902747728E+01 -0.62651937160E+01  0.12422568684E+02  0.13992633201E+02  0.00000000000E+00 0.  1.
</event>
<event>
 7    1  0.4074471E-013  0.5930194E+02  0.7816164E-02  0.1266605E+00
        -11   -1    0    0    0    0  0.00000000000E+00  0.00000000000E+00  0.45593999997E+02  0.45594000000E+02  0.51100000000E-03 0.  1.
         11   -1    0    0    0    0 -0.00000000000E+00 -0.00000000000E+00 -0.45593999997E+02  0.45594000000E+02  0.51100000000E-03 0. -1.
    9900012    2    1    2    0    0  0.20508044570E+01 -0.31808336171E+02 -0.86288586069E+00  0.59301943158E+02  0.49999998414E+02 0.  0.
         12    1    1    2    0    0 -0.20508044570E+01  0.31808336171E+02  0.86288586069E+00  0.31886056842E+02  0.00000000000E+00 0. -1.
         11    1    3    3    0    0 -0.95889747918E+01 -0.39204037417E+01  0.38721312106E+01  0.11059448604E+02  0.51100000000E-03 0. -1.
        -11    1    3    3    0    0 -0.34923472515E+01 -0.32028641063E+02 -0.46610811549E+01  0.32553894013E+02  0.51100000000E-03 0.  1.
         12    1    3    3    0    0  0.15132126500E+02  0.41407086328E+01 -0.73935916379E-01  0.15688600541E+02  0.00000000000E+00 0. -1.
</event>
<event>
 7    1  0.5442977E-013  0.5930202E+02  0.7816164E-02  0.1266604E+00
        -11   -1    0    0    0    0  0.00000000000E+00  0.00000000000E+00  0.45593999997E+02  0.45594000000E+02  0.51100000000E-03 0. -1.
         11   -1    0    0    0    0 -0.00000000000E+00 -0.00000000000E+00 -0.45593999997E+02  0.45594000000E+02  0.51100000000E-03 0.  1.
    9900012    2    1    2    0    0  0.24885655101E+02 -0.92978471526E+01 -0.17634336308E+02  0.59302021757E+02  0.50000141760E+02 0.  0.
         12    1    1    2    0    0 -0.24885655101E+02  0.92978471526E+01  0.17634336308E+02  0.31885978243E+02  0.00000000000E+00 0. -1.
         11    1    3    3    0    0  0.18411587739E+02  0.69186583391E+01 -0.16580068218E+02  0.25724561389E+02  0.51100000000E-03 0. -1.
        -11    1    3    3    0    0  0.91100015924E+01 -0.29463088317E+01 -0.12576571812E+02  0.15806423490E+02  0.51100000000E-03 0.  1.
         12    1    3    3    0    0 -0.26359342303E+01 -0.13270196660E+02  0.11522303722E+02  0.17771036878E+02  0.00000000000E+00 0. -1.
</event>
<event>
 7    1  0.3449603E-013  0.5930194E+02  0.7816164E-02  0.1266605E+00
        -11   -1    0    0    0    0  0.00000000000E+00  0.00000000000E+00  0.45593999997E+02  0.45594000000E+02  0.51100000000E-03 0.  1.
         11   -1    0    0    0    0 -0.00000000000E+00 -0.00000000000E+00 -0.45593999997E+02  0.45594000000E+02  0.51100000000E-03 0. -1.
    9900012    2    1    2    0    0 -0.16279102596E+02  0.16777777997E+02  0.21684511701E+02  0.59301936217E+02  0.49999985754E+02 0.  0.
         12    1    1    2    0    0  0.16279102596E+02 -0.16777777997E+02 -0.21684511701E+02  0.31886063783E+02  0.00000000000E+00 0. -1.
         11    1    3    3    0    0 -0.63266066624E+01  0.14753583809E+02  0.28217427579E+02  0.32464094112E+02  0.51100000000E-03 0. -1.
        -11    1    3    3    0    0  0.41689154902E+01  0.92652055032E+01 -0.24360664831E+01  0.10447885411E+02  0.51100000000E-03 0.  1.
         12    1    3    3    0    0 -0.14121411424E+02 -0.72410113149E+01 -0.40968493943E+01  0.16389956694E+02  0.00000000000E+00 0. -1.
</event>
<event>
 7    1  0.3449603E-013  0.5930194E+02  0.7816164E-02  0.1266605E+00
        -11   -1    0    0    0    0  0.00000000000E+00  0.00000000000E+00  0.45593999997E+02  0.45594000000E+02  0.51100000000E-03 0.  1.
         11   -1    0    0    0    0 -0.00000000000E+00 -0.00000000000E+00 -0.45593999997E+02  0.45594000000E+02  0.51100000000E-03 0. -1.
    9900012    2    1    2    0    0 -0.26328767132E+02 -0.17232917015E+02 -0.51520579990E+01  0.59301935502E+02  0.49999984451E+02 0.  0.
         12    1    1    2    0    0  0.26328767132E+02  0.17232917015E+02  0.51520579990E+01  0.31886064498E+02  0.00000000000E+00 0. -1.
         11    1    3    3    0    0 -0.17885423153E+02 -0.12727473470E+02  0.11532817676E+02  0.24796830969E+02  0.51100000000E-03 0. -1.
        -11    1    3    3    0    0  0.26669502360E+01 -0.86781870992E+01  0.45679107825E+01  0.10163137511E+02  0.51100000000E-03 0.  1.
        -12    1    3    3    0    0 -0.11110294215E+02  0.41727435544E+01 -0.21252786457E+02  0.24341967022E+02  0.00000000000E+00 0.  1.
</event>
<event>
 7    1  0.3449603E-013  0.5930205E+02  0.7816164E-02  0.1266604E+00
        -11   -1    0    0    0    0  0.00000000000E+00  0.00000000000E+00  0.45593999997E+02  0.45594000000E+02  0.51100000000E-03 0.  1.
         11   -1    0    0    0    0 -0.00000000000E+00 -0.00000000000E+00 -0.45593999997E+02  0.45594000000E+02  0.51100000000E-03 0. -1.
    9900012    2    1    2    0    0 -0.83498116060E+01 -0.10942399683E+02  0.28762094456E+02  0.59302054159E+02  0.50000200852E+02 0.  0.
         12    1    1    2    0    0  0.83498116060E+01  0.10942399683E+02 -0.28762094456E+02  0.31885945841E+02  0.00000000000E+00 0. -1.
         11    1    3    3    0    0 -0.13973098473E+02 -0.59185619750E+01  0.30223038651E+00  0.15177885237E+02  0.51100000000E-03 0.  1.
        -11    1    3    3    0    0 -0.43595692292E+01 -0.17108497384E+02  0.18392640227E+02  0.25495014050E+02  0.51100000000E-03 0. -1.
         12    1    3    3    0    0  0.99828560966E+01  0.12084659676E+02  0.10067223843E+02  0.18629154872E+02  0.00000000000E+00 0. -1.
</event>
<event>
 7    1  0.3449603E-013  0.5930192E+02  0.7816164E-02  0.1266605E+00
        -11   -1    0    0    0    0  0.00000000000E+00  0.00000000000E+00  0.45593999997E+02  0.45594000000E+02  0.51100000000E-03 0. -1.
         11   -1    0    0    0    0 -0.00000000000E+00 -0.00000000000E+00 -0.45593999997E+02  0.45594000000E+02  0.51100000000E-03 0.  1.
    9900012    2    1    2    0    0 -0.19682570988E+02  0.64595189607E+01 -0.24240318163E+02  0.59301921368E+02  0.49999958674E+02 0.  0.
         12    1    1    2    0    0  0.19682570988E+02 -0.64595189607E+01  0.24240318163E+02  0.31886078632E+02  0.00000000000E+00 0. -1.
         11    1    3    3    0    0 -0.65522600434E+01  0.67262750184E+01  0.38902232209E+00  0.93982033351E+01  0.51100000000E-03 0. -1.
        -11    1    3    3    0    0 -0.84082673878E+01  0.16948407327E+02  0.68080700704E+00  0.18931745029E+02  0.51100000000E-03 0.  1.
        -12    1    3    3    0    0 -0.47220435566E+01 -0.17215163385E+02 -0.25310147492E+02  0.30971973004E+02  0.00000000000E+00 0.  1.
</event>
<event>
 7    1  0.3449603E-013  0.5930194E+02  0.7816164E-02  0.1266605E+00
        -11   -1    0    0    0    0  0.00000000000E+00  0.00000000000E+00  0.45593999997E+02  0.45594000000E+02  0.51100000000E-03 0.  1.
         11   -1    0    0    0    0 -0.00000000000E+00 -0.00000000000E+00 -0.45593999997E+02  0.45594000000E+02  0.51100000000E-03 0. -1.
    9900012    2    1    2    0    0  0.85899211517E+01  0.24306415784E+02  0.18765190378E+02  0.59301937785E+02  0.49999988615E+02 0.  0.
         12    1    1    2    0    0 -0.85899211517E+01 -0.24306415784E+02 -0.18765190378E+02  0.31886062215E+02  0.00000000000E+00 0. -1.
         11    1    3    3    0    0  0.88542275464E+01  0.23180837101E+01 -0.52578225852E+01  0.10555356750E+02  0.51100000000E-03 0. -1.
        -11    1    3    3    0    0  0.17839108125E+02  0.11784010968E+02  0.14848180633E+02  0.26030081858E+02  0.51100000000E-03 0.  1.
         12    1    3    3    0    0 -0.18103414520E+02  0.10204321106E+02  0.91748323304E+01  0.22716499176E+02  0.00000000000E+00 0. -1.
</event>
<event>
 7    1  0.3449603E-013  0.5930198E+02  0.7816164E-02  0.1266605E+00
        -11   -1    0    0    0    0  0.00000000000E+00  0.00000000000E+00  0.45593999997E+02  0.45594000000E+02  0.51100000000E-03 0.  1.
         11   -1    0    0    0    0 -0.00000000000E+00 -0.00000000000E+00 -0.45593999997E+02  0.45594000000E+02  0.51100000000E-03 0. -1.
    9900012    2    1    2    0    0  0.68372416037E+01 -0.79391721462E+01  0.30115445017E+02  0.59301978679E+02  0.50000063196E+02 0.  0.
         12    1    1    2    0    0 -0.68372416037E+01  0.79391721462E+01 -0.30115445017E+02  0.31886021321E+02  0.00000000000E+00 0. -1.
         11    1    3    3    0    0 -0.39037323484E+01  0.56314812900E+01  0.18810281138E+02  0.20019475131E+02  0.51100000000E-03 0. -1.
        -11    1    3    3    0    0  0.21035923067E+01  0.57386836837E+01  0.16419232589E+02  0.17519954055E+02  0.51100000000E-03 0.  1.
         12    1    3    3    0    0  0.86373816454E+01 -0.19309337120E+02 -0.51140687098E+01  0.21762549494E+02  0.00000000000E+00 0. -1.
</event>
<event>
 7    1  0.3449603E-013  0.5930194E+02  0.7816164E-02  0.1266605E+00
        -11   -1    0    0    0    0  0.00000000000E+00  0.00000000000E+00  0.45593999997E+02  0.45594000000E+02  0.51100000000E-03 0.  1.
         11   -1    0    0    0    0 -0.00000000000E+00 -0.00000000000E+00 -0.45593999997E+02  0.45594000000E+02  0.51100000000E-03 0. -1.
    9900012    2    1    2    0    0  0.13604510332E+02 -0.25864802766E+02  0.12753441086E+02  0.59301937480E+02  0.49999988058E+02 0.  0.
         12    1    1    2    0    0 -0.13604510332E+02  0.25864802766E+02 -0.12753441086E+02  0.31886062520E+02  0.00000000000E+00 0. -1.
         11    1    3    3    0    0 -0.13595181416E+02 -0.16164008896E+01  0.18897812315E+01  0.13820744659E+02  0.51100000000E-03 0. -1.
        -11    1    3    3    0    0  0.10072786039E+02 -0.24464997481E+02  0.10151439170E+02  0.28338116343E+02  0.51100000000E-03 0.  1.
        -12    1    3    3    0    0  0.17126905709E+02  0.21659560484E+00  0.71222068435E+00  0.17143076478E+02  0.00000000000E+00 0.  1.
</event>
<event>
 7    1  0.3449603E-013  0.5930207E+02  0.7816164E-02  0.1266604E+00
        -11   -1    0    0    0    0  0.00000000000E+00  0.00000000000E+00  0.45593999997E+02  0.45594000000E+02  0.51100000000E-03 0.  1.
         11   -1    0    0    0    0 -0.00000000000E+00 -0.00000000000E+00 -0.45593999997E+02  0.45594000000E+02  0.51100000000E-03 0. -1.
    9900012    2    1    2    0    0  0.13701339610E+02  0.59526131426E+01  0.28170056257E+02  0.59302072385E+02  0.50000234092E+02 0.  0.
         12    1    1    2    0    0 -0.13701339610E+02 -0.59526131426E+01 -0.28170056257E+02  0.31885927615E+02  0.00000000000E+00 0. -1.
         11    1    3    3    0    0  0.18034656134E+01  0.93487342858E+01  0.19266612792E+01  0.97140797254E+01  0.51100000000E-03 0. -1.
        -11    1    3    3    0    0  0.12369015580E+02  0.12127846796E+01  0.36379180357E+02  0.38443571072E+02  0.51100000000E-03 0.  1.
         12    1    3    3    0    0 -0.47114158338E+00 -0.46089058228E+01 -0.10135785379E+02  0.11144421587E+02  0.00000000000E+00 0. -1.
</event>
<event>
 7    1  0.3449603E-013  0.5930194E+02  0.7816164E-02  0.1266605E+00
        -11   -1    0    0    0    0  0.00000000000E+00  0.00000000000E+00  0.45593999997E+02  0.45594000000E+02  0.51100000000E-03 0. -1.
         11   -1    0    0    0    0 -0.00000000000E+00 -0.00000000000E+00 -0.45593999997E+02  0.45594000000E+02  0.51100000000E-03 0.  1.
    9900012    2    1    2    0    0  0.48134708791E+01  0.23136592811E+02 -0.21406763295E+02  0.59301938099E+02  0.49999989187E+02 0.  0.
         12    1    1    2    0    0 -0.48134708791E+01 -0.23136592811E+02  0.21406763295E+02  0.31886061901E+02  0.00000000000E+00 0. -1.
         11    1    3    3    0    0 -0.51464136970E+01  0.93391268864E+01 -0.59631784014E+01  0.12217379500E+02  0.51100000000E-03 0. -1.
        -11    1    3    3    0    0  0.15641308080E+02  0.25192159254E+02 -0.39187056280E+01  0.29910728182E+02  0.51100000000E-03 0.  1.
        -12    1    3    3    0    0 -0.56814235041E+01 -0.11394693329E+02 -0.11524879266E+02  0.17173830416E+02  0.00000000000E+00 0.  1.
</event>
<event>
 7    1  0.3449603E-013  0.5930194E+02  0.7816164E-02  0.1266605E+00
        -11   -1    0    0    0    0  0.00000000000E+00  0.00000000000E+00  0.45593999997E+02  0.45594000000E+02  0.51100000000E-03 0. -1.
         11   -1    0    0    0    0 -0.00000000000E+00 -0.00000000000E+00 -0.45593999997E+02  0.45594000000E+02  0.51100000000E-03 0.  1.
    9900012    2    1    2    0    0 -0.30653808612E+02  0.85657320988E+01  0.19217922705E+01  0.59301936676E+02  0.49999986592E+02 0.  0.
         12    1    1    2    0    0  0.30653808612E+02 -0.85657320988E+01 -0.19217922705E+01  0.31886063324E+02  0.00000000000E+00 0. -1.
         11    1    3    3    0    0 -0.12965737766E+02  0.85152510360E+01 -0.21063490702E+02  0.26158946784E+02  0.51100000000E-03 0. -1.
        -11    1    3    3    0    0  0.14059058680E+01 -0.39162393942E+01  0.24755281482E+01  0.48416672930E+01  0.51100000000E-03 0.  1.
         12    1    3    3    0    0 -0.19093976713E+02  0.39667204570E+01  0.20509754824E+02  0.28301322599E+02  0.00000000000E+00 0. -1.
</event>
<event>
 7    1  0.3449603E-013  0.5930193E+02  0.7816164E-02  0.1266605E+00
        -11   -1    0    0    0    0  0.00000000000E+00  0.00000000000E+00  0.45593999997E+02  0.45594000000E+02  0.51100000000E-03 0.  1.
         11   -1    0    0    0    0 -0.00000000000E+00 -0.00000000000E+00 -0.45593999997E+02  0.45594000000E+02  0.51100000000E-03 0. -1.
    9900012    2    1    2    0    0 -0.12322969094E+02  0.19602148371E+02  0.21923085101E+02  0.59301930183E+02  0.49999974750E+02 0.  0.
         12    1    1    2    0    0  0.12322969094E+02 -0.19602148371E+02 -0.21923085101E+02  0.31886069817E+02  0.00000000000E+00 0. -1.
         11    1    3    3    0    0  0.60735013727E+01  0.29950679944E+01 -0.25435806334E+01  0.72337855867E+01  0.51100000000E-03 0. -1.
        -11    1    3    3    0    0 -0.16123068161E+02 -0.93128274239E+01  0.42002509399E+01  0.19087278218E+02  0.51100000000E-03 0.  1.
        -12    1    3    3    0    0 -0.22734023057E+01  0.25919907800E+02  0.20266414795E+02  0.32980866378E+02  0.00000000000E+00 0.  1.
</event>
<event>
 7    1  0.3449603E-013  0.5930194E+02  0.7816164E-02  0.1266605E+00
        -11   -1    0    0    0    0  0.00000000000E+00  0.00000000000E+00  0.45593999997E+02  0.45594000000E+02  0.51100000000E-03 0. -1.
         11   -1    0    0    0    0 -0.00000000000E+00 -0.00000000000E+00 -0.45593999997E+02  0.45594000000E+02  0.51100000000E-03 0.  1.
    9900012    2    1    2    0    0 -0.27491600709E+02  0.15533043081E+02 -0.44336203437E+01  0.59301944643E+02  0.50000001122E+02 0.  0.
         12    1    1    2    0    0  0.27491600709E+02 -0.15533043081E+02  0.44336203437E+01  0.31886055357E+02  0.00000000000E+00 0. -1.
         11    1    3    3    0    0  0.74186708807E+01  0.17417898094E+01  0.45153392052E+00  0.76337666011E+01  0.51100000000E-03 0. -1.
        -11    1    3    3    0    0 -0.12292846532E+02  0.17450979608E+02  0.10779632799E+02  0.23913411481E+02  0.51100000000E-03 0.  1.
        -12    1    3    3    0    0 -0.22617425058E+02 -0.36597263366E+01 -0.15664787063E+02  0.27754766561E+02  0.00000000000E+00 0.  1.
</event>
<event>
 7    1  0.5050668E-013  0.5930195E+02  0.7816164E-02  0.1266605E+00
        -11   -1    0    0    0    0  0.00000000000E+00  0.00000000000E+00  0.45593999997E+02  0.45594000000E+02  0.51100000000E-03 0. -1.
         11   -1    0    0    0    0 -0.00000000000E+00 -0.00000000000E+00 -0.45593999997E+02  0.45594000000E+02  0.51100000000E-03 0.  1.
    9900012    2    1    2    0    0 -0.25168338922E+02 -0.35777176920E+01 -0.19247715182E+02  0.59301954656E+02  0.50000019384E+02 0.  0.
         12    1    1    2    0    0  0.25168338922E+02  0.35777176920E+01  0.19247715182E+02  0.31886045344E+02  0.00000000000E+00 0. -1.
         11    1    3    3    0    0  0.27851206937E+01  0.43535164662E-01 -0.11638916423E+02  0.11967588243E+02  0.51100000000E-03 0. -1.
        -11    1    3    3    0    0 -0.13368048770E+02 -0.62526828570E+01 -0.22120673977E+02  0.26591821831E+02  0.51100000000E-03 0.  1.
         12    1    3    3    0    0 -0.14585410845E+02  0.26314300003E+01  0.14511875219E+02  0.20742544582E+02  0.00000000000E+00 0. -1.
</event>
<event>
 7    1  0.3449603E-013  0.5930193E+02  0.7816164E-02  0.1266605E+00
        -11   -1    0    0    0    0  0.00000000000E+00  0.00000000000E+00  0.45593999997E+02  0.45594000000E+02  0.51100000000E-03 0. -1.
         11   -1    0    0    0    0 -0.00000000000E+00 -0.00000000000E+00 -0.45593999997E+02  0.45594000000E+02  0.51100000000E-03 0.  1.
    9900012    2    1    2    0    0 -0.16782089655E+02  0.23186542442E+02 -0.14052297869E+02  0.59301931585E+02  0.49999977308E+02 0.  0.
         12    1    1    2    0    0  0.16782089655E+02 -0.23186542442E+02  0.14052297869E+02  0.31886068415E+02  0.00000000000E+00 0. -1.
         11    1    3    3    0    0 -0.56822206080E+01  0.51780984097E-01  0.87385157508E+01  0.10423625573E+02  0.51100000000E-03 0. -1.
        -11    1    3    3    0    0 -0.85572629981E+01  0.22668285117E+02  0.16644532143E+01  0.24286792809E+02  0.51100000000E-03 0.  1.
        -12    1    3    3    0    0 -0.25426060485E+01  0.46647634043E+00 -0.24455266834E+02  0.24591513203E+02  0.00000000000E+00 0.  1.
</event>
<event>
 7    1  0.3449603E-013  0.5930194E+02  0.7816164E-02  0.1266605E+00
        -11   -1    0    0    0    0  0.00000000000E+00  0.00000000000E+00  0.45593999997E+02  0.45594000000E+02  0.51100000000E-03 0. -1.
         11   -1    0    0    0    0 -0.00000000000E+00 -0.00000000000E+00 -0.45593999997E+02  0.45594000000E+02  0.51100000000E-03 0.  1.
    9900012    2    1    2    0    0 -0.12546679163E+02  0.90354311270E+00 -0.29299916578E+02  0.59301942551E+02  0.49999997307E+02 0.  0.
         12    1    1    2    0    0  0.12546679163E+02 -0.90354311270E+00  0.29299916578E+02  0.31886057449E+02  0.00000000000E+00 0. -1.
         11    1    3    3    0    0 -0.20611025019E+02 -0.46936777916E+01  0.39682074637E+01  0.21507943516E+02  0.51100000000E-03 0. -1.
        -11    1    3    3    0    0 -0.37470009640E+01 -0.43309783945E+00 -0.13289789038E+02  0.13814705314E+02  0.51100000000E-03 0.  1.
        -12    1    3    3    0    0  0.11811346821E+02  0.60303187438E+01 -0.19978335003E+02  0.23979293721E+02  0.00000000000E+00 0.  1.
</event>
<event>
 7    1  0.3449603E-013  0.5930203E+02  0.7816164E-02  0.1266604E+00
        -11   -1    0    0    0    0  0.00000000000E+00  0.00000000000E+00  0.45593999997E+02  0.45594000000E+02  0.51100000000E-03 0. -1.
         11   -1    0    0    0    0 -0.00000000000E+00 -0.00000000000E+00 -0.45593999997E+02  0.45594000000E+02  0.51100000000E-03 0.  1.
    9900012    2    1    2    0    0  0.46105117135E+01 -0.31450279584E+02  0.25175961471E+01  0.59302028249E+02  0.50000153599E+02 0.  0.
         12    1    1    2    0    0 -0.46105117135E+01  0.31450279584E+02 -0.25175961471E+01  0.31885971751E+02  0.00000000000E+00 0. -1.
         11    1    3    3    0    0 -0.10345909471E+02  0.39262866927E+01  0.74653624827E+01  0.13348603194E+02  0.51100000000E-03 0. -1.
        -11    1    3    3    0    0  0.15951971363E+02 -0.72395369795E+01 -0.24466021505E+01  0.17687909667E+02  0.51100000000E-03 0.  1.
        -12    1    3    3    0    0 -0.99555017820E+00 -0.28137029297E+02 -0.25011641852E+01  0.28265515387E+02  0.00000000000E+00 0.  1.
</event>
<event>
 7    1  0.3449603E-013  0.5930195E+02  0.7816164E-02  0.1266605E+00
        -11   -1    0    0    0    0  0.00000000000E+00  0.00000000000E+00  0.45593999997E+02  0.45594000000E+02  0.51100000000E-03 0.  1.
         11   -1    0    0    0    0 -0.00000000000E+00 -0.00000000000E+00 -0.45593999997E+02  0.45594000000E+02  0.51100000000E-03 0. -1.
    9900012    2    1    2    0    0  0.68098888169E+01  0.27639357265E+02 -0.14367032862E+02  0.59301948363E+02  0.50000007907E+02 0.  0.
         12    1    1    2    0    0 -0.68098888169E+01 -0.27639357265E+02  0.14367032862E+02  0.31886051637E+02  0.00000000000E+00 0. -1.
         11    1    3    3    0    0  0.14541192813E+02 -0.47468060235E+01  0.38750416533E+01  0.15779556518E+02  0.51100000000E-03 0.  1.
        -11    1    3    3    0    0 -0.17954723625E+01  0.30581726549E+02 -0.81905921301E+01  0.31710432343E+02  0.51100000000E-03 0. -1.
        -12    1    3    3    0    0 -0.59358316332E+01  0.18044367402E+01 -0.10051482385E+02  0.11811959502E+02  0.00000000000E+00 0.  1.
</event>
<event>
 7    1  0.3449603E-013  0.5930196E+02  0.7816164E-02  0.1266605E+00
        -11   -1    0    0    0    0  0.00000000000E+00  0.00000000000E+00  0.45593999997E+02  0.45594000000E+02  0.51100000000E-03 0.  1.
         11   -1    0    0    0    0 -0.00000000000E+00 -0.00000000000E+00 -0.45593999997E+02  0.45594000000E+02  0.51100000000E-03 0. -1.
    9900012    2    1    2    0    0 -0.85037206416E+01 -0.30124102777E+02 -0.60782243887E+01  0.59301958468E+02  0.50000026336E+02 0.  0.
         12    1    1    2    0    0  0.85037206416E+01  0.30124102777E+02  0.60782243887E+01  0.31886041532E+02  0.00000000000E+00 0. -1.
         11    1    3    3    0    0  0.13959919557E+01  0.19073548443E+01  0.17335831216E+01  0.29312295617E+01  0.51100000000E-03 0. -1.
        -11    1    3    3    0    0  0.13553800068E+02 -0.92190951229E+01  0.99166760968E+01  0.19158227377E+02  0.51100000000E-03 0.  1.
         12    1    3    3    0    0 -0.23453512665E+02 -0.22812362498E+02 -0.17728483607E+02  0.37212501529E+02  0.00000000000E+00 0. -1.
</event>
<event>
 7    1  0.3449603E-013  0.5930193E+02  0.7816164E-02  0.1266605E+00
        -11   -1    0    0    0    0  0.00000000000E+00  0.00000000000E+00  0.45593999997E+02  0.45594000000E+02  0.51100000000E-03 0. -1.
         11   -1    0    0    0    0 -0.00000000000E+00 -0.00000000000E+00 -0.45593999997E+02  0.45594000000E+02  0.51100000000E-03 0.  1.
    9900012    2    1    2    0    0  0.25649155252E+02  0.48961949350E+01 -0.18299434048E+02  0.59301934447E+02  0.49999982527E+02 0.  0.
         12    1    1    2    0    0 -0.25649155252E+02 -0.48961949350E+01  0.18299434048E+02  0.31886065553E+02  0.00000000000E+00 0. -1.
         11    1    3    3    0    0  0.13160360937E+02 -0.10942220466E+02  0.17551159848E+01  0.17204874923E+02  0.51100000000E-03 0. -1.
        -11    1    3    3    0    0  0.17809615701E+02 -0.19366690362E+01 -0.13452186445E+02  0.22403000219E+02  0.51100000000E-03 0.  1.
        -12    1    3    3    0    0 -0.53208213867E+01  0.17775084437E+02 -0.66023635872E+01  0.19694059305E+02  0.00000000000E+00 0.  1.
</event>
<event>
 7    1  0.3449603E-013  0.5930192E+02  0.7816164E-02  0.1266605E+00
        -11   -1    0    0    0    0  0.00000000000E+00  0.00000000000E+00  0.45593999997E+02  0.45594000000E+02  0.51100000000E-03 0. -1.
         11   -1    0    0    0    0 -0.00000000000E+00 -0.00000000000E+00 -0.45593999997E+02  0.45594000000E+02  0.51100000000E-03 0.  1.
    9900012    2    1    2    0    0 -0.52647552242E+01  0.22266468633E+02 -0.22208300869E+02  0.59301923094E+02  0.49999961822E+02 0.  0.
         12    1    1    2    0    0  0.52647552242E+01 -0.22266468633E+02  0.22208300869E+02  0.31886076906E+02  0.00000000000E+00 0. -1.
         11    1    3    3    0    0  0.11846311861E+02  0.19713171769E+02 -0.47293780045E+01  0.23480018366E+02  0.51100000000E-03 0. -1.
        -11    1    3    3    0    0  0.47935543877E+01  0.71969584903E+01 -0.68716935483E+01  0.11045114199E+02  0.51100000000E-03 0.  1.
        -12    1    3    3    0    0 -0.21904621473E+02 -0.46436616260E+01 -0.10607229316E+02  0.24776790529E+02  0.00000000000E+00 0.  1.
</event>
<event>
 7    1  0.3449603E-013  0.5930176E+02  0.7816164E-02  0.1266605E+00
        -11   -1    0    0    0    0  0.00000000000E+00  0.00000000000E+00  0.45593999997E+02  0.45594000000E+02  0.51100000000E-03 0.  1.
         11   -1    0    0    0    0 -0.00000000000E+00 -0.00000000000E+00 -0.45593999997E+02  0.45594000000E+02  0.51100000000E-03 0. -1.
    9900012    2    1    2    0    0 -0.13230682003E+02 -0.44933342831E+01  0.28661668734E+02  0.59301760745E+02  0.49999665735E+02 0.  0.
         12    1    1    2    0    0  0.13230682003E+02  0.44933342831E+01 -0.28661668734E+02  0.31886239255E+02  0.00000000000E+00 0. -1.
         11    1    3    3    0    0 -0.14837866757E+02 -0.15363790144E+02  0.21690531955E+02  0.30441542573E+02  0.51100000000E-03 0. -1.
        -11    1    3    3    0    0  0.89255522271E+00  0.14989848037E+01  0.15841130514E+02  0.15936907682E+02  0.51100000000E-03 0.  1.
         12    1    3    3    0    0  0.71462953143E+00  0.93714710576E+01 -0.88699937344E+01  0.12923310489E+02  0.00000000000E+00 0. -1.
</event>
<event>
 7    1  0.3449603E-013  0.5930188E+02  0.7816164E-02  0.1266605E+00
        -11   -1    0    0    0    0  0.00000000000E+00  0.00000000000E+00  0.45593999997E+02  0.45594000000E+02  0.51100000000E-03 0.  1.
         11   -1    0    0    0    0 -0.00000000000E+00 -0.00000000000E+00 -0.45593999997E+02  0.45594000000E+02  0.51100000000E-03 0. -1.
    9900012    2    1    2    0    0 -0.52533148950E+01 -0.19898503083E+02  0.24355229460E+02  0.59301875363E+02  0.49999874772E+02 0.  0.
         12    1    1    2    0    0  0.52533148950E+01  0.19898503083E+02 -0.24355229460E+02  0.31886124637E+02  0.00000000000E+00 0. -1.
         11    1    3    3    0    0 -0.73552181035E+01 -0.21199995455E+02  0.60636948226E+01  0.23244514101E+02  0.51100000000E-03 0. -1.
        -11    1    3    3    0    0  0.83643057754E+01 -0.11209725128E+02  0.16989399913E+02  0.22005891443E+02  0.51100000000E-03 0.  1.
         12    1    3    3    0    0 -0.62624025670E+01  0.12511217500E+02  0.13021347251E+01  0.14051469819E+02  0.00000000000E+00 0. -1.
</event>
<event>
 7    1  0.3449603E-013  0.5930195E+02  0.7816164E-02  0.1266605E+00
        -11   -1    0    0    0    0  0.00000000000E+00  0.00000000000E+00  0.45593999997E+02  0.45594000000E+02  0.51100000000E-03 0. -1.
         11   -1    0    0    0    0 -0.00000000000E+00 -0.00000000000E+00 -0.45593999997E+02  0.45594000000E+02  0.51100000000E-03 0.  1.
    9900012    2    1    2    0    0 -0.22308951326E+02 -0.12437236458E+02 -0.19087854901E+02  0.59301947176E+02  0.50000005742E+02 0.  0.
         12    1    1    2    0    0  0.22308951326E+02  0.12437236458E+02  0.19087854901E+02  0.31886052824E+02  0.00000000000E+00 0. -1.
         11    1    3    3    0    0  0.10271326467E+02 -0.48720352611E+01  0.38266859195E+01  0.11995015647E+02  0.51100000000E-03 0. -1.
        -11    1    3    3    0    0  0.30435759980E+01 -0.58097447579E+00  0.16152537799E+01  0.34942712018E+01  0.51100000000E-03 0.  1.
        -12    1    3    3    0    0 -0.35623853791E+02 -0.69842267212E+01 -0.24529794600E+02  0.43812660327E+02  0.00000000000E+00 0.  1.
</event>
<event>
 7    1  0.3449603E-013  0.5930195E+02  0.7816164E-02  0.1266605E+00
        -11   -1    0    0    0    0  0.00000000000E+00  0.00000000000E+00  0.45593999997E+02  0.45594000000E+02  0.51100000000E-03 0.  1.
         11   -1    0    0    0    0 -0.00000000000E+00 -0.00000000000E+00 -0.45593999997E+02  0.45594000000E+02  0.51100000000E-03 0. -1.
    9900012    2    1    2    0    0  0.28930430805E+02 -0.98016080715E+01  0.91476052241E+01  0.59301952445E+02  0.50000015351E+02 0.  0.
         12    1    1    2    0    0 -0.28930430805E+02  0.98016080715E+01 -0.91476052241E+01  0.31886047555E+02  0.00000000000E+00 0. -1.
         11    1    3    3    0    0  0.57083052934E+01  0.17815238385E+01  0.34237530357E+01  0.68906212797E+01  0.51100000000E-03 0. -1.
        -11    1    3    3    0    0 -0.85957687199E+00  0.24945527534E+01  0.20620242819E+02  0.20788364053E+02  0.51100000000E-03 0.  1.
         12    1    3    3    0    0  0.24081702383E+02 -0.14077684663E+02 -0.14896390630E+02  0.31622967112E+02  0.00000000000E+00 0. -1.
</event>
<event>
 7    1  0.3449603E-013  0.5930191E+02  0.7816164E-02  0.1266605E+00
        -11   -1    0    0    0    0  0.00000000000E+00  0.00000000000E+00  0.45593999997E+02  0.45594000000E+02  0.51100000000E-03 0. -1.
         11   -1    0    0    0    0 -0.00000000000E+00 -0.00000000000E+00 -0.45593999997E+02  0.45594000000E+02  0.51100000000E-03 0.  1.
    9900012    2    1    2    0    0  0.14789594236E+02 -0.53226291414E+01 -0.27742746388E+02  0.59301914386E+02  0.49999945940E+02 0.  0.
         12    1    1    2    0    0 -0.14789594236E+02  0.53226291414E+01  0.27742746388E+02  0.31886085614E+02  0.00000000000E+00 0. -1.
         11    1    3    3    0    0  0.10029278297E+02  0.17813343545E+02 -0.23094194931E+02  0.30842235185E+02  0.51100000000E-03 0. -1.
        -11    1    3    3    0    0 -0.32416495828E+01 -0.61355730891E+01  0.37396777284E+01  0.78828128814E+01  0.51100000000E-03 0.  1.
        -12    1    3    3    0    0  0.80019655213E+01 -0.17000399597E+02 -0.83882291853E+01  0.20576866319E+02  0.00000000000E+00 0.  1.
</event>
<event>
 7    1  0.3449603E-013  0.5930197E+02  0.7816164E-02  0.1266605E+00
        -11   -1    0    0    0    0  0.00000000000E+00  0.00000000000E+00  0.45593999997E+02  0.45594000000E+02  0.51100000000E-03 0. -1.
         11   -1    0    0    0    0 -0.00000000000E+00 -0.00000000000E+00 -0.45593999997E+02  0.45594000000E+02  0.51100000000E-03 0.  1.
    9900012    2    1    2    0    0 -0.13209087428E+02 -0.10080471755E+02 -0.27214394994E+02  0.59301965496E+02  0.50000039154E+02 0.  0.
         12    1    1    2    0    0  0.13209087428E+02  0.10080471755E+02  0.27214394994E+02  0.31886034504E+02  0.00000000000E+00 0. -1.
         11    1    3    3    0    0  0.39971532328E+01 -0.88697741856E+01  0.51019069023E+01  0.10985425908E+02  0.51100000000E-03 0. -1.
        -11    1    3    3    0    0 -0.17143469858E+02 -0.42253673171E+00 -0.12004479908E+01  0.17190641980E+02  0.51100000000E-03 0.  1.
        -12    1    3    3    0    0 -0.62770803213E-01 -0.78816083763E+00 -0.31115853905E+02  0.31125897609E+02  0.00000000000E+00 0.  1.
</event>
<event>
 7    1  0.3449603E-013  0.5930192E+02  0.7816164E-02  0.1266605E+00
        -11   -1    0    0    0    0  0.00000000000E+00  0.00000000000E+00  0.45593999997E+02  0.45594000000E+02  0.51100000000E-03 0. -1.
         11   -1    0    0    0    0 -0.00000000000E+00 -0.00000000000E+00 -0.45593999997E+02  0.45594000000E+02  0.51100000000E-03 0.  1.
    9900012    2    1    2    0    0 -0.15038778882E+02  0.20166287990E+02 -0.19592801184E+02  0.59301923104E+02  0.49999961841E+02 0.  0.
         12    1    1    2    0    0  0.15038778882E+02 -0.20166287990E+02  0.19592801184E+02  0.31886076896E+02  0.00000000000E+00 0. -1.
         11    1    3    3    0    0  0.62789726016E+01 -0.79628662771E+01  0.67704896227E+01  0.12193123729E+02  0.51100000000E-03 0. -1.
        -11    1    3    3    0    0  0.10097891547E+01  0.97307856868E+01 -0.41199701584E+01  0.10615178688E+02  0.51100000000E-03 0.  1.
         12    1    3    3    0    0 -0.22327540638E+02  0.18398368580E+02 -0.22243320649E+02  0.36493620687E+02  0.00000000000E+00 0. -1.
</event>
<event>
 7    1  0.3449603E-013  0.5930195E+02  0.7816164E-02  0.1266605E+00
        -11   -1    0    0    0    0  0.00000000000E+00  0.00000000000E+00  0.45593999997E+02  0.45594000000E+02  0.51100000000E-03 0. -1.
         11   -1    0    0    0    0 -0.00000000000E+00 -0.00000000000E+00 -0.45593999997E+02  0.45594000000E+02  0.51100000000E-03 0.  1.
    9900012    2    1    2    0    0 -0.71270554959E+01  0.25271724270E+02 -0.18090472558E+02  0.59301950307E+02  0.50000011452E+02 0.  0.
         12    1    1    2    0    0  0.71270554959E+01 -0.25271724270E+02  0.18090472558E+02  0.31886049693E+02  0.00000000000E+00 0. -1.
         11    1    3    3    0    0 -0.18578860050E+02  0.23882596986E+02  0.34071138765E+01  0.30449316984E+02  0.51100000000E-03 0. -1.
        -11    1    3    3    0    0  0.86690823144E+00 -0.56832750851E+01 -0.32523597319E+01  0.66052244217E+01  0.51100000000E-03 0.  1.
        -12    1    3    3    0    0  0.10584896322E+02  0.70724023696E+01 -0.18245226702E+02  0.22247408902E+02  0.00000000000E+00 0.  1.
</event>
<event>
 7    1  0.3449603E-013  0.5930199E+02  0.7816164E-02  0.1266605E+00
        -11   -1    0    0    0    0  0.00000000000E+00  0.00000000000E+00  0.45593999997E+02  0.45594000000E+02  0.51100000000E-03 0.  1.
         11   -1    0    0    0    0 -0.00000000000E+00 -0.00000000000E+00 -0.45593999997E+02  0.45594000000E+02  0.51100000000E-03 0. -1.
    9900012    2    1    2    0    0 -0.18895651291E+02  0.10606572823E+01  0.25662166890E+02  0.59301993021E+02  0.50000089351E+02 0.  0.
         12    1    1    2    0    0  0.18895651291E+02 -0.10606572823E+01 -0.25662166890E+02  0.31886006979E+02  0.00000000000E+00 0. -1.
         11    1    3    3    0    0 -0.76213480505E+01 -0.61397353362E+01 -0.33602490755E+01  0.10347587652E+02  0.51100000000E-03 0. -1.
        -11    1    3    3    0    0 -0.31678364721E+01 -0.13334421080E+02  0.21754479202E+02  0.25711852112E+02  0.51100000000E-03 0.  1.
        -12    1    3    3    0    0 -0.81064667686E+01  0.20534813698E+02  0.72679367639E+01  0.23242553257E+02  0.00000000000E+00 0.  1.
</event>
<event>
 7    1  0.3449603E-013  0.5930192E+02  0.7816164E-02  0.1266605E+00
        -11   -1    0    0    0    0  0.00000000000E+00  0.00000000000E+00  0.45593999997E+02  0.45594000000E+02  0.51100000000E-03 0.  1.
         11   -1    0    0    0    0 -0.00000000000E+00 -0.00000000000E+00 -0.45593999997E+02  0.45594000000E+02  0.51100000000E-03 0. -1.
    9900012    2    1    2    0    0  0.12629109483E+02  0.24003587036E+02  0.16764717857E+02  0.59301915860E+02  0.49999948629E+02 0.  0.
         12    1    1    2    0    0 -0.12629109483E+02 -0.24003587036E+02 -0.16764717857E+02  0.31886084140E+02  0.00000000000E+00 0. -1.
         11    1    3    3    0    0  0.16327391517E+02  0.93200639627E+01 -0.79746191119E+01  0.20421602686E+02  0.51100000000E-03 0.  1.
        -11    1    3    3    0    0 -0.11649454017E+02  0.28306265785E+01  0.21799187084E+01  0.12185001911E+02  0.51100000000E-03 0. -1.
        -12    1    3    3    0    0  0.79511719836E+01  0.11852896495E+02  0.22559418261E+02  0.26695311264E+02  0.00000000000E+00 0.  1.
</event>
<event>
 7    1  0.3449603E-013  0.5930195E+02  0.7816164E-02  0.1266605E+00
        -11   -1    0    0    0    0  0.00000000000E+00  0.00000000000E+00  0.45593999997E+02  0.45594000000E+02  0.51100000000E-03 0.  1.
         11   -1    0    0    0    0 -0.00000000000E+00 -0.00000000000E+00 -0.45593999997E+02  0.45594000000E+02  0.51100000000E-03 0. -1.
    9900012    2    1    2    0    0 -0.22661341025E+02 -0.70656034815E+01  0.21289921363E+02  0.59301954757E+02  0.50000019567E+02 0.  0.
         12    1    1    2    0    0  0.22661341025E+02  0.70656034815E+01 -0.21289921363E+02  0.31886045243E+02  0.00000000000E+00 0. -1.
         11    1    3    3    0    0 -0.27052766794E+01 -0.77277043508E+01  0.95512355320E+01  0.12580224040E+02  0.51100000000E-03 0. -1.
        -11    1    3    3    0    0 -0.11638655527E+02 -0.12553536497E+02  0.22120156415E+02  0.27970536303E+02  0.51100000000E-03 0.  1.
        -12    1    3    3    0    0 -0.83174088189E+01  0.13215637366E+02 -0.10381470583E+02  0.18751194413E+02  0.00000000000E+00 0.  1.
</event>
<event>
 7    1  0.3449603E-013  0.5930232E+02  0.7816164E-02  0.1266603E+00
        -11   -1    0    0    0    0  0.00000000000E+00  0.00000000000E+00  0.45593999997E+02  0.45594000000E+02  0.51100000000E-03 0.  1.
         11   -1    0    0    0    0 -0.00000000000E+00 -0.00000000000E+00 -0.45593999997E+02  0.45594000000E+02  0.51100000000E-03 0. -1.
    9900012    2    1    2    0    0 -0.35244211911E+01  0.27977838128E+02  0.14883401646E+02  0.59302319584E+02  0.50000684919E+02 0.  0.
         12    1    1    2    0    0  0.35244211911E+01 -0.27977838128E+02 -0.14883401646E+02  0.31885680416E+02  0.00000000000E+00 0. -1.
         11    1    3    3    0    0  0.15728358413E+02  0.12954374849E+01 -0.44752866837E+01  0.16403890021E+02  0.51100000000E-03 0. -1.
        -11    1    3    3    0    0 -0.41925684538E+01  0.73975562256E+01 -0.37032970346E+01  0.92744745154E+01  0.51100000000E-03 0.  1.
        -12    1    3    3    0    0 -0.15060211150E+02  0.19284844418E+02  0.23061985364E+02  0.33623955048E+02  0.00000000000E+00 0.  1.
</event>
<event>
 7    1  0.3449603E-013  0.5930195E+02  0.7816164E-02  0.1266605E+00
        -11   -1    0    0    0    0  0.00000000000E+00  0.00000000000E+00  0.45593999997E+02  0.45594000000E+02  0.51100000000E-03 0.  1.
         11   -1    0    0    0    0 -0.00000000000E+00 -0.00000000000E+00 -0.45593999997E+02  0.45594000000E+02  0.51100000000E-03 0. -1.
    9900012    2    1    2    0    0 -0.21961082106E+02  0.58942977814E+01 -0.22353704579E+02  0.59301953177E+02  0.50000016686E+02 0.  0.
         12    1    1    2    0    0  0.21961082106E+02 -0.58942977814E+01  0.22353704579E+02  0.31886046823E+02  0.00000000000E+00 0. -1.
         11    1    3    3    0    0 -0.71102861371E+01 -0.10443878397E+02 -0.94244044684E+01  0.15762302013E+02  0.51100000000E-03 0. -1.
        -11    1    3    3    0    0  0.79630211974E+00  0.65468556107E+01  0.11298013105E+02  0.13082068484E+02  0.51100000000E-03 0.  1.
         12    1    3    3    0    0 -0.15647098089E+02  0.97913205675E+01 -0.24227313215E+02  0.30457582679E+02  0.00000000000E+00 0. -1.
</event>
<event>
 7    1  0.3449603E-013  0.5930196E+02  0.7816164E-02  0.1266605E+00
        -11   -1    0    0    0    0  0.00000000000E+00  0.00000000000E+00  0.45593999997E+02  0.45594000000E+02  0.51100000000E-03 0.  1.
         11   -1    0    0    0    0 -0.00000000000E+00 -0.00000000000E+00 -0.45593999997E+02  0.45594000000E+02  0.51100000000E-03 0. -1.
    9900012    2    1    2    0    0  0.28351968162E+01 -0.15239902293E+02  0.27864431543E+02  0.59301960609E+02  0.50000030239E+02 0.  0.
         12    1    1    2    0    0 -0.28351968162E+01  0.15239902293E+02 -0.27864431543E+02  0.31886039391E+02  0.00000000000E+00 0. -1.
         11    1    3    3    0    0  0.12728484594E+02  0.64662647696E+01  0.17779972104E+02  0.22802506625E+02  0.51100000000E-03 0. -1.
        -11    1    3    3    0    0 -0.27662763172E+01  0.58535577167E+01  0.63339502759E+00  0.65051988538E+01  0.51100000000E-03 0.  1.
        -12    1    3    3    0    0 -0.71270114608E+01 -0.27559724779E+02  0.94510644115E+01  0.29994255129E+02  0.00000000000E+00 0.  1.
</event>
<event>
 7    1  0.3449603E-013  0.5930204E+02  0.7816164E-02  0.1266604E+00
        -11   -1    0    0    0    0  0.00000000000E+00  0.00000000000E+00  0.45593999997E+02  0.45594000000E+02  0.51100000000E-03 0. -1.
         11   -1    0    0    0    0 -0.00000000000E+00 -0.00000000000E+00 -0.45593999997E+02  0.45594000000E+02  0.51100000000E-03 0.  1.
    9900012    2    1    2    0    0  0.29244044277E+02  0.12630619354E+02  0.14027213106E+01  0.59302042306E+02  0.50000179236E+02 0.  0.
         12    1    1    2    0    0 -0.29244044277E+02 -0.12630619354E+02 -0.14027213106E+01  0.31885957694E+02  0.00000000000E+00 0. -1.
         11    1    3    3    0    0 -0.78530694171E+01  0.10411891158E+02  0.56317864592E+00  0.13053556879E+02  0.51100000000E-03 0.  1.
        -11    1    3    3    0    0  0.73725353425E+01  0.47422057427E+01  0.11596412754E+02  0.14536835340E+02  0.51100000000E-03 0. -1.
        -12    1    3    3    0    0  0.29724578352E+02 -0.25234775466E+01 -0.10756870089E+02  0.31711650087E+02  0.00000000000E+00 0.  1.
</event>
<event>
 7    1  0.3449603E-013  0.5930196E+02  0.7816164E-02  0.1266605E+00
        -11   -1    0    0    0    0  0.00000000000E+00  0.00000000000E+00  0.45593999997E+02  0.45594000000E+02  0.51100000000E-03 0. -1.
         11   -1    0    0    0    0 -0.00000000000E+00 -0.00000000000E+00 -0.45593999997E+02  0.45594000000E+02  0.51100000000E-03 0.  1.
    9900012    2    1    2    0    0 -0.13896579053E+01  0.29333574056E+02 -0.12422968306E+02  0.59301955129E+02  0.50000020245E+02 0.  0.
         12    1    1    2    0    0  0.13896579053E+01 -0.29333574056E+02  0.12422968306E+02  0.31886044871E+02  0.00000000000E+00 0. -1.
         11    1    3    3    0    0  0.15000274281E+02  0.19769305086E+02  0.52907241416E+01  0.25373715027E+02  0.51100000000E-03 0. -1.
        -11    1    3    3    0    0  0.25043387299E+01  0.13544548045E+01 -0.12303778859E+02  0.12628904733E+02  0.51100000000E-03 0.  1.
         12    1    3    3    0    0 -0.18894270916E+02  0.82098141658E+01 -0.54099135884E+01  0.21299335368E+02  0.00000000000E+00 0. -1.
</event>
<event>
 7    1  0.3449603E-013  0.5930194E+02  0.7816164E-02  0.1266605E+00
        -11   -1    0    0    0    0  0.00000000000E+00  0.00000000000E+00  0.45593999997E+02  0.45594000000E+02  0.51100000000E-03 0. -1.
         11   -1    0    0    0    0 -0.00000000000E+00 -0.00000000000E+00 -0.45593999997E+02  0.45594000000E+02  0.51100000000E-03 0.  1.
    9900012    2    1    2    0    0 -0.16634820753E+02  0.14132016148E+02 -0.23244126138E+02  0.59301944398E+02  0.50000000676E+02 0.  0.
         12    1    1    2    0    0  0.16634820753E+02 -0.14132016148E+02  0.23244126138E+02  0.31886055602E+02  0.00000000000E+00 0. -1.
         11    1    3    3    0    0 -0.10150832279E+02 -0.23714887811E+01  0.40838301606E+01  0.11195580558E+02  0.51100000000E-03 0. -1.
        -11    1    3    3    0    0  0.98981686417E+01  0.16337010140E+02 -0.38633999893E+01  0.19488394047E+02  0.51100000000E-03 0.  1.
         12    1    3    3    0    0 -0.16382157116E+02  0.16649478911E+00 -0.23464556310E+02  0.28617969793E+02  0.00000000000E+00 0. -1.
</event>
<event>
 7    1  0.3449603E-013  0.5930195E+02  0.7816164E-02  0.1266605E+00
        -11   -1    0    0    0    0  0.00000000000E+00  0.00000000000E+00  0.45593999997E+02  0.45594000000E+02  0.51100000000E-03 0. -1.
         11   -1    0    0    0    0 -0.00000000000E+00 -0.00000000000E+00 -0.45593999997E+02  0.45594000000E+02  0.51100000000E-03 0.  1.
    9900012    2    1    2    0    0  0.26063588593E+02  0.99103310935E+01 -0.15465919348E+02  0.59301953302E+02  0.50000016914E+02 0.  0.
         12    1    1    2    0    0 -0.26063588593E+02 -0.99103310935E+01  0.15465919348E+02  0.31886046698E+02  0.00000000000E+00 0. -1.
         11    1    3    3    0    0 -0.66969333722E+00  0.65372100203E+01 -0.12254929103E+01  0.66847166843E+01  0.51100000000E-03 0. -1.
        -11    1    3    3    0    0  0.33601474416E+01  0.28046235503E+01 -0.26056080347E+02  0.26421124643E+02  0.51100000000E-03 0.  1.
         12    1    3    3    0    0  0.23373134489E+02  0.56849752290E+00  0.11815653909E+02  0.26196111975E+02  0.00000000000E+00 0. -1.
</event>
<event>
 7    1  0.3449603E-013  0.5930194E+02  0.7816164E-02  0.1266605E+00
        -11   -1    0    0    0    0  0.00000000000E+00  0.00000000000E+00  0.45593999997E+02  0.45594000000E+02  0.51100000000E-03 0.  1.
         11   -1    0    0    0    0 -0.00000000000E+00 -0.00000000000E+00 -0.45593999997E+02  0.45594000000E+02  0.51100000000E-03 0. -1.
    9900012    2    1    2    0    0  0.10372195728E+01 -0.31567755142E+02 -0.43728232577E+01  0.59301943919E+02  0.49999999802E+02 0.  0.
         12    1    1    2    0    0 -0.10372195728E+01  0.31567755142E+02  0.43728232577E+01  0.31886056081E+02  0.00000000000E+00 0. -1.
         11    1    3    3    0    0 -0.12919256232E+01  0.42614458835E+01  0.11867416863E+02  0.12675353095E+02  0.51100000000E-03 0. -1.
        -11    1    3    3    0    0  0.11451631576E+02 -0.20102954764E+02 -0.14351030454E+01  0.23180340313E+02  0.51100000000E-03 0.  1.
        -12    1    3    3    0    0 -0.91224863801E+01 -0.15726246261E+02 -0.14805137075E+02  0.23446250511E+02  0.00000000000E+00 0.  1.
</event>
<event>
 7    1  0.3449603E-013  0.5930193E+02  0.7816164E-02  0.1266605E+00
        -11   -1    0    0    0    0  0.00000000000E+00  0.00000000000E+00  0.45593999997E+02  0.45594000000E+02  0.51100000000E-03 0.  1.
         11   -1    0    0    0    0 -0.00000000000E+00 -0.00000000000E+00 -0.45593999997E+02  0.45594000000E+02  0.51100000000E-03 0. -1.
    9900012    2    1    2    0    0 -0.21925489774E+02 -0.14142097570E+02  0.18330185480E+02  0.59301925842E+02  0.49999966833E+02 0.  0.
         12    1    1    2    0    0  0.21925489774E+02  0.14142097570E+02 -0.18330185480E+02  0.31886074158E+02  0.00000000000E+00 0. -1.
         11    1    3    3    0    0 -0.17895610196E+02  0.52394325520E+01  0.75770785863E+01  0.20127509481E+02  0.51100000000E-03 0. -1.
        -11    1    3    3    0    0 -0.16104980161E+02 -0.36487849240E+01  0.10046907669E+02  0.19329365519E+02  0.51100000000E-03 0.  1.
         12    1    3    3    0    0  0.12075100583E+02 -0.15732745198E+02  0.70619922495E+00  0.19845050841E+02  0.00000000000E+00 0. -1.
</event>
<event>
 7    1  0.3449603E-013  0.5930209E+02  0.7816164E-02  0.1266604E+00
        -11   -1    0    0    0    0  0.00000000000E+00  0.00000000000E+00  0.45593999997E+02  0.45594000000E+02  0.51100000000E-03 0.  1.
         11   -1    0    0    0    0 -0.00000000000E+00 -0.00000000000E+00 -0.45593999997E+02  0.45594000000E+02  0.51100000000E-03 0. -1.
    9900012    2    1    2    0    0 -0.23535456969E+01 -0.26320995921E+02  0.17843128084E+02  0.59302090519E+02  0.50000267164E+02 0.  0.
         12    1    1    2    0    0  0.23535456969E+01  0.26320995921E+02 -0.17843128084E+02  0.31885909481E+02  0.00000000000E+00 0. -1.
         11    1    3    3    0    0 -0.15553016375E+02 -0.13594595951E+02  0.96063215673E+01  0.22781368961E+02  0.51100000000E-03 0. -1.
        -11    1    3    3    0    0 -0.72923180481E+01 -0.12610863671E+02  0.65101351503E+01  0.15955990881E+02  0.51100000000E-03 0.  1.
         12    1    3    3    0    0  0.20491788726E+02 -0.11553629896E+00  0.17266713664E+01  0.20564730678E+02  0.00000000000E+00 0. -1.
</event>
<event>
 7    1  0.3449603E-013  0.5930206E+02  0.7816164E-02  0.1266604E+00
        -11   -1    0    0    0    0  0.00000000000E+00  0.00000000000E+00  0.45593999997E+02  0.45594000000E+02  0.51100000000E-03 0.  1.
         11   -1    0    0    0    0 -0.00000000000E+00 -0.00000000000E+00 -0.45593999997E+02  0.45594000000E+02  0.51100000000E-03 0. -1.
    9900012    2    1    2    0    0 -0.21812356771E+02  0.19516891993E+02  0.12650113913E+02  0.59302056969E+02  0.50000205977E+02 0.  0.
         12    1    1    2    0    0  0.21812356771E+02 -0.19516891993E+02 -0.12650113913E+02  0.31885943031E+02  0.00000000000E+00 0. -1.
         11    1    3    3    0    0  0.88612644349E+01  0.18277783752E+01 -0.38254474539E+01  0.98232799847E+01  0.51100000000E-03 0. -1.
        -11    1    3    3    0    0 -0.52421966629E+01  0.19225303380E+02  0.12932319383E+02  0.23755795099E+02  0.51100000000E-03 0.  1.
        -12    1    3    3    0    0 -0.25431424543E+02 -0.15361897620E+01  0.35432419837E+01  0.25722981885E+02  0.00000000000E+00 0.  1.
</event>
<event>
 7    1  0.3449603E-013  0.5930199E+02  0.7816164E-02  0.1266605E+00
        -11   -1    0    0    0    0  0.00000000000E+00  0.00000000000E+00  0.45593999997E+02  0.45594000000E+02  0.51100000000E-03 0.  1.
         11   -1    0    0    0    0 -0.00000000000E+00 -0.00000000000E+00 -0.45593999997E+02  0.45594000000E+02  0.51100000000E-03 0. -1.
    9900012    2    1    2    0    0 -0.72873325256E+01 -0.27116254692E+02  0.15110305073E+02  0.59301987341E+02  0.50000078994E+02 0.  0.
         12    1    1    2    0    0  0.72873325256E+01  0.27116254692E+02 -0.15110305073E+02  0.31886012659E+02  0.00000000000E+00 0. -1.
         11    1    3    3    0    0  0.15255268143E+01  0.19841257281E+01  0.49579091056E+01  0.55538139982E+01  0.51100000000E-03 0. -1.
        -11    1    3    3    0    0 -0.17434147335E+02 -0.17423154094E+02  0.23480785532E+02  0.34042078099E+02  0.51100000000E-03 0.  1.
        -12    1    3    3    0    0  0.86212879947E+01 -0.11677226327E+02 -0.13328389565E+02  0.19706095244E+02  0.00000000000E+00 0.  1.
</event>
<event>
 7    1  0.3449603E-013  0.5930199E+02  0.7816164E-02  0.1266605E+00
        -11   -1    0    0    0    0  0.00000000000E+00  0.00000000000E+00  0.45593999997E+02  0.45594000000E+02  0.51100000000E-03 0. -1.
         11   -1    0    0    0    0 -0.00000000000E+00 -0.00000000000E+00 -0.45593999997E+02  0.45594000000E+02  0.51100000000E-03 0.  1.
    9900012    2    1    2    0    0 -0.84025307990E+01 -0.26889810661E+02 -0.14934958644E+02  0.59301993180E+02  0.50000089643E+02 0.  0.
         12    1    1    2    0    0  0.84025307990E+01  0.26889810661E+02  0.14934958644E+02  0.31886006820E+02  0.00000000000E+00 0. -1.
         11    1    3    3    0    0  0.49870923486E+01  0.62443021853E+01  0.63481971047E+01  0.10205978964E+02  0.51100000000E-03 0. -1.
        -11    1    3    3    0    0 -0.19070321238E+01  0.30390630405E+01  0.24406166957E+01  0.43392724968E+01  0.51100000000E-03 0.  1.
        -12    1    3    3    0    0 -0.11482591024E+02 -0.36173175887E+02 -0.23723772444E+02  0.44756741719E+02  0.00000000000E+00 0.  1.
</event>
<event>
 7    1  0.3449603E-013  0.5930199E+02  0.7816164E-02  0.1266605E+00
        -11   -1    0    0    0    0  0.00000000000E+00  0.00000000000E+00  0.45593999997E+02  0.45594000000E+02  0.51100000000E-03 0.  1.
         11   -1    0    0    0    0 -0.00000000000E+00 -0.00000000000E+00 -0.45593999997E+02  0.45594000000E+02  0.51100000000E-03 0. -1.
    9900012    2    1    2    0    0  0.33483821639E+00  0.29101317234E+02  0.13027624369E+02  0.59301987736E+02  0.50000079714E+02 0.  0.
         12    1    1    2    0    0 -0.33483821639E+00 -0.29101317234E+02 -0.13027624369E+02  0.31886012264E+02  0.00000000000E+00 0. -1.
         11    1    3    3    0    0 -0.74441683425E+01  0.10128385033E+02  0.47050103248E-01  0.12569886223E+02  0.51100000000E-03 0. -1.
        -11    1    3    3    0    0 -0.25961095540E+01  0.24165570823E+02  0.21411068956E+02  0.32390561466E+02  0.51100000000E-03 0.  1.
        -12    1    3    3    0    0  0.10375116113E+02 -0.51926386217E+01 -0.84304946896E+01  0.14341540047E+02  0.00000000000E+00 0.  1.
</event>
<event>
 7    1  0.3449603E-013  0.5930195E+02  0.7816164E-02  0.1266605E+00
        -11   -1    0    0    0    0  0.00000000000E+00  0.00000000000E+00  0.45593999997E+02  0.45594000000E+02  0.51100000000E-03 0.  1.
         11   -1    0    0    0    0 -0.00000000000E+00 -0.00000000000E+00 -0.45593999997E+02  0.45594000000E+02  0.51100000000E-03 0. -1.
    9900012    2    1    2    0    0  0.17971501697E+02  0.26338678332E+02 -0.13834770914E+00  0.59301953058E+02  0.50000016469E+02 0.  0.
         12    1    1    2    0    0 -0.17971501697E+02 -0.26338678332E+02  0.13834770914E+00  0.31886046942E+02  0.00000000000E+00 0. -1.
         11    1    3    3    0    0  0.10223952038E+02 -0.62183454830E+01  0.74614338766E+01  0.14102127910E+02  0.51100000000E-03 0. -1.
        -11    1    3    3    0    0  0.36459890845E+01 -0.82542448701E+00  0.74634082513E+01  0.83472765004E+01  0.51100000000E-03 0.  1.
        -12    1    3    3    0    0  0.41015605739E+01  0.33382448302E+02 -0.15063189837E+02  0.36852548648E+02  0.00000000000E+00 0.  1.
</event>
<event>
 7    1  0.3449603E-013  0.5930197E+02  0.7816164E-02  0.1266605E+00
        -11   -1    0    0    0    0  0.00000000000E+00  0.00000000000E+00  0.45593999997E+02  0.45594000000E+02  0.51100000000E-03 0. -1.
         11   -1    0    0    0    0 -0.00000000000E+00 -0.00000000000E+00 -0.45593999997E+02  0.45594000000E+02  0.51100000000E-03 0.  1.
    9900012    2    1    2    0    0  0.14154589977E+01  0.88757231435E+01 -0.30593088490E+02  0.59301967810E+02  0.50000043373E+02 0.  0.
         12    1    1    2    0    0 -0.14154589977E+01 -0.88757231435E+01  0.30593088490E+02  0.31886032190E+02  0.00000000000E+00 0. -1.
         11    1    3    3    0    0  0.12672876616E+02  0.21048101535E+02 -0.26688339223E+02  0.36275223372E+02  0.51100000000E-03 0. -1.
        -11    1    3    3    0    0  0.18751212099E+01  0.21064259472E+01 -0.21531911468E+01  0.35481463046E+01  0.51100000000E-03 0.  1.
        -12    1    3    3    0    0 -0.13132538828E+02 -0.14278804338E+02 -0.17515581202E+01  0.19478598134E+02  0.00000000000E+00 0.  1.
</event>
<event>
 7    1  0.3449603E-013  0.5930195E+02  0.7816164E-02  0.1266605E+00
        -11   -1    0    0    0    0  0.00000000000E+00  0.00000000000E+00  0.45593999997E+02  0.45594000000E+02  0.51100000000E-03 0. -1.
         11   -1    0    0    0    0 -0.00000000000E+00 -0.00000000000E+00 -0.45593999997E+02  0.45594000000E+02  0.51100000000E-03 0.  1.
    9900012    2    1    2    0    0 -0.16764065920E+02 -0.27110481029E+02  0.84138140088E+00  0.59301952730E+02  0.50000015872E+02 0.  0.
         12    1    1    2    0    0  0.16764065920E+02  0.27110481029E+02 -0.84138140088E+00  0.31886047270E+02  0.00000000000E+00 0. -1.
         11    1    3    3    0    0 -0.11100743357E+02 -0.81738388802E+01 -0.66760082174E+00  0.13801588178E+02  0.51100000000E-03 0. -1.
        -11    1    3    3    0    0 -0.10568746346E+02 -0.30512243819E+02 -0.22758765341E+01  0.32370897986E+02  0.51100000000E-03 0.  1.
         12    1    3    3    0    0  0.49054237826E+01  0.11575601670E+02  0.37848587567E+01  0.13129466566E+02  0.00000000000E+00 0. -1.
</event>
<event>
 7    1  0.3449603E-013  0.5930194E+02  0.7816164E-02  0.1266605E+00
        -11   -1    0    0    0    0  0.00000000000E+00  0.00000000000E+00  0.45593999997E+02  0.45594000000E+02  0.51100000000E-03 0.  1.
         11   -1    0    0    0    0 -0.00000000000E+00 -0.00000000000E+00 -0.45593999997E+02  0.45594000000E+02  0.51100000000E-03 0. -1.
    9900012    2    1    2    0    0 -0.17168085761E+02  0.12156363011E+02  0.23962476417E+02  0.59301943386E+02  0.49999998829E+02 0.  0.
         12    1    1    2    0    0  0.17168085761E+02 -0.12156363011E+02 -0.23962476417E+02  0.31886056614E+02  0.00000000000E+00 0. -1.
         11    1    3    3    0    0 -0.17391941466E+02 -0.33373152768E+01  0.39308085823E+01  0.18140246900E+02  0.51100000000E-03 0. -1.
        -11    1    3    3    0    0 -0.64556496761E+01 -0.50937507590E+01 -0.37218072265E+01  0.90262704827E+01  0.51100000000E-03 0.  1.
        -12    1    3    3    0    0  0.66795053814E+01  0.20587429047E+02  0.23753475061E+02  0.32135426003E+02  0.00000000000E+00 0.  1.
</event>
<event>
 7    1  0.3449603E-013  0.5930193E+02  0.7816164E-02  0.1266605E+00
        -11   -1    0    0    0    0  0.00000000000E+00  0.00000000000E+00  0.45593999997E+02  0.45594000000E+02  0.51100000000E-03 0.  1.
         11   -1    0    0    0    0 -0.00000000000E+00 -0.00000000000E+00 -0.45593999997E+02  0.45594000000E+02  0.51100000000E-03 0. -1.
    9900012    2    1    2    0    0  0.22555903802E+02 -0.18984932990E+02  0.12145976875E+02  0.59301933589E+02  0.49999980961E+02 0.  0.
         12    1    1    2    0    0 -0.22555903802E+02  0.18984932990E+02 -0.12145976875E+02  0.31886066411E+02  0.00000000000E+00 0. -1.
         11    1    3    3    0    0  0.11365226613E+02  0.99188917171E+01  0.46157476866E+00  0.15091913079E+02  0.51100000000E-03 0. -1.
        -11    1    3    3    0    0  0.18568966940E+02 -0.19549529965E+02  0.16215884566E+02  0.31463400445E+02  0.51100000000E-03 0.  1.
         12    1    3    3    0    0 -0.73782897514E+01 -0.93542947424E+01 -0.45314824591E+01  0.12746620064E+02  0.00000000000E+00 0. -1.
</event>
<event>
 7    1  0.3449603E-013  0.5930195E+02  0.7816164E-02  0.1266605E+00
        -11   -1    0    0    0    0  0.00000000000E+00  0.00000000000E+00  0.45593999997E+02  0.45594000000E+02  0.51100000000E-03 0.  1.
         11   -1    0    0    0    0 -0.00000000000E+00 -0.00000000000E+00 -0.45593999997E+02  0.45594000000E+02  0.51100000000E-03 0. -1.
    9900012    2    1    2    0    0  0.63341388387E+01  0.17661652293E+02  0.25781101944E+02  0.59301945148E+02  0.50000002044E+02 0.  0.
         12    1    1    2    0    0 -0.63341388387E+01 -0.17661652293E+02 -0.25781101944E+02  0.31886054852E+02  0.00000000000E+00 0. -1.
         11    1    3    3    0    0  0.14247631084E+02  0.21727749942E+02  0.17976615194E+02  0.31595075615E+02  0.51100000000E-03 0. -1.
        -11    1    3    3    0    0  0.83936687571E+00  0.68697634540E+01  0.11317337601E+02  0.13265757321E+02  0.51100000000E-03 0.  1.
        -12    1    3    3    0    0 -0.87528591208E+01 -0.10935861103E+02 -0.35128508505E+01  0.14441112213E+02  0.00000000000E+00 0.  1.
</event>
<event>
 7    1  0.3449603E-013  0.5930193E+02  0.7816164E-02  0.1266605E+00
        -11   -1    0    0    0    0  0.00000000000E+00  0.00000000000E+00  0.45593999997E+02  0.45594000000E+02  0.51100000000E-03 0.  1.
         11   -1    0    0    0    0 -0.00000000000E+00 -0.00000000000E+00 -0.45593999997E+02  0.45594000000E+02  0.51100000000E-03 0. -1.
    9900012    2    1    2    0    0  0.15978264154E+02  0.17928818038E+02  0.20975553442E+02  0.59301932764E+02  0.49999979457E+02 0.  0.
         12    1    1    2    0    0 -0.15978264154E+02 -0.17928818038E+02 -0.20975553442E+02  0.31886067236E+02  0.00000000000E+00 0. -1.
         11    1    3    3    0    0 -0.62598366046E+01  0.67666981505E+01  0.19920378187E+02  0.21949834295E+02  0.51100000000E-03 0. -1.
        -11    1    3    3    0    0  0.12832061189E+02  0.18926939628E+02  0.68189039985E+01  0.23861858478E+02  0.51100000000E-03 0.  1.
         12    1    3    3    0    0  0.94060395695E+01 -0.77648197405E+01 -0.57637287436E+01  0.13490239991E+02  0.00000000000E+00 0. -1.
</event>
<event>
 7    1  0.3449603E-013  0.5930194E+02  0.7816164E-02  0.1266605E+00
        -11   -1    0    0    0    0  0.00000000000E+00  0.00000000000E+00  0.45593999997E+02  0.45594000000E+02  0.51100000000E-03 0.  1.
         11   -1    0    0    0    0 -0.00000000000E+00 -0.00000000000E+00 -0.45593999997E+02  0.45594000000E+02  0.51100000000E-03 0. -1.
    9900012    2    1    2    0    0  0.24501037916E+02  0.18133793290E+02  0.93587165994E+01  0.59301938870E+02  0.49999990593E+02 0.  0.
         12    1    1    2    0    0 -0.24501037916E+02 -0.18133793290E+02 -0.93587165994E+01  0.31886061130E+02  0.00000000000E+00 0. -1.
         11    1    3    3    0    0 -0.45877471794E+00 -0.27712902815E+01  0.25056954115E+01  0.37641777086E+01  0.51100000000E-03 0. -1.
        -11    1    3    3    0    0  0.24410978299E+02  0.28057247034E+02  0.18747120668E+02  0.41648043246E+02  0.51100000000E-03 0.  1.
         12    1    3    3    0    0  0.54883433465E+00 -0.71521634621E+01 -0.11894099480E+02  0.13889717915E+02  0.00000000000E+00 0. -1.
</event>
<event>
 7    1  0.3449603E-013  0.5930203E+02  0.7816164E-02  0.1266604E+00
        -11   -1    0    0    0    0  0.00000000000E+00  0.00000000000E+00  0.45593999997E+02  0.45594000000E+02  0.51100000000E-03 0. -1.
         11   -1    0    0    0    0 -0.00000000000E+00 -0.00000000000E+00 -0.45593999997E+02  0.45594000000E+02  0.51100000000E-03 0.  1.
    9900012    2    1    2    0    0  0.24185183926E+02  0.20767072798E+02 -0.72146214580E+00  0.59302032212E+02  0.50000160827E+02 0.  0.
         12    1    1    2    0    0 -0.24185183926E+02 -0.20767072798E+02  0.72146214580E+00  0.31885967788E+02  0.00000000000E+00 0. -1.
         11    1    3    3    0    0  0.82438668156E+01  0.27434339477E+02  0.90952763602E+01  0.30055421723E+02  0.51100000000E-03 0. -1.
        -11    1    3    3    0    0  0.47296204682E+01  0.48086167438E+01  0.41973739782E+01  0.79441836167E+01  0.51100000000E-03 0.  1.
        -12    1    3    3    0    0  0.11211696642E+02 -0.11475883423E+02 -0.14014112484E+02  0.21302426872E+02  0.00000000000E+00 0.  1.
</event>
<event>
 7    1  0.3449603E-013  0.5930181E+02  0.7816164E-02  0.1266605E+00
        -11   -1    0    0    0    0  0.00000000000E+00  0.00000000000E+00  0.45593999997E+02  0.45594000000E+02  0.51100000000E-03 0. -1.
         11   -1    0    0    0    0 -0.00000000000E+00 -0.00000000000E+00 -0.45593999997E+02  0.45594000000E+02  0.51100000000E-03 0.  1.
    9900012    2    1    2    0    0  0.67848384479E+01 -0.28293886786E+02 -0.13044195776E+02  0.59301810110E+02  0.49999755766E+02 0.  0.
         12    1    1    2    0    0 -0.67848384479E+01  0.28293886786E+02  0.13044195776E+02  0.31886189890E+02  0.00000000000E+00 0. -1.
         11    1    3    3    0    0  0.78673422878E+01  0.64328082404E+01  0.70426245373E+01  0.12364249155E+02  0.51100000000E-03 0. -1.
        -11    1    3    3    0    0 -0.66285084102E+01  0.60679291842E+00 -0.31651850550E+01  0.73704625420E+01  0.51100000000E-03 0.  1.
         12    1    3    3    0    0  0.55460045704E+01 -0.35333487945E+02 -0.16921635258E+02  0.39567098413E+02  0.00000000000E+00 0. -1.
</event>
<event>
 7    1  0.3449603E-013  0.5930183E+02  0.7816164E-02  0.1266605E+00
        -11   -1    0    0    0    0  0.00000000000E+00  0.00000000000E+00  0.45593999997E+02  0.45594000000E+02  0.51100000000E-03 0. -1.
         11   -1    0    0    0    0 -0.00000000000E+00 -0.00000000000E+00 -0.45593999997E+02  0.45594000000E+02  0.51100000000E-03 0.  1.
    9900012    2    1    2    0    0  0.84069009314E+01 -0.29036316939E+02 -0.10146125220E+02  0.59301834636E+02  0.49999800495E+02 0.  0.
         12    1    1    2    0    0 -0.84069009314E+01  0.29036316939E+02  0.10146125220E+02  0.31886165364E+02  0.00000000000E+00 0. -1.
         11    1    3    3    0    0 -0.98015116370E+01  0.62080114420E+01 -0.36965508067E+00  0.11608000757E+02  0.51100000000E-03 0. -1.
        -11    1    3    3    0    0 -0.12755454900E+01  0.30765136229E+01 -0.23285725008E+01  0.40637670358E+01  0.51100000000E-03 0.  1.
        -12    1    3    3    0    0  0.19483958058E+02 -0.38320842004E+02 -0.74478976383E+01  0.43630066843E+02  0.00000000000E+00 0.  1.
</event>
<event>
 7    1  0.3449603E-013  0.5930194E+02  0.7816164E-02  0.1266605E+00
        -11   -1    0    0    0    0  0.00000000000E+00  0.00000000000E+00  0.45593999997E+02  0.45594000000E+02  0.51100000000E-03 0.  1.
         11   -1    0    0    0    0 -0.00000000000E+00 -0.00000000000E+00 -0.45593999997E+02  0.45594000000E+02  0.51100000000E-03 0. -1.
    9900012    2    1    2    0    0 -0.13025739541E+02  0.41266726834E+01  0.28810093424E+02  0.59301940333E+02  0.49999993261E+02 0.  0.
         12    1    1    2    0    0  0.13025739541E+02 -0.41266726834E+01 -0.28810093424E+02  0.31886059667E+02  0.00000000000E+00 0. -1.
         11    1    3    3    0    0  0.53422828707E+01 -0.35033772374E+00  0.40903528713E+01  0.67374854111E+01  0.51100000000E-03 0. -1.
        -11    1    3    3    0    0 -0.69108199640E+01  0.34257357881E+01  0.35781860704E+02  0.36603779231E+02  0.51100000000E-03 0.  1.
         12    1    3    3    0    0 -0.11457202447E+02  0.10512746191E+01 -0.11062120152E+02  0.15960675691E+02  0.00000000000E+00 0. -1.
</event>
<event>
 7    1  0.3449603E-013  0.5930209E+02  0.7816164E-02  0.1266604E+00
        -11   -1    0    0    0    0  0.00000000000E+00  0.00000000000E+00  0.45593999997E+02  0.45594000000E+02  0.51100000000E-03 0.  1.
         11   -1    0    0    0    0 -0.00000000000E+00 -0.00000000000E+00 -0.45593999997E+02  0.45594000000E+02  0.51100000000E-03 0. -1.
    9900012    2    1    2    0    0 -0.21100945340E+01 -0.14483739527E+02  0.28328075498E+02  0.59302092909E+02  0.50000271523E+02 0.  0.
         12    1    1    2    0    0  0.21100945340E+01  0.14483739527E+02 -0.28328075498E+02  0.31885907091E+02  0.00000000000E+00 0. -1.
         11    1    3    3    0    0 -0.15014517324E+01  0.22025444563E+01 -0.84484684443E+01  0.88590168022E+01  0.51100000000E-03 0. -1.
        -11    1    3    3    0    0  0.63153046713E+01 -0.19792903654E+02  0.10869845321E+02  0.23447721547E+02  0.51100000000E-03 0.  1.
        -12    1    3    3    0    0 -0.69239474729E+01  0.31066196711E+01  0.25906698621E+02  0.26995354560E+02  0.00000000000E+00 0.  1.
</event>
<event>
 7    1  0.3449603E-013  0.5930196E+02  0.7816164E-02  0.1266605E+00
        -11   -1    0    0    0    0  0.00000000000E+00  0.00000000000E+00  0.45593999997E+02  0.45594000000E+02  0.51100000000E-03 0.  1.
         11   -1    0    0    0    0 -0.00000000000E+00 -0.00000000000E+00 -0.45593999997E+02  0.45594000000E+02  0.51100000000E-03 0. -1.
    9900012    2    1    2    0    0 -0.34596002838E+01 -0.74081497249E+01  0.30819966673E+02  0.59301955055E+02  0.50000020112E+02 0.  0.
         12    1    1    2    0    0  0.34596002838E+01  0.74081497249E+01 -0.30819966673E+02  0.31886044945E+02  0.00000000000E+00 0. -1.
         11    1    3    3    0    0 -0.70832169794E+01 -0.21843394143E-01  0.20532455214E+02  0.21719902332E+02  0.51100000000E-03 0.  1.
        -11    1    3    3    0    0  0.91615109665E+01  0.10586201460E+02 -0.32963925601E+01  0.14382876927E+02  0.51100000000E-03 0. -1.
         12    1    3    3    0    0 -0.55378942710E+01 -0.17972507790E+02  0.13583904019E+02  0.23199175796E+02  0.00000000000E+00 0. -1.
</event>
<event>
 7    1  0.3449603E-013  0.5930200E+02  0.7816164E-02  0.1266605E+00
        -11   -1    0    0    0    0  0.00000000000E+00  0.00000000000E+00  0.45593999997E+02  0.45594000000E+02  0.51100000000E-03 0.  1.
         11   -1    0    0    0    0 -0.00000000000E+00 -0.00000000000E+00 -0.45593999997E+02  0.45594000000E+02  0.51100000000E-03 0. -1.
    9900012    2    1    2    0    0  0.19786193531E+02 -0.10984814849E+02  0.22462354959E+02  0.59301999906E+02  0.50000101908E+02 0.  0.
         12    1    1    2    0    0 -0.19786193531E+02  0.10984814849E+02 -0.22462354959E+02  0.31886000094E+02  0.00000000000E+00 0. -1.
         11    1    3    3    0    0 -0.75392135161E+00 -0.14904786155E+01  0.21644057333E+02  0.21708411780E+02  0.51100000000E-03 0.  1.
        -11    1    3    3    0    0  0.19195781537E+02  0.51434279985E+01  0.77641711856E+01  0.21335773594E+02  0.51100000000E-03 0. -1.
        -12    1    3    3    0    0  0.13443333455E+01 -0.14637764232E+02 -0.69458735598E+01  0.16257814532E+02  0.00000000000E+00 0.  1.
</event>
<event>
 7    1  0.3449603E-013  0.5930199E+02  0.7816164E-02  0.1266605E+00
        -11   -1    0    0    0    0  0.00000000000E+00  0.00000000000E+00  0.45593999997E+02  0.45594000000E+02  0.51100000000E-03 0. -1.
         11   -1    0    0    0    0 -0.00000000000E+00 -0.00000000000E+00 -0.45593999997E+02  0.45594000000E+02  0.51100000000E-03 0.  1.
    9900012    2    1    2    0    0  0.14489920305E+02  0.17874060601E+01 -0.28347217155E+02  0.59301994742E+02  0.50000092490E+02 0.  0.
         12    1    1    2    0    0 -0.14489920305E+02 -0.17874060601E+01  0.28347217155E+02  0.31886005258E+02  0.00000000000E+00 0. -1.
         11    1    3    3    0    0 -0.27190636212E+01  0.76413132501E+01  0.39794767261E+01  0.90343350855E+01  0.51100000000E-03 0. -1.
        -11    1    3    3    0    0 -0.10066487760E+02  0.15334412867E+01 -0.97555197815E+01  0.14101623469E+02  0.51100000000E-03 0.  1.
        -12    1    3    3    0    0  0.27275471687E+02 -0.73873484767E+01 -0.22571174100E+02  0.36166036187E+02  0.00000000000E+00 0.  1.
</event>
<event>
 7    1  0.3449603E-013  0.5930193E+02  0.7816164E-02  0.1266605E+00
        -11   -1    0    0    0    0  0.00000000000E+00  0.00000000000E+00  0.45593999997E+02  0.45594000000E+02  0.51100000000E-03 0.  1.
         11   -1    0    0    0    0 -0.00000000000E+00 -0.00000000000E+00 -0.45593999997E+02  0.45594000000E+02  0.51100000000E-03 0. -1.
    9900012    2    1    2    0    0 -0.31662495046E+02 -0.81851271546E+00 -0.36794188618E+01  0.59301926570E+02  0.49999968162E+02 0.  0.
         12    1    1    2    0    0  0.31662495046E+02  0.81851271546E+00  0.36794188618E+01  0.31886073430E+02  0.00000000000E+00 0. -1.
         11    1    3    3    0    0 -0.20806974565E+02  0.18194731231E+01 -0.61576123808E+01  0.21775143249E+02  0.51100000000E-03 0.  1.
        -11    1    3    3    0    0  0.77680765044E+00 -0.14464385458E+02  0.11634534454E+02  0.18579135314E+02  0.51100000000E-03 0. -1.
         12    1    3    3    0    0 -0.11632328131E+02  0.11826399619E+02 -0.91563409350E+01  0.18947648008E+02  0.00000000000E+00 0. -1.
</event>
<event>
 7    1  0.3449603E-013  0.5930188E+02  0.7816164E-02  0.1266605E+00
        -11   -1    0    0    0    0  0.00000000000E+00  0.00000000000E+00  0.45593999997E+02  0.45594000000E+02  0.51100000000E-03 0.  1.
         11   -1    0    0    0    0 -0.00000000000E+00 -0.00000000000E+00 -0.45593999997E+02  0.45594000000E+02  0.51100000000E-03 0. -1.
    9900012    2    1    2    0    0 -0.14601612075E+02 -0.27011311442E+02  0.85968913857E+01  0.59301881351E+02  0.49999885693E+02 0.  0.
         12    1    1    2    0    0  0.14601612075E+02  0.27011311442E+02 -0.85968913857E+01  0.31886118649E+02  0.00000000000E+00 0. -1.
         11    1    3    3    0    0  0.10377729323E+02 -0.84527002765E+01 -0.11313012989E+02  0.17525115435E+02  0.51100000000E-03 0. -1.
        -11    1    3    3    0    0  0.28416648708E+01 -0.43783575485E+01  0.47815027159E+01  0.70786893238E+01  0.51100000000E-03 0.  1.
        -12    1    3    3    0    0 -0.27821006269E+02 -0.14180253617E+02  0.15128401659E+02  0.34698076592E+02  0.00000000000E+00 0.  1.
</event>
<event>
 7    1  0.3449603E-013  0.5930197E+02  0.7816164E-02  0.1266605E+00
        -11   -1    0    0    0    0  0.00000000000E+00  0.00000000000E+00  0.45593999997E+02  0.45594000000E+02  0.51100000000E-03 0. -1.
         11   -1    0    0    0    0 -0.00000000000E+00 -0.00000000000E+00 -0.45593999997E+02  0.45594000000E+02  0.51100000000E-03 0.  1.
    9900012    2    1    2    0    0  0.18181395585E+02  0.96712406889E+01 -0.24343849093E+02  0.59301968097E+02  0.50000043896E+02 0.  0.
         12    1    1    2    0    0 -0.18181395585E+02 -0.96712406889E+01  0.24343849093E+02  0.31886031903E+02  0.00000000000E+00 0. -1.
         11    1    3    3    0    0  0.26687939521E+02  0.12954949984E+02 -0.56992988241E+01  0.30208589049E+02  0.51100000000E-03 0. -1.
        -11    1    3    3    0    0 -0.40325673457E+01 -0.54964937025E+00  0.40853271514E+01  0.57665944910E+01  0.51100000000E-03 0.  1.
        -12    1    3    3    0    0 -0.44739765904E+01 -0.27340599251E+01 -0.22729877421E+02  0.23326784557E+02  0.00000000000E+00 0.  1.
</event>
<event>
 7    1  0.3449603E-013  0.5930196E+02  0.7816164E-02  0.1266605E+00
        -11   -1    0    0    0    0  0.00000000000E+00  0.00000000000E+00  0.45593999997E+02  0.45594000000E+02  0.51100000000E-03 0.  1.
         11   -1    0    0    0    0 -0.00000000000E+00 -0.00000000000E+00 -0.45593999997E+02  0.45594000000E+02  0.51100000000E-03 0. -1.
    9900012    2    1    2    0    0  0.27890226990E+02  0.15193956878E+02 -0.28281456299E+01  0.59301960816E+02  0.50000030617E+02 0.  0.
         12    1    1    2    0    0 -0.27890226990E+02 -0.15193956878E+02  0.28281456299E+01  0.31886039184E+02  0.00000000000E+00 0. -1.
         11    1    3    3    0    0 -0.24287195333E+01  0.17500347855E+02  0.68031865380E+01  0.18932622664E+02  0.51100000000E-03 0. -1.
        -11    1    3    3    0    0  0.59844110744E+00 -0.61299657560E+01 -0.83509336468E+01  0.10376545907E+02  0.51100000000E-03 0.  1.
        -12    1    3    3    0    0  0.29720505416E+02  0.38235747792E+01 -0.12803985212E+01  0.29992792245E+02  0.00000000000E+00 0.  1.
</event>
<event>
 7    1  0.3449603E-013  0.5930193E+02  0.7816164E-02  0.1266605E+00
        -11   -1    0    0    0    0  0.00000000000E+00  0.00000000000E+00  0.45593999997E+02  0.45594000000E+02  0.51100000000E-03 0.  1.
         11   -1    0    0    0    0 -0.00000000000E+00 -0.00000000000E+00 -0.45593999997E+02  0.45594000000E+02  0.51100000000E-03 0. -1.
    9900012    2    1    2    0    0  0.57551832057E+01  0.13324466150E+02  0.28391156001E+02  0.59301932964E+02  0.49999979823E+02 0.  0.
         12    1    1    2    0    0 -0.57551832057E+01 -0.13324466150E+02 -0.28391156001E+02  0.31886067036E+02  0.00000000000E+00 0. -1.
         11    1    3    3    0    0  0.55540302054E-01 -0.81823288118E+01 -0.94064770658E+00  0.82364074619E+01  0.51100000000E-03 0. -1.
        -11    1    3    3    0    0  0.17865117769E+02  0.74691216676E+01  0.25633700357E+02  0.32125329658E+02  0.51100000000E-03 0.  1.
         12    1    3    3    0    0 -0.12165474866E+02  0.14037673295E+02  0.36981033507E+01  0.18940195844E+02  0.00000000000E+00 0. -1.
</event>
<event>
 7    1  0.3449603E-013  0.5930194E+02  0.7816164E-02  0.1266605E+00
        -11   -1    0    0    0    0  0.00000000000E+00  0.00000000000E+00  0.45593999997E+02  0.45594000000E+02  0.51100000000E-03 0.  1.
         11   -1    0    0    0    0 -0.00000000000E+00 -0.00000000000E+00 -0.45593999997E+02  0.45594000000E+02  0.51100000000E-03 0. -1.
    9900012    2    1    2    0    0 -0.85724757577E+01 -0.21703046198E+02  0.21730423958E+02  0.59301939091E+02  0.49999990996E+02 0.  0.
         12    1    1    2    0    0  0.85724757577E+01  0.21703046198E+02 -0.21730423958E+02  0.31886060909E+02  0.00000000000E+00 0. -1.
         11    1    3    3    0    0 -0.45303173056E+01 -0.28102985912E+02 -0.99603922062E+00  0.28483217628E+02  0.51100000000E-03 0.  1.
        -11    1    3    3    0    0 -0.76733875160E+01  0.83742288495E+01  0.46457150632E+01  0.12271562798E+02  0.51100000000E-03 0. -1.
        -12    1    3    3    0    0  0.36312290639E+01 -0.19742891359E+01  0.18080748116E+02  0.18547158665E+02  0.00000000000E+00 0.  1.
</event>
<event>
 7    1  0.3449603E-013  0.5930193E+02  0.7816164E-02  0.1266605E+00
        -11   -1    0    0    0    0  0.00000000000E+00  0.00000000000E+00  0.45593999997E+02  0.45594000000E+02  0.51100000000E-03 0.  1.
         11   -1    0    0    0    0 -0.00000000000E+00 -0.00000000000E+00 -0.45593999997E+02  0.45594000000E+02  0.51100000000E-03 0. -1.
    9900012    2    1    2    0    0  0.36458475504E+01 -0.16659300246E+02  0.26942478731E+02  0.59301927033E+02  0.49999969006E+02 0.  0.
         12    1    1    2    0    0 -0.36458475504E+01  0.16659300246E+02 -0.26942478731E+02  0.31886072967E+02  0.00000000000E+00 0. -1.
         11    1    3    3    0    0 -0.59130082686E+01 -0.42455200332E+01 -0.78928563637E+01  0.10737098722E+02  0.51100000000E-03 0. -1.
        -11    1    3    3    0    0 -0.70783906150E+01 -0.15252393206E+02  0.15132593453E+02  0.22621549396E+02  0.51100000000E-03 0.  1.
        -12    1    3    3    0    0  0.16637246434E+02  0.28386129936E+01  0.19702741642E+02  0.25943278915E+02  0.00000000000E+00 0.  1.
</event>
<event>
 7    1  0.3449603E-013  0.5930195E+02  0.7816164E-02  0.1266605E+00
        -11   -1    0    0    0    0  0.00000000000E+00  0.00000000000E+00  0.45593999997E+02  0.45594000000E+02  0.51100000000E-03 0. -1.
         11   -1    0    0    0    0 -0.00000000000E+00 -0.00000000000E+00 -0.45593999997E+02  0.45594000000E+02  0.51100000000E-03 0.  1.
    9900012    2    1    2    0    0  0.92785815349E-02 -0.23612148329E+02 -0.21428631712E+02  0.59301954591E+02  0.50000019264E+02 0.  0.
         12    1    1    2    0    0 -0.92785815349E-02  0.23612148329E+02  0.21428631712E+02  0.31886045409E+02  0.00000000000E+00 0. -1.
         11    1    3    3    0    0 -0.48488794350E+01 -0.49830252321E+01  0.12050639054E+02  0.13912586895E+02  0.51100000000E-03 0. -1.
        -11    1    3    3    0    0  0.65656691175E+01 -0.38604794031E+01  0.11507353939E+01  0.77029542638E+01  0.51100000000E-03 0.  1.
        -12    1    3    3    0    0 -0.17075111010E+01 -0.14768643694E+02 -0.34630006160E+02  0.37686413432E+02  0.00000000000E+00 0.  1.
</event>
<event>
 7    1  0.3449603E-013  0.5930191E+02  0.7816164E-02  0.1266605E+00
        -11   -1    0    0    0    0  0.00000000000E+00  0.00000000000E+00  0.45593999997E+02  0.45594000000E+02  0.51100000000E-03 0. -1.
         11   -1    0    0    0    0 -0.00000000000E+00 -0.00000000000E+00 -0.45593999997E+02  0.45594000000E+02  0.51100000000E-03 0.  1.
    9900012    2    1    2    0    0 -0.29571546063E+02  0.50898422989E+01  0.10786094727E+02  0.59301911017E+02  0.49999939796E+02 0.  0.
         12    1    1    2    0    0  0.29571546063E+02 -0.50898422989E+01 -0.10786094727E+02  0.31886088983E+02  0.00000000000E+00 0. -1.
         11    1    3    3    0    0  0.74654885470E+01  0.57973753403E+01 -0.74926991804E+01  0.12061659146E+02  0.51100000000E-03 0. -1.
        -11    1    3    3    0    0 -0.18196762371E+02  0.29552537401E+01 -0.28962968098E+01  0.18661302766E+02  0.51100000000E-03 0.  1.
        -12    1    3    3    0    0 -0.18840272239E+02 -0.36627867815E+01  0.21175090717E+02  0.28578949104E+02  0.00000000000E+00 0.  1.
</event>
<event>
 7    1  0.3449603E-013  0.5930192E+02  0.7816164E-02  0.1266605E+00
        -11   -1    0    0    0    0  0.00000000000E+00  0.00000000000E+00  0.45593999997E+02  0.45594000000E+02  0.51100000000E-03 0.  1.
         11   -1    0    0    0    0 -0.00000000000E+00 -0.00000000000E+00 -0.45593999997E+02  0.45594000000E+02  0.51100000000E-03 0. -1.
    9900012    2    1    2    0    0 -0.97370653963E+01  0.63236902919E+01  0.29697184542E+02  0.59301917281E+02  0.49999951220E+02 0.  0.
         12    1    1    2    0    0  0.97370653963E+01 -0.63236902919E+01 -0.29697184542E+02  0.31886082719E+02  0.00000000000E+00 0. -1.
         11    1    3    3    0    0 -0.60518158370E+01  0.70227035426E+01  0.73134298085E+01  0.11808009815E+02  0.51100000000E-03 0. -1.
        -11    1    3    3    0    0 -0.13925787565E+02 -0.35106389240E+01  0.30773824342E+02  0.33959982477E+02  0.51100000000E-03 0.  1.
         12    1    3    3    0    0  0.10240538005E+02  0.28116256733E+01 -0.83900696082E+01  0.13533924989E+02  0.00000000000E+00 0. -1.
</event>
<event>
 7    1  0.3449603E-013  0.5930198E+02  0.7816164E-02  0.1266605E+00
        -11   -1    0    0    0    0  0.00000000000E+00  0.00000000000E+00  0.45593999997E+02  0.45594000000E+02  0.51100000000E-03 0. -1.
         11   -1    0    0    0    0 -0.00000000000E+00 -0.00000000000E+00 -0.45593999997E+02  0.45594000000E+02  0.51100000000E-03 0.  1.
    9900012    2    1    2    0    0  0.91103003256E+01  0.27905212426E+01 -0.30429153885E+02  0.59301984460E+02  0.50000073739E+02 0.  0.
         12    1    1    2    0    0 -0.91103003256E+01 -0.27905212426E+01  0.30429153885E+02  0.31886015540E+02  0.00000000000E+00 0. -1.
         11    1    3    3    0    0  0.79221203010E+00  0.15262753387E+02 -0.51384920517E+01  0.16123998935E+02  0.51100000000E-03 0. -1.
        -11    1    3    3    0    0  0.11526167620E+00  0.10015166602E+02 -0.29645315938E+01  0.10445348014E+02  0.51100000000E-03 0.  1.
        -12    1    3    3    0    0  0.82028266193E+01 -0.22487398746E+02 -0.22326130240E+02  0.32732637510E+02  0.00000000000E+00 0.  1.
</event>
<event>
 7    1  0.3449603E-013  0.5930190E+02  0.7816164E-02  0.1266605E+00
        -11   -1    0    0    0    0  0.00000000000E+00  0.00000000000E+00  0.45593999997E+02  0.45594000000E+02  0.51100000000E-03 0.  1.
         11   -1    0    0    0    0 -0.00000000000E+00 -0.00000000000E+00 -0.45593999997E+02  0.45594000000E+02  0.51100000000E-03 0. -1.
    9900012    2    1    2    0    0  0.58185081375E+01 -0.17922698004E+01  0.31299454365E+02  0.59301904104E+02  0.49999927188E+02 0.  0.
         12    1    1    2    0    0 -0.58185081375E+01  0.17922698004E+01 -0.31299454365E+02  0.31886095896E+02  0.00000000000E+00 0. -1.
         11    1    3    3    0    0 -0.15252246952E+02 -0.21961313489E+01  0.73814633800E+01  0.17086252716E+02  0.51100000000E-03 0. -1.
        -11    1    3    3    0    0 -0.37699663203E+01  0.56602974304E+01  0.12805944281E+02  0.14499786973E+02  0.51100000000E-03 0.  1.
        -12    1    3    3    0    0  0.24840721410E+02 -0.52564358820E+01  0.11112046704E+02  0.27715864415E+02  0.00000000000E+00 0.  1.
</event>
<event>
 7    1  0.3449603E-013  0.5930184E+02  0.7816164E-02  0.1266605E+00
        -11   -1    0    0    0    0  0.00000000000E+00  0.00000000000E+00  0.45593999997E+02  0.45594000000E+02  0.51100000000E-03 0.  1.
         11   -1    0    0    0    0 -0.00000000000E+00 -0.00000000000E+00 -0.45593999997E+02  0.45594000000E+02  0.51100000000E-03 0. -1.
    9900012    2    1    2    0    0 -0.16255790606E+01  0.20795037136E+02  0.24117445154E+02  0.59301839404E+02  0.49999809192E+02 0.  0.
         12    1    1    2    0    0  0.16255790606E+01 -0.20795037136E+02 -0.24117445154E+02  0.31886160596E+02  0.00000000000E+00 0. -1.
         11    1    3    3    0    0  0.32912717282E+01  0.11908454354E+01  0.13479922542E+02  0.13926912595E+02  0.51100000000E-03 0. -1.
        -11    1    3    3    0    0 -0.56311199547E+01  0.26543767561E+02  0.19993101285E+02  0.33704676345E+02  0.51100000000E-03 0.  1.
         12    1    3    3    0    0  0.71426916598E+00 -0.69395758609E+01 -0.93555786730E+01  0.11670250463E+02  0.00000000000E+00 0. -1.
</event>
<event>
 7    1  0.3449603E-013  0.5930194E+02  0.7816164E-02  0.1266605E+00
        -11   -1    0    0    0    0  0.00000000000E+00  0.00000000000E+00  0.45593999997E+02  0.45594000000E+02  0.51100000000E-03 0. -1.
         11   -1    0    0    0    0 -0.00000000000E+00 -0.00000000000E+00 -0.45593999997E+02  0.45594000000E+02  0.51100000000E-03 0.  1.
    9900012    2    1    2    0    0 -0.53511492769E+01 -0.59655982504E+01 -0.30862558703E+02  0.59301942063E+02  0.49999996416E+02 0.  0.
         12    1    1    2    0    0  0.53511492769E+01  0.59655982504E+01  0.30862558703E+02  0.31886057937E+02  0.00000000000E+00 0. -1.
         11    1    3    3    0    0 -0.55493056754E+00 -0.13675670796E+02 -0.21218149176E+02  0.25249589588E+02  0.51100000000E-03 0. -1.
        -11    1    3    3    0    0  0.23806252731E+01 -0.84037449592E+01 -0.13420903457E+02  0.16012837222E+02  0.51100000000E-03 0.  1.
        -12    1    3    3    0    0 -0.71768439824E+01  0.16113817505E+02  0.37764939305E+01  0.18039515252E+02  0.00000000000E+00 0.  1.
</event>
<event>
 7    1  0.3449603E-013  0.5930195E+02  0.7816164E-02  0.1266605E+00
        -11   -1    0    0    0    0  0.00000000000E+00  0.00000000000E+00  0.45593999997E+02  0.45594000000E+02  0.51100000000E-03 0.  1.
         11   -1    0    0    0    0 -0.00000000000E+00 -0.00000000000E+00 -0.45593999997E+02  0.45594000000E+02  0.51100000000E-03 0. -1.
    9900012    2    1    2    0    0  0.16588171194E+02 -0.21691043459E+02  0.16463646393E+02  0.59301945957E+02  0.50000003518E+02 0.  0.
         12    1    1    2    0    0 -0.16588171194E+02  0.21691043459E+02 -0.16463646393E+02  0.31886054043E+02  0.00000000000E+00 0. -1.
         11    1    3    3    0    0 -0.20045663707E+01  0.51405556066E+00  0.78060474732E+01  0.80756991567E+01  0.51100000000E-03 0. -1.
        -11    1    3    3    0    0 -0.48005963881E+01 -0.98996268998E+01  0.19712637474E+02  0.22575128236E+02  0.51100000000E-03 0.  1.
         12    1    3    3    0    0  0.23393333953E+02 -0.12305472120E+02 -0.11055038554E+02  0.28651118563E+02  0.00000000000E+00 0. -1.
</event>
<event>
 7    1  0.3449603E-013  0.5930193E+02  0.7816164E-02  0.1266605E+00
        -11   -1    0    0    0    0  0.00000000000E+00  0.00000000000E+00  0.45593999997E+02  0.45594000000E+02  0.51100000000E-03 0. -1.
         11   -1    0    0    0    0 -0.00000000000E+00 -0.00000000000E+00 -0.45593999997E+02  0.45594000000E+02  0.51100000000E-03 0.  1.
    9900012    2    1    2    0    0  0.51235519034E+01  0.17594799020E+02 -0.26093940173E+02  0.59301930151E+02  0.49999974692E+02 0.  0.
         12    1    1    2    0    0 -0.51235519034E+01 -0.17594799020E+02  0.26093940173E+02  0.31886069849E+02  0.00000000000E+00 0. -1.
         11    1    3    3    0    0 -0.96760352375E+01 -0.77206062273E+01 -0.18672435835E+02  0.22402974774E+02  0.51100000000E-03 0. -1.
        -11    1    3    3    0    0 -0.29861026448E+01  0.34415575597E+01 -0.74194168964E+01  0.87068292039E+01  0.51100000000E-03 0.  1.
        -12    1    3    3    0    0  0.17785689786E+02  0.21873847688E+02 -0.20874413508E-02  0.28192126173E+02  0.00000000000E+00 0.  1.
</event>
<event>
 7    1  0.3449603E-013  0.5930194E+02  0.7816164E-02  0.1266605E+00
        -11   -1    0    0    0    0  0.00000000000E+00  0.00000000000E+00  0.45593999997E+02  0.45594000000E+02  0.51100000000E-03 0.  1.
         11   -1    0    0    0    0 -0.00000000000E+00 -0.00000000000E+00 -0.45593999997E+02  0.45594000000E+02  0.51100000000E-03 0. -1.
    9900012    2    1    2    0    0 -0.28584579960E+02  0.10528373435E+02  0.94231563873E+01  0.59301941370E+02  0.49999995152E+02 0.  0.
         12    1    1    2    0    0  0.28584579960E+02 -0.10528373435E+02 -0.94231563873E+01  0.31886058630E+02  0.00000000000E+00 0. -1.
         11    1    3    3    0    0 -0.91922683897E+01  0.28631632097E+02  0.45208680092E+00  0.30074449911E+02  0.51100000000E-03 0. -1.
        -11    1    3    3    0    0 -0.18604424435E+01 -0.61264873051E+01  0.35204468647E+01  0.73067529843E+01  0.51100000000E-03 0.  1.
        -12    1    3    3    0    0 -0.17531869127E+02 -0.11976771357E+02  0.54506227217E+01  0.21920738475E+02  0.00000000000E+00 0.  1.
</event>
<event>
 7    1  0.3449603E-013  0.5930196E+02  0.7816164E-02  0.1266605E+00
        -11   -1    0    0    0    0  0.00000000000E+00  0.00000000000E+00  0.45593999997E+02  0.45594000000E+02  0.51100000000E-03 0.  1.
         11   -1    0    0    0    0 -0.00000000000E+00 -0.00000000000E+00 -0.45593999997E+02  0.45594000000E+02  0.51100000000E-03 0. -1.
    9900012    2    1    2    0    0 -0.14216491073E+02  0.27626997470E+02 -0.71665889572E+01  0.59301959090E+02  0.50000027470E+02 0.  0.
         12    1    1    2    0    0  0.14216491073E+02 -0.27626997470E+02  0.71665889572E+01  0.31886040910E+02  0.00000000000E+00 0. -1.
         11    1    3    3    0    0  0.12303326178E+02  0.18062122213E+01 -0.10651005459E+02  0.16373092414E+02  0.51100000000E-03 0. -1.
        -11    1    3    3    0    0  0.24784787321E+01 -0.12855928336E+01  0.15356662200E+01  0.31865148296E+01  0.51100000000E-03 0.  1.
        -12    1    3    3    0    0 -0.28998295983E+02  0.27106378082E+02  0.19487502822E+01  0.39742351847E+02  0.00000000000E+00 0.  1.
</event>
<event>
 7    1  0.3449603E-013  0.5930194E+02  0.7816164E-02  0.1266605E+00
        -11   -1    0    0    0    0  0.00000000000E+00  0.00000000000E+00  0.45593999997E+02  0.45594000000E+02  0.51100000000E-03 0. -1.
         11   -1    0    0    0    0 -0.00000000000E+00 -0.00000000000E+00 -0.45593999997E+02  0.45594000000E+02  0.51100000000E-03 0.  1.
    9900012    2    1    2    0    0  0.24111438904E+02  0.13680153402E+02 -0.15754774612E+02  0.59301937117E+02  0.49999987397E+02 0.  0.
         12    1    1    2    0    0 -0.24111438904E+02 -0.13680153402E+02  0.15754774612E+02  0.31886062883E+02  0.00000000000E+00 0. -1.
         11    1    3    3    0    0  0.26502830597E+02 -0.31569245865E+01 -0.14015232206E+02  0.30146192737E+02  0.51100000000E-03 0.  1.
        -11    1    3    3    0    0 -0.47438651088E+01 -0.42686999408E+01  0.35055347682E+01  0.72811283210E+01  0.51100000000E-03 0. -1.
        -12    1    3    3    0    0  0.23524734155E+01  0.21105777929E+02 -0.52450771739E+01  0.21874616059E+02  0.00000000000E+00 0.  1.
</event>
<event>
 7    1  0.3449603E-013  0.5930198E+02  0.7816164E-02  0.1266605E+00
        -11   -1    0    0    0    0  0.00000000000E+00  0.00000000000E+00  0.45593999997E+02  0.45594000000E+02  0.51100000000E-03 0. -1.
         11   -1    0    0    0    0 -0.00000000000E+00 -0.00000000000E+00 -0.45593999997E+02  0.45594000000E+02  0.51100000000E-03 0.  1.
    9900012    2    1    2    0    0  0.11939405203E+02  0.44795646707E+01 -0.29225025731E+02  0.59301983861E+02  0.50000072647E+02 0.  0.
         12    1    1    2    0    0 -0.11939405203E+02 -0.44795646707E+01  0.29225025731E+02  0.31886016139E+02  0.00000000000E+00 0. -1.
         11    1    3    3    0    0  0.84156083281E+01 -0.74383499848E+01  0.22488448894E+01  0.11454641750E+02  0.51100000000E-03 0. -1.
        -11    1    3    3    0    0  0.69439372582E+01 -0.93230535739E+01 -0.27258584635E+01  0.11940179949E+02  0.51100000000E-03 0.  1.
        -12    1    3    3    0    0 -0.34201403832E+01  0.21240968229E+02 -0.28748012157E+02  0.35907162162E+02  0.00000000000E+00 0.  1.
</event>
<event>
 7    1  0.3449603E-013  0.5930194E+02  0.7816164E-02  0.1266605E+00
        -11   -1    0    0    0    0  0.00000000000E+00  0.00000000000E+00  0.45593999997E+02  0.45594000000E+02  0.51100000000E-03 0. -1.
         11   -1    0    0    0    0 -0.00000000000E+00 -0.00000000000E+00 -0.45593999997E+02  0.45594000000E+02  0.51100000000E-03 0.  1.
    9900012    2    1    2    0    0  0.15088857184E+02  0.19627570957E+02 -0.20094910000E+02  0.59301944103E+02  0.50000000137E+02 0.  0.
         12    1    1    2    0    0 -0.15088857184E+02 -0.19627570957E+02  0.20094910000E+02  0.31886055897E+02  0.00000000000E+00 0. -1.
         11    1    3    3    0    0  0.55546729970E+01  0.83475872329E+00 -0.47600975830E+01  0.73627266342E+01  0.51100000000E-03 0. -1.
        -11    1    3    3    0    0  0.16410581993E+01 -0.14892101957E+02 -0.56467750362E+01  0.16011053722E+02  0.51100000000E-03 0.  1.
         12    1    3    3    0    0  0.78931259877E+01  0.33684914191E+02 -0.96880373805E+01  0.35928163746E+02  0.00000000000E+00 0. -1.
</event>
<event>
 7    1  0.3449603E-013  0.5930188E+02  0.7816164E-02  0.1266605E+00
        -11   -1    0    0    0    0  0.00000000000E+00  0.00000000000E+00  0.45593999997E+02  0.45594000000E+02  0.51100000000E-03 0.  1.
         11   -1    0    0    0    0 -0.00000000000E+00 -0.00000000000E+00 -0.45593999997E+02  0.45594000000E+02  0.51100000000E-03 0. -1.
    9900012    2    1    2    0    0  0.25409846699E+02 -0.18353532088E+02  0.58490968090E+01  0.59301884168E+02  0.49999890829E+02 0.  0.
         12    1    1    2    0    0 -0.25409846699E+02  0.18353532088E+02 -0.58490968090E+01  0.31886115832E+02  0.00000000000E+00 0. -1.
         11    1    3    3    0    0  0.24835602901E+01  0.66625840059E+00 -0.24478539479E+01  0.35502057944E+01  0.51100000000E-03 0. -1.
        -11    1    3    3    0    0  0.87437660861E+01  0.15186583918E+02  0.64583234148E+01  0.18676073411E+02  0.51100000000E-03 0.  1.
        -12    1    3    3    0    0  0.14182520323E+02 -0.34206374407E+02  0.18386273421E+01  0.37075604962E+02  0.00000000000E+00 0.  1.
</event>
<event>
 7    1  0.3449603E-013  0.5930186E+02  0.7816164E-02  0.1266605E+00
        -11   -1    0    0    0    0  0.00000000000E+00  0.00000000000E+00  0.45593999997E+02  0.45594000000E+02  0.51100000000E-03 0.  1.
         11   -1    0    0    0    0 -0.00000000000E+00 -0.00000000000E+00 -0.45593999997E+02  0.45594000000E+02  0.51100000000E-03 0. -1.
    9900012    2    1    2    0    0  0.13951163024E+02  0.54120823862E+00  0.28667021960E+02  0.59301858745E+02  0.49999844465E+02 0.  0.
         12    1    1    2    0    0 -0.13951163024E+02 -0.54120823862E+00 -0.28667021960E+02  0.31886141255E+02  0.00000000000E+00 0. -1.
         11    1    3    3    0    0  0.15676884242E+02 -0.85755858169E+01  0.30529143528E+02  0.35374199305E+02  0.51100000000E-03 0. -1.
        -11    1    3    3    0    0 -0.61676363317E+01 -0.88485888275E+00  0.73409364307E+01  0.96287102513E+01  0.51100000000E-03 0.  1.
         12    1    3    3    0    0  0.44419151134E+01  0.10001652938E+02 -0.92030579994E+01  0.14298949189E+02  0.00000000000E+00 0. -1.
</event>
<event>
 7    1  0.3449603E-013  0.5930195E+02  0.7816164E-02  0.1266605E+00
        -11   -1    0    0    0    0  0.00000000000E+00  0.00000000000E+00  0.45593999997E+02  0.45594000000E+02  0.51100000000E-03 0.  1.
         11   -1    0    0    0    0 -0.00000000000E+00 -0.00000000000E+00 -0.45593999997E+02  0.45594000000E+02  0.51100000000E-03 0. -1.
    9900012    2    1    2    0    0 -0.12246804319E+02 -0.23025621190E+02 -0.18345475721E+02  0.59301954045E+02  0.50000018269E+02 0.  0.
         12    1    1    2    0    0  0.12246804319E+02  0.23025621190E+02  0.18345475721E+02  0.31886045955E+02  0.00000000000E+00 0. -1.
         11    1    3    3    0    0 -0.71368460146E+01 -0.11918122851E+01  0.13665720934E+01  0.73635933556E+01  0.51100000000E-03 0. -1.
        -11    1    3    3    0    0 -0.13069615868E+02 -0.25803091145E+02 -0.27651946239E+02  0.40015553259E+02  0.51100000000E-03 0.  1.
         12    1    3    3    0    0  0.79596575634E+01  0.39692822395E+01  0.79398984249E+01  0.11922807430E+02  0.00000000000E+00 0. -1.
</event>
<event>
 7    1  0.3449603E-013  0.5930189E+02  0.7816164E-02  0.1266605E+00
        -11   -1    0    0    0    0  0.00000000000E+00  0.00000000000E+00  0.45593999997E+02  0.45594000000E+02  0.51100000000E-03 0.  1.
         11   -1    0    0    0    0 -0.00000000000E+00 -0.00000000000E+00 -0.45593999997E+02  0.45594000000E+02  0.51100000000E-03 0. -1.
    9900012    2    1    2    0    0 -0.73944011912E+01 -0.12990160575E+02  0.28165627689E+02  0.59301889797E+02  0.49999901096E+02 0.  0.
         12    1    1    2    0    0  0.73944011912E+01  0.12990160575E+02 -0.28165627689E+02  0.31886110203E+02  0.00000000000E+00 0. -1.
         11    1    3    3    0    0 -0.96909107606E+00 -0.44720878486E+01 -0.14707166542E+01  0.48064243443E+01  0.51100000000E-03 0. -1.
        -11    1    3    3    0    0 -0.16207586244E+02 -0.20049014496E+02  0.60549281675E+01  0.26482276894E+02  0.51100000000E-03 0.  1.
         12    1    3    3    0    0  0.97822761294E+01  0.11530941769E+02  0.23581416176E+02  0.28013188559E+02  0.00000000000E+00 0. -1.
</event>
<event>
 7    1  0.3449603E-013  0.5930198E+02  0.7816164E-02  0.1266605E+00
        -11   -1    0    0    0    0  0.00000000000E+00  0.00000000000E+00  0.45593999997E+02  0.45594000000E+02  0.51100000000E-03 0.  1.
         11   -1    0    0    0    0 -0.00000000000E+00 -0.00000000000E+00 -0.45593999997E+02  0.45594000000E+02  0.51100000000E-03 0. -1.
    9900012    2    1    2    0    0 -0.46541136375E-01  0.19680840639E+01  0.31825192363E+02  0.59301978142E+02  0.50000062217E+02 0.  0.
         12    1    1    2    0    0  0.46541136375E-01 -0.19680840639E+01 -0.31825192363E+02  0.31886021858E+02  0.00000000000E+00 0. -1.
         11    1    3    3    0    0 -0.12925864007E+01 -0.52255315877E+01  0.31732800396E+01  0.62487331875E+01  0.51100000000E-03 0. -1.
        -11    1    3    3    0    0  0.21884757666E+02  0.95415797353E+01  0.15711135820E+02  0.28580135601E+02  0.51100000000E-03 0.  1.
         12    1    3    3    0    0 -0.20638712402E+02 -0.23479640836E+01  0.12940776503E+02  0.24473109354E+02  0.00000000000E+00 0. -1.
</event>
<event>
 7    1  0.3449603E-013  0.5930194E+02  0.7816164E-02  0.1266605E+00
        -11   -1    0    0    0    0  0.00000000000E+00  0.00000000000E+00  0.45593999997E+02  0.45594000000E+02  0.51100000000E-03 0.  1.
         11   -1    0    0    0    0 -0.00000000000E+00 -0.00000000000E+00 -0.45593999997E+02  0.45594000000E+02  0.51100000000E-03 0. -1.
    9900012    2    1    2    0    0 -0.91723381167E+01 -0.23950189595E+02 -0.18946703490E+02  0.59301938134E+02  0.49999989252E+02 0.  0.
         12    1    1    2    0    0  0.91723381167E+01  0.23950189595E+02  0.18946703490E+02  0.31886061866E+02  0.00000000000E+00 0. -1.
         11    1    3    3    0    0 -0.10245350083E+01 -0.84747792275E+01 -0.10485392399E+01  0.86006389144E+01  0.51100000000E-03 0. -1.
        -11    1    3    3    0    0 -0.25930049823E+02 -0.14214355072E+02 -0.12166937109E+02  0.31975767900E+02  0.51100000000E-03 0.  1.
         12    1    3    3    0    0  0.17782246714E+02 -0.12610552962E+01 -0.57312271410E+01  0.18725531320E+02  0.00000000000E+00 0. -1.
</event>
<event>
 7    1  0.3449603E-013  0.5930197E+02  0.7816164E-02  0.1266605E+00
        -11   -1    0    0    0    0  0.00000000000E+00  0.00000000000E+00  0.45593999997E+02  0.45594000000E+02  0.51100000000E-03 0.  1.
         11   -1    0    0    0    0 -0.00000000000E+00 -0.00000000000E+00 -0.45593999997E+02  0.45594000000E+02  0.51100000000E-03 0. -1.
    9900012    2    1    2    0    0  0.13581659692E+02  0.12643917271E+01  0.28821155713E+02  0.59301965705E+02  0.50000039534E+02 0.  0.
         12    1    1    2    0    0 -0.13581659692E+02 -0.12643917271E+01 -0.28821155713E+02  0.31886034295E+02  0.00000000000E+00 0. -1.
         11    1    3    3    0    0  0.86156603171E+01  0.48318945512E+01  0.34506548155E+01  0.10463451943E+02  0.51100000000E-03 0. -1.
        -11    1    3    3    0    0  0.22231414320E+01 -0.20589593815E+02  0.23765100992E+02  0.31522273978E+02  0.51100000000E-03 0.  1.
         12    1    3    3    0    0  0.27428579430E+01  0.17022090991E+02  0.16053999053E+01  0.17316239784E+02  0.00000000000E+00 0. -1.
</event>
<event>
 7    1  0.3449603E-013  0.5930190E+02  0.7816164E-02  0.1266605E+00
        -11   -1    0    0    0    0  0.00000000000E+00  0.00000000000E+00  0.45593999997E+02  0.45594000000E+02  0.51100000000E-03 0. -1.
         11   -1    0    0    0    0 -0.00000000000E+00 -0.00000000000E+00 -0.45593999997E+02  0.45594000000E+02  0.51100000000E-03 0.  1.
    9900012    2    1    2    0    0  0.14970509903E+02 -0.22775022446E+02 -0.16550100551E+02  0.59301895779E+02  0.49999912006E+02 0.  0.
         12    1    1    2    0    0 -0.14970509903E+02  0.22775022446E+02  0.16550100551E+02  0.31886104221E+02  0.00000000000E+00 0. -1.
         11    1    3    3    0    0 -0.12559940809E+01 -0.24134912244E+02 -0.12762314708E+02  0.27330352854E+02  0.51100000000E-03 0.  1.
        -11    1    3    3    0    0 -0.25768414148E+01  0.89272265796E+01  0.41853197951E+01  0.10190799190E+02  0.51100000000E-03 0. -1.
        -12    1    3    3    0    0  0.18803345399E+02 -0.75673367816E+01 -0.79731056379E+01  0.21780743735E+02  0.00000000000E+00 0.  1.
</event>
<event>
 7    1  0.3449603E-013  0.5930196E+02  0.7816164E-02  0.1266605E+00
        -11   -1    0    0    0    0  0.00000000000E+00  0.00000000000E+00  0.45593999997E+02  0.45594000000E+02  0.51100000000E-03 0.  1.
         11   -1    0    0    0    0 -0.00000000000E+00 -0.00000000000E+00 -0.45593999997E+02  0.45594000000E+02  0.51100000000E-03 0. -1.
    9900012    2    1    2    0    0 -0.15680997582E+02 -0.26321631036E+02 -0.88316140034E+01  0.59301963065E+02  0.50000034719E+02 0.  0.
         12    1    1    2    0    0  0.15680997582E+02  0.26321631036E+02  0.88316140034E+01  0.31886036935E+02  0.00000000000E+00 0. -1.
         11    1    3    3    0    0 -0.15946699304E+02  0.79026101692E+01 -0.28005795111E+01  0.18016428948E+02  0.51100000000E-03 0. -1.
        -11    1    3    3    0    0  0.11320882377E+01  0.22420344125E+01 -0.40369484556E+01  0.47545026216E+01  0.51100000000E-03 0.  1.
        -12    1    3    3    0    0 -0.86638651592E+00 -0.36466275617E+02 -0.19940860367E+01  0.36531031495E+02  0.00000000000E+00 0.  1.
</event>
<event>
 7    1  0.3449603E-013  0.5930196E+02  0.7816164E-02  0.1266605E+00
        -11   -1    0    0    0    0  0.00000000000E+00  0.00000000000E+00  0.45593999997E+02  0.45594000000E+02  0.51100000000E-03 0.  1.
         11   -1    0    0    0    0 -0.00000000000E+00 -0.00000000000E+00 -0.45593999997E+02  0.45594000000E+02  0.51100000000E-03 0. -1.
    9900012    2    1    2    0    0  0.30377852505E+02 -0.38054965822E+00  0.96830095769E+01  0.59301962063E+02  0.50000032892E+02 0.  0.
         12    1    1    2    0    0 -0.30377852505E+02  0.38054965822E+00 -0.96830095769E+01  0.31886037937E+02  0.00000000000E+00 0. -1.
         11    1    3    3    0    0  0.86147254331E+01 -0.34878274688E+01 -0.66164000041E+01  0.11408557491E+02  0.51100000000E-03 0. -1.
        -11    1    3    3    0    0  0.30790463275E+02  0.54275116285E-02  0.20983471038E+02  0.37260685920E+02  0.51100000000E-03 0.  1.
         12    1    3    3    0    0 -0.90273362031E+01  0.31018502990E+01 -0.46840614574E+01  0.10632718652E+02  0.00000000000E+00 0. -1.
</event>
<event>
 7    1  0.3449603E-013  0.5930195E+02  0.7816164E-02  0.1266605E+00
        -11   -1    0    0    0    0  0.00000000000E+00  0.00000000000E+00  0.45593999997E+02  0.45594000000E+02  0.51100000000E-03 0. -1.
         11   -1    0    0    0    0 -0.00000000000E+00 -0.00000000000E+00 -0.45593999997E+02  0.45594000000E+02  0.51100000000E-03 0.  1.
    9900012    2    1    2    0    0 -0.21308917079E+02 -0.88491349643E+01 -0.22007789428E+02  0.59301953958E+02  0.50000018111E+02 0.  0.
         12    1    1    2    0    0  0.21308917079E+02  0.88491349643E+01  0.22007789428E+02  0.31886046042E+02  0.00000000000E+00 0. -1.
         11    1    3    3    0    0  0.87176511362E+01 -0.65998239641E+01  0.53957605276E+01  0.12193004126E+02  0.51100000000E-03 0. -1.
        -11    1    3    3    0    0 -0.13764412176E+02 -0.12861728555E+02 -0.14828089372E+02  0.23974055532E+02  0.51100000000E-03 0.  1.
        -12    1    3    3    0    0 -0.16262156039E+02  0.10612417554E+02 -0.12575460583E+02  0.23134894300E+02  0.00000000000E+00 0.  1.
</event>
<event>
 7    1  0.3449603E-013  0.5930193E+02  0.7816164E-02  0.1266605E+00
        -11   -1    0    0    0    0  0.00000000000E+00  0.00000000000E+00  0.45593999997E+02  0.45594000000E+02  0.51100000000E-03 0.  1.
         11   -1    0    0    0    0 -0.00000000000E+00 -0.00000000000E+00 -0.45593999997E+02  0.45594000000E+02  0.51100000000E-03 0. -1.
    9900012    2    1    2    0    0  0.17104193580E+02 -0.10281486533E+02  0.24868835493E+02  0.59301931222E+02  0.49999976645E+02 0.  0.
         12    1    1    2    0    0 -0.17104193580E+02  0.10281486533E+02 -0.24868835493E+02  0.31886068778E+02  0.00000000000E+00 0. -1.
         11    1    3    3    0    0  0.18481303759E+02 -0.16649349844E+02  0.16835773973E+02  0.30036689638E+02  0.51100000000E-03 0. -1.
        -11    1    3    3    0    0  0.93018230781E+01  0.12156347373E+02  0.76506434387E+01  0.17112365100E+02  0.51100000000E-03 0.  1.
         12    1    3    3    0    0 -0.10678933257E+02 -0.57884840613E+01  0.38241808188E+00  0.12152876484E+02  0.00000000000E+00 0. -1.
</event>
<event>
 7    1  0.3449603E-013  0.5930193E+02  0.7816164E-02  0.1266605E+00
        -11   -1    0    0    0    0  0.00000000000E+00  0.00000000000E+00  0.45593999997E+02  0.45594000000E+02  0.51100000000E-03 0.  1.
         11   -1    0    0    0    0 -0.00000000000E+00 -0.00000000000E+00 -0.45593999997E+02  0.45594000000E+02  0.51100000000E-03 0. -1.
    9900012    2    1    2    0    0  0.23827066293E+02  0.40934369494E+01  0.20790287875E+02  0.59301931191E+02  0.49999976588E+02 0.  0.
         12    1    1    2    0    0 -0.23827066293E+02 -0.40934369494E+01 -0.20790287875E+02  0.31886068809E+02  0.00000000000E+00 0. -1.
         11    1    3    3    0    0 -0.79876346383E+01  0.27540580640E+01  0.86217142214E+01  0.12071499464E+02  0.51100000000E-03 0. -1.
        -11    1    3    3    0    0  0.14372673473E+02 -0.51747497705E+01  0.21523652768E+02  0.26393548581E+02  0.51100000000E-03 0.  1.
        -12    1    3    3    0    0  0.17442027458E+02  0.65141286559E+01 -0.93550791142E+01  0.20836883146E+02  0.00000000000E+00 0.  1.
</event>
<event>
 7    1  0.3449603E-013  0.5930194E+02  0.7816164E-02  0.1266605E+00
        -11   -1    0    0    0    0  0.00000000000E+00  0.00000000000E+00  0.45593999997E+02  0.45594000000E+02  0.51100000000E-03 0.  1.
         11   -1    0    0    0    0 -0.00000000000E+00 -0.00000000000E+00 -0.45593999997E+02  0.45594000000E+02  0.51100000000E-03 0. -1.
    9900012    2    1    2    0    0  0.43380804658E+00 -0.25709775712E+02  0.18855774741E+02  0.59301937250E+02  0.49999987640E+02 0.  0.
         12    1    1    2    0    0 -0.43380804658E+00  0.25709775712E+02 -0.18855774741E+02  0.31886062750E+02  0.00000000000E+00 0. -1.
         11    1    3    3    0    0 -0.33634349810E+01  0.14483788505E+01  0.72796208024E+01  0.81488266305E+01  0.51100000000E-03 0. -1.
        -11    1    3    3    0    0 -0.18717108869E+02 -0.16325649296E+02  0.54216083988E+01  0.25421463908E+02  0.51100000000E-03 0.  1.
         12    1    3    3    0    0  0.22514351897E+02 -0.10832505267E+02  0.61545455400E+01  0.25731646712E+02  0.00000000000E+00 0. -1.
</event>
<event>
 7    1  0.3449603E-013  0.5930193E+02  0.7816164E-02  0.1266605E+00
        -11   -1    0    0    0    0  0.00000000000E+00  0.00000000000E+00  0.45593999997E+02  0.45594000000E+02  0.51100000000E-03 0. -1.
         11   -1    0    0    0    0 -0.00000000000E+00 -0.00000000000E+00 -0.45593999997E+02  0.45594000000E+02  0.51100000000E-03 0.  1.
    9900012    2    1    2    0    0 -0.47943900177E+01 -0.30318072752E+02 -0.86342090293E+01  0.59301932877E+02  0.49999979663E+02 0.  0.
         12    1    1    2    0    0  0.47943900177E+01  0.30318072752E+02  0.86342090293E+01  0.31886067123E+02  0.00000000000E+00 0. -1.
         11    1    3    3    0    0 -0.21724854715E+02 -0.24154978378E+02 -0.44164418889E+01  0.32786235711E+02  0.51100000000E-03 0. -1.
        -11    1    3    3    0    0 -0.13961507599E+01 -0.40092129211E+01  0.44311273863E+01  0.61366045470E+01  0.51100000000E-03 0.  1.
         12    1    3    3    0    0  0.18326615457E+02 -0.21538814524E+01 -0.86488945268E+01  0.20379092619E+02  0.00000000000E+00 0. -1.
</event>
<event>
 7    1  0.3449603E-013  0.5930194E+02  0.7816164E-02  0.1266605E+00
        -11   -1    0    0    0    0  0.00000000000E+00  0.00000000000E+00  0.45593999997E+02  0.45594000000E+02  0.51100000000E-03 0. -1.
         11   -1    0    0    0    0 -0.00000000000E+00 -0.00000000000E+00 -0.45593999997E+02  0.45594000000E+02  0.51100000000E-03 0.  1.
    9900012    2    1    2    0    0 -0.69582304009E+01  0.28563179778E+02 -0.12347019182E+02  0.59301935771E+02  0.49999984941E+02 0.  0.
         12    1    1    2    0    0  0.69582304009E+01 -0.28563179778E+02  0.12347019182E+02  0.31886064229E+02  0.00000000000E+00 0. -1.
         11    1    3    3    0    0 -0.13909735659E+01 -0.32614925324E+01  0.59603764375E+01  0.69352886412E+01  0.51100000000E-03 0. -1.
        -11    1    3    3    0    0 -0.13726571344E+02  0.10082245115E+02 -0.23054704190E+02  0.28663388023E+02  0.51100000000E-03 0.  1.
        -12    1    3    3    0    0  0.81593145085E+01  0.21742427195E+02  0.47473085710E+01  0.23703259106E+02  0.00000000000E+00 0.  1.
</event>
<event>
 7    1  0.3449603E-013  0.5930195E+02  0.7816164E-02  0.1266605E+00
        -11   -1    0    0    0    0  0.00000000000E+00  0.00000000000E+00  0.45593999997E+02  0.45594000000E+02  0.51100000000E-03 0.  1.
         11   -1    0    0    0    0 -0.00000000000E+00 -0.00000000000E+00 -0.45593999997E+02  0.45594000000E+02  0.51100000000E-03 0. -1.
    9900012    2    1    2    0    0 -0.18992753046E+02 -0.25603873426E+02  0.66133478645E+00  0.59301947150E+02  0.50000005694E+02 0.  0.
         12    1    1    2    0    0  0.18992753046E+02  0.25603873426E+02 -0.66133478645E+00  0.31886052850E+02  0.00000000000E+00 0. -1.
         11    1    3    3    0    0  0.30917429439E+01  0.90750246641E+01 -0.68501910927E+01  0.11783041430E+02  0.51100000000E-03 0. -1.
        -11    1    3    3    0    0  0.20780271608E+01 -0.62557763633E+00 -0.36961823309E+01  0.42861764248E+01  0.51100000000E-03 0.  1.
        -12    1    3    3    0    0 -0.24162523150E+02 -0.34053320454E+02  0.11207708210E+02  0.43232729294E+02  0.00000000000E+00 0.  1.
</event>
<event>
 7    1  0.3449603E-013  0.5930197E+02  0.7816164E-02  0.1266605E+00
        -11   -1    0    0    0    0  0.00000000000E+00  0.00000000000E+00  0.45593999997E+02  0.45594000000E+02  0.51100000000E-03 0. -1.
         11   -1    0    0    0    0 -0.00000000000E+00 -0.00000000000E+00 -0.45593999997E+02  0.45594000000E+02  0.51100000000E-03 0.  1.
    9900012    2    1    2    0    0 -0.18294382865E+02  0.11257522159E+02 -0.23564860482E+02  0.59301970157E+02  0.50000047654E+02 0.  0.
         12    1    1    2    0    0  0.18294382865E+02 -0.11257522159E+02  0.23564860482E+02  0.31886029843E+02  0.00000000000E+00 0. -1.
         11    1    3    3    0    0 -0.12774540330E+02 -0.67798907847E+01  0.61871285317E+01  0.15730109962E+02  0.51100000000E-03 0. -1.
        -11    1    3    3    0    0 -0.15280571143E+02  0.94910554371E+01 -0.12156962945E+02  0.21711004953E+02  0.51100000000E-03 0.  1.
         12    1    3    3    0    0  0.97607286074E+01  0.85463575063E+01 -0.17595026069E+02  0.21860855242E+02  0.00000000000E+00 0. -1.
</event>
<event>
 7    1  0.3449603E-013  0.5930195E+02  0.7816164E-02  0.1266605E+00
        -11   -1    0    0    0    0  0.00000000000E+00  0.00000000000E+00  0.45593999997E+02  0.45594000000E+02  0.51100000000E-03 0.  1.
         11   -1    0    0    0    0 -0.00000000000E+00 -0.00000000000E+00 -0.45593999997E+02  0.45594000000E+02  0.51100000000E-03 0. -1.
    9900012    2    1    2    0    0 -0.54813314718E+00 -0.94265559192E+01  0.30455861338E+02  0.59301954521E+02  0.50000019138E+02 0.  0.
         12    1    1    2    0    0  0.54813314718E+00  0.94265559192E+01 -0.30455861338E+02  0.31886045479E+02  0.00000000000E+00 0. -1.
         11    1    3    3    0    0 -0.26668047971E+01  0.25580834939E+01 -0.34918049652E+01  0.50841263913E+01  0.51100000000E-03 0. -1.
        -11    1    3    3    0    0 -0.39154574310E+01 -0.19889601662E+02  0.15526411418E+01  0.20330709676E+02  0.51100000000E-03 0.  1.
        -12    1    3    3    0    0  0.60341290809E+01  0.79049622486E+01  0.32395025161E+02  0.33887118454E+02  0.00000000000E+00 0.  1.
</event>
<event>
 7    1  0.3449603E-013  0.5930194E+02  0.7816164E-02  0.1266605E+00
        -11   -1    0    0    0    0  0.00000000000E+00  0.00000000000E+00  0.45593999997E+02  0.45594000000E+02  0.51100000000E-03 0.  1.
         11   -1    0    0    0    0 -0.00000000000E+00 -0.00000000000E+00 -0.45593999997E+02  0.45594000000E+02  0.51100000000E-03 0. -1.
    9900012    2    1    2    0    0 -0.31626814707E+01 -0.20610304226E+02  0.24123295596E+02  0.59301943724E+02  0.49999999447E+02 0.  0.
         12    1    1    2    0    0  0.31626814707E+01  0.20610304226E+02 -0.24123295596E+02  0.31886056276E+02  0.00000000000E+00 0. -1.
         11    1    3    3    0    0  0.82841407356E+01  0.18533961104E+01  0.72949467922E+01  0.11192779540E+02  0.51100000000E-03 0. -1.
        -11    1    3    3    0    0  0.81212810095E+01 -0.19783817908E+02 -0.11286345492E+01  0.21415612820E+02  0.51100000000E-03 0.  1.
         12    1    3    3    0    0 -0.19568103216E+02 -0.26798824286E+01  0.17956983353E+02  0.26693551364E+02  0.00000000000E+00 0. -1.
</event>
<event>
 7    1  0.3449603E-013  0.5930193E+02  0.7816164E-02  0.1266605E+00
        -11   -1    0    0    0    0  0.00000000000E+00  0.00000000000E+00  0.45593999997E+02  0.45594000000E+02  0.51100000000E-03 0. -1.
         11   -1    0    0    0    0 -0.00000000000E+00 -0.00000000000E+00 -0.45593999997E+02  0.45594000000E+02  0.51100000000E-03 0.  1.
    9900012    2    1    2    0    0  0.14527478003E+02  0.17940279241E+02 -0.21995906925E+02  0.59301934739E+02  0.49999983060E+02 0.  0.
         12    1    1    2    0    0 -0.14527478003E+02 -0.17940279241E+02  0.21995906925E+02  0.31886065261E+02  0.00000000000E+00 0. -1.
         11    1    3    3    0    0 -0.24371699566E+00  0.30939681835E+01 -0.26390111146E+02  0.26571977789E+02  0.51100000000E-03 0. -1.
        -11    1    3    3    0    0  0.14420628116E+02  0.90058565472E+01 -0.81754465112E+01  0.18865256248E+02  0.51100000000E-03 0.  1.
         12    1    3    3    0    0  0.35056688267E+00  0.58404545101E+01  0.12569650732E+02  0.13864700702E+02  0.00000000000E+00 0. -1.
</event>
<event>
 7    1  0.3449603E-013  0.5930193E+02  0.7816164E-02  0.1266605E+00
        -11   -1    0    0    0    0  0.00000000000E+00  0.00000000000E+00  0.45593999997E+02  0.45594000000E+02  0.51100000000E-03 0. -1.
         11   -1    0    0    0    0 -0.00000000000E+00 -0.00000000000E+00 -0.45593999997E+02  0.45594000000E+02  0.51100000000E-03 0.  1.
    9900012    2    1    2    0    0  0.22200741850E+01 -0.25200281139E+02 -0.19409761499E+02  0.59301925605E+02  0.49999966402E+02 0.  0.
         12    1    1    2    0    0 -0.22200741850E+01  0.25200281139E+02  0.19409761499E+02  0.31886074395E+02  0.00000000000E+00 0. -1.
         11    1    3    3    0    0 -0.10455816793E+02 -0.25523915123E+02  0.63118916347E+01  0.28295482401E+02  0.51100000000E-03 0. -1.
        -11    1    3    3    0    0  0.31206216723E+01  0.42689305742E+01 -0.30876094793E+01  0.61233471588E+01  0.51100000000E-03 0.  1.
        -12    1    3    3    0    0  0.95552693053E+01 -0.39452965899E+01 -0.22634043654E+02  0.24883096046E+02  0.00000000000E+00 0.  1.
</event>
<event>
 7    1  0.3449603E-013  0.5930195E+02  0.7816164E-02  0.1266605E+00
        -11   -1    0    0    0    0  0.00000000000E+00  0.00000000000E+00  0.45593999997E+02  0.45594000000E+02  0.51100000000E-03 0.  1.
         11   -1    0    0    0    0 -0.00000000000E+00 -0.00000000000E+00 -0.45593999997E+02  0.45594000000E+02  0.51100000000E-03 0. -1.
    9900012    2    1    2    0    0 -0.77996399770E+01  0.93455533358E+01  0.29471106644E+02  0.59301954812E+02  0.50000019668E+02 0.  0.
         12    1    1    2    0    0  0.77996399770E+01 -0.93455533358E+01 -0.29471106644E+02  0.31886045188E+02  0.00000000000E+00 0. -1.
         11    1    3    3    0    0 -0.50107797804E+01  0.15988055344E+01  0.17339835656E+02  0.18119988797E+02  0.51100000000E-03 0. -1.
        -11    1    3    3    0    0 -0.37578899344E+01 -0.64201322587E+00  0.25274122092E+02  0.25560030625E+02  0.51100000000E-03 0.  1.
         12    1    3    3    0    0  0.96902973784E+00  0.83887610273E+01 -0.13142851104E+02  0.15621935391E+02  0.00000000000E+00 0. -1.
</event>
<event>
 7    1  0.3449603E-013  0.5930194E+02  0.7816164E-02  0.1266605E+00
        -11   -1    0    0    0    0  0.00000000000E+00  0.00000000000E+00  0.45593999997E+02  0.45594000000E+02  0.51100000000E-03 0.  1.
         11   -1    0    0    0    0 -0.00000000000E+00 -0.00000000000E+00 -0.45593999997E+02  0.45594000000E+02  0.51100000000E-03 0. -1.
    9900012    2    1    2    0    0 -0.94203856260E+01 -0.14807276635E+02  0.26621830599E+02  0.59301937667E+02  0.49999988399E+02 0.  0.
         12    1    1    2    0    0  0.94203856260E+01  0.14807276635E+02 -0.26621830599E+02  0.31886062333E+02  0.00000000000E+00 0. -1.
         11    1    3    3    0    0 -0.16459019584E+02 -0.84506042289E+01  0.98485824703E+00  0.18527870453E+02  0.51100000000E-03 0. -1.
        -11    1    3    3    0    0  0.64247821374E+01 -0.12193771794E+02 -0.69069342531E+00  0.13800107019E+02  0.51100000000E-03 0.  1.
         12    1    3    3    0    0  0.61385182094E+00  0.58370993873E+01  0.26327665777E+02  0.26973960195E+02  0.00000000000E+00 0. -1.
</event>
<event>
 7    1  0.3449603E-013  0.5930190E+02  0.7816164E-02  0.1266605E+00
        -11   -1    0    0    0    0  0.00000000000E+00  0.00000000000E+00  0.45593999997E+02  0.45594000000E+02  0.51100000000E-03 0.  1.
         11   -1    0    0    0    0 -0.00000000000E+00 -0.00000000000E+00 -0.45593999997E+02  0.45594000000E+02  0.51100000000E-03 0. -1.
    9900012    2    1    2    0    0  0.15760064580E+02  0.20324673080E+02  0.18848107413E+02  0.59301903901E+02  0.49999926819E+02 0.  0.
         12    1    1    2    0    0 -0.15760064580E+02 -0.20324673080E+02 -0.18848107413E+02  0.31886096099E+02  0.00000000000E+00 0. -1.
         11    1    3    3    0    0 -0.24337608571E+01 -0.89579767826E+01  0.59476357812E+01  0.11024650180E+02  0.51100000000E-03 0.  1.
        -11    1    3    3    0    0 -0.78474162924E+01  0.12147135764E+02 -0.20064524797E+00  0.14462887281E+02  0.51100000000E-03 0. -1.
        -12    1    3    3    0    0  0.26041241729E+02  0.17135514099E+02  0.13101116880E+02  0.33814366440E+02  0.00000000000E+00 0.  1.
</event>
<event>
 7    1  0.3449603E-013  0.5930193E+02  0.7816164E-02  0.1266605E+00
        -11   -1    0    0    0    0  0.00000000000E+00  0.00000000000E+00  0.45593999997E+02  0.45594000000E+02  0.51100000000E-03 0.  1.
         11   -1    0    0    0    0 -0.00000000000E+00 -0.00000000000E+00 -0.45593999997E+02  0.45594000000E+02  0.51100000000E-03 0. -1.
    9900012    2    1    2    0    0 -0.40117179571E+01 -0.13628452931E+02  0.28546332132E+02  0.59301926419E+02  0.49999967885E+02 0.  0.
         12    1    1    2    0    0  0.40117179571E+01  0.13628452931E+02 -0.28546332132E+02  0.31886073581E+02  0.00000000000E+00 0. -1.
         11    1    3    3    0    0 -0.38804077758E+01 -0.55429409389E+01  0.14721212719E+01  0.69245144276E+01  0.51100000000E-03 0. -1.
        -11    1    3    3    0    0 -0.79717487310E+01  0.62330533244E+01 -0.85134605901E+01  0.13224172679E+02  0.51100000000E-03 0.  1.
        -12    1    3    3    0    0  0.78404385497E+01 -0.14318565317E+02  0.35587671450E+02  0.39153239312E+02  0.00000000000E+00 0.  1.
</event>
<event>
 7    1  0.3449603E-013  0.5930195E+02  0.7816164E-02  0.1266605E+00
        -11   -1    0    0    0    0  0.00000000000E+00  0.00000000000E+00  0.45593999997E+02  0.45594000000E+02  0.51100000000E-03 0. -1.
         11   -1    0    0    0    0 -0.00000000000E+00 -0.00000000000E+00 -0.45593999997E+02  0.45594000000E+02  0.51100000000E-03 0.  1.
    9900012    2    1    2    0    0  0.18719482238E+02  0.13825037365E+01 -0.25775764152E+02  0.59301947415E+02  0.50000006178E+02 0.  0.
         12    1    1    2    0    0 -0.18719482238E+02 -0.13825037365E+01  0.25775764152E+02  0.31886052585E+02  0.00000000000E+00 0. -1.
         11    1    3    3    0    0  0.88867586768E+01 -0.17214220444E+01 -0.16048648297E+02  0.18425441272E+02  0.51100000000E-03 0.  1.
        -11    1    3    3    0    0 -0.13804380182E+02 -0.34833509227E+01 -0.78724590976E+01  0.16268689510E+02  0.51100000000E-03 0. -1.
         12    1    3    3    0    0  0.23637103744E+02  0.65872767036E+01 -0.18546567570E+01  0.24607816633E+02  0.00000000000E+00 0. -1.
</event>
<event>
 7    1  0.3449603E-013  0.5930189E+02  0.7816164E-02  0.1266605E+00
        -11   -1    0    0    0    0  0.00000000000E+00  0.00000000000E+00  0.45593999997E+02  0.45594000000E+02  0.51100000000E-03 0.  1.
         11   -1    0    0    0    0 -0.00000000000E+00 -0.00000000000E+00 -0.45593999997E+02  0.45594000000E+02  0.51100000000E-03 0. -1.
    9900012    2    1    2    0    0 -0.60946976766E+00  0.48408827347E+01  0.31510609594E+02  0.59301888352E+02  0.49999898461E+02 0.  0.
         12    1    1    2    0    0  0.60946976766E+00 -0.48408827347E+01 -0.31510609594E+02  0.31886111648E+02  0.00000000000E+00 0. -1.
         11    1    3    3    0    0  0.99929878547E+01  0.84310971693E+00  0.53953858584E+01  0.11387749079E+02  0.51100000000E-03 0. -1.
        -11    1    3    3    0    0 -0.37015148315E+01 -0.12452253114E+02  0.27095080896E+02  0.30048348186E+02  0.51100000000E-03 0.  1.
         12    1    3    3    0    0 -0.69009427909E+01  0.16450026132E+02 -0.97985716122E+00  0.17865791088E+02  0.00000000000E+00 0. -1.
</event>
<event>
 7    1  0.3449603E-013  0.5930202E+02  0.7816164E-02  0.1266604E+00
        -11   -1    0    0    0    0  0.00000000000E+00  0.00000000000E+00  0.45593999997E+02  0.45594000000E+02  0.51100000000E-03 0.  1.
         11   -1    0    0    0    0 -0.00000000000E+00 -0.00000000000E+00 -0.45593999997E+02  0.45594000000E+02  0.51100000000E-03 0. -1.
    9900012    2    1    2    0    0  0.31046071251E+02 -0.37001790541E+01 -0.62582629358E+01  0.59302020006E+02  0.50000138567E+02 0.  0.
         12    1    1    2    0    0 -0.31046071251E+02  0.37001790541E+01  0.62582629358E+01  0.31885979994E+02  0.00000000000E+00 0. -1.
         11    1    3    3    0    0  0.15062561462E+02  0.14043482958E+02 -0.16848998315E+02  0.26608061107E+02  0.51100000000E-03 0. -1.
        -11    1    3    3    0    0  0.14356669633E+02 -0.20353381002E+01  0.17772729905E+01  0.14608739291E+02  0.51100000000E-03 0.  1.
         12    1    3    3    0    0  0.16268401558E+01 -0.15708323912E+02  0.88134623883E+01  0.18085219608E+02  0.00000000000E+00 0. -1.
</event>
<event>
 7    1  0.3449603E-013  0.5930194E+02  0.7816164E-02  0.1266605E+00
        -11   -1    0    0    0    0  0.00000000000E+00  0.00000000000E+00  0.45593999997E+02  0.45594000000E+02  0.51100000000E-03 0.  1.
         11   -1    0    0    0    0 -0.00000000000E+00 -0.00000000000E+00 -0.45593999997E+02  0.45594000000E+02  0.51100000000E-03 0. -1.
    9900012    2    1    2    0    0 -0.13816190842E+01  0.31687588821E+02  0.32724579792E+01  0.59301935053E+02  0.49999983632E+02 0.  0.
         12    1    1    2    0    0  0.13816190842E+01 -0.31687588821E+02 -0.32724579792E+01  0.31886064947E+02  0.00000000000E+00 0. -1.
         11    1    3    3    0    0  0.65818317546E+01 -0.34302034125E+01 -0.94579526600E+01  0.12022465366E+02  0.51100000000E-03 0.  1.
        -11    1    3    3    0    0  0.38119614011E+01  0.41946994995E+01 -0.68030370313E+01  0.88548216654E+01  0.51100000000E-03 0. -1.
        -12    1    3    3    0    0 -0.11775412240E+02  0.30923092734E+02  0.19533447671E+02  0.38424648021E+02  0.00000000000E+00 0.  1.
</event>
<event>
 7    1  0.3449603E-013  0.5930194E+02  0.7816164E-02  0.1266605E+00
        -11   -1    0    0    0    0  0.00000000000E+00  0.00000000000E+00  0.45593999997E+02  0.45594000000E+02  0.51100000000E-03 0. -1.
         11   -1    0    0    0    0 -0.00000000000E+00 -0.00000000000E+00 -0.45593999997E+02  0.45594000000E+02  0.51100000000E-03 0.  1.
    9900012    2    1    2    0    0  0.41084884841E+00  0.31022383849E+02  0.73595984715E+01  0.59301940567E+02  0.49999993689E+02 0.  0.
         12    1    1    2    0    0 -0.41084884841E+00 -0.31022383849E+02 -0.73595984715E+01  0.31886059433E+02  0.00000000000E+00 0. -1.
         11    1    3    3    0    0 -0.87224903598E+01 -0.13066065251E+01 -0.95015318956E+01  0.12964110741E+02  0.51100000000E-03 0.  1.
        -11    1    3    3    0    0 -0.91911424477E+00 -0.13886888299E+01  0.10440539155E+02  0.10572515584E+02  0.51100000000E-03 0. -1.
         12    1    3    3    0    0  0.10052453453E+02  0.33717679204E+02  0.64205912123E+01  0.35765314243E+02  0.00000000000E+00 0. -1.
</event>
<event>
 7    1  0.3449603E-013  0.5930191E+02  0.7816164E-02  0.1266605E+00
        -11   -1    0    0    0    0  0.00000000000E+00  0.00000000000E+00  0.45593999997E+02  0.45594000000E+02  0.51100000000E-03 0.  1.
         11   -1    0    0    0    0 -0.00000000000E+00 -0.00000000000E+00 -0.45593999997E+02  0.45594000000E+02  0.51100000000E-03 0. -1.
    9900012    2    1    2    0    0  0.13567156233E+02  0.22652517229E+02  0.17875082262E+02  0.59301908503E+02  0.49999935212E+02 0.  0.
         12    1    1    2    0    0 -0.13567156233E+02 -0.22652517229E+02 -0.17875082262E+02  0.31886091497E+02  0.00000000000E+00 0. -1.
         11    1    3    3    0    0 -0.64002209985E+01 -0.97383582376E+01  0.11803664176E+02  0.16586890553E+02  0.51100000000E-03 0.  1.
        -11    1    3    3    0    0 -0.16591997439E+01 -0.13863516514E+01  0.90517270800E-01  0.21640490588E+01  0.51100000000E-03 0. -1.
         12    1    3    3    0    0  0.21626576975E+02  0.33777227118E+02  0.59809008152E+01  0.40550968891E+02  0.00000000000E+00 0. -1.
</event>
<event>
 7    1  0.3449603E-013  0.5930195E+02  0.7816164E-02  0.1266605E+00
        -11   -1    0    0    0    0  0.00000000000E+00  0.00000000000E+00  0.45593999997E+02  0.45594000000E+02  0.51100000000E-03 0. -1.
         11   -1    0    0    0    0 -0.00000000000E+00 -0.00000000000E+00 -0.45593999997E+02  0.45594000000E+02  0.51100000000E-03 0.  1.
    9900012    2    1    2    0    0 -0.93158763686E+01  0.17636884290E+02 -0.24877195757E+02  0.59301951190E+02  0.50000013063E+02 0.  0.
         12    1    1    2    0    0  0.93158763686E+01 -0.17636884290E+02  0.24877195757E+02  0.31886048810E+02  0.00000000000E+00 0. -1.
         11    1    3    3    0    0 -0.67056149157E+01 -0.76585351357E+01 -0.17724362219E+02  0.20439458118E+02  0.51100000000E-03 0. -1.
        -11    1    3    3    0    0 -0.13425727785E+02  0.19966793792E+02  0.13662667659E+01  0.24099578959E+02  0.51100000000E-03 0.  1.
        -12    1    3    3    0    0  0.10815466332E+02  0.53286256340E+01 -0.85191003031E+01  0.14762914113E+02  0.00000000000E+00 0.  1.
</event>
<event>
 7    1  0.3449603E-013  0.5930195E+02  0.7816164E-02  0.1266605E+00
        -11   -1    0    0    0    0  0.00000000000E+00  0.00000000000E+00  0.45593999997E+02  0.45594000000E+02  0.51100000000E-03 0.  1.
         11   -1    0    0    0    0 -0.00000000000E+00 -0.00000000000E+00 -0.45593999997E+02  0.45594000000E+02  0.51100000000E-03 0. -1.
    9900012    2    1    2    0    0  0.27308710226E+02  0.16444923642E+02  0.72026193110E+00  0.59301953756E+02  0.50000017742E+02 0.  0.
         12    1    1    2    0    0 -0.27308710226E+02 -0.16444923642E+02 -0.72026193110E+00  0.31886046244E+02  0.00000000000E+00 0. -1.
         11    1    3    3    0    0  0.17014844822E+01 -0.10005762905E+01  0.68483359795E+01  0.71271248274E+01  0.51100000000E-03 0. -1.
        -11    1    3    3    0    0  0.39296856052E+01  0.14488071931E+02  0.15382278033E+02  0.21493281159E+02  0.51100000000E-03 0.  1.
        -12    1    3    3    0    0  0.21677540139E+02  0.29574280019E+01 -0.21510352082E+02  0.30681547770E+02  0.00000000000E+00 0.  1.
</event>
<event>
 7    1  0.3449603E-013  0.5930209E+02  0.7816164E-02  0.1266604E+00
        -11   -1    0    0    0    0  0.00000000000E+00  0.00000000000E+00  0.45593999997E+02  0.45594000000E+02  0.51100000000E-03 0.  1.
         11   -1    0    0    0    0 -0.00000000000E+00 -0.00000000000E+00 -0.45593999997E+02  0.45594000000E+02  0.51100000000E-03 0. -1.
    9900012    2    1    2    0    0  0.13511674280E+02  0.25087852919E+02  0.14308926996E+02  0.59302092490E+02  0.50000270759E+02 0.  0.
         12    1    1    2    0    0 -0.13511674280E+02 -0.25087852919E+02 -0.14308926996E+02  0.31885907510E+02  0.00000000000E+00 0. -1.
         11    1    3    3    0    0  0.61115898749E+00 -0.76688409492E+00 -0.40171814687E+01  0.41351389017E+01  0.51100000000E-03 0. -1.
        -11    1    3    3    0    0 -0.30837103679E+01  0.33590320489E+02  0.81575508637E+01  0.34703955632E+02  0.51100000000E-03 0.  1.
         12    1    3    3    0    0  0.15984225661E+02 -0.77355834748E+01  0.10168557601E+02  0.20462997956E+02  0.00000000000E+00 0. -1.
</event>
<event>
 7    1  0.3449603E-013  0.5930194E+02  0.7816164E-02  0.1266605E+00
        -11   -1    0    0    0    0  0.00000000000E+00  0.00000000000E+00  0.45593999997E+02  0.45594000000E+02  0.51100000000E-03 0.  1.
         11   -1    0    0    0    0 -0.00000000000E+00 -0.00000000000E+00 -0.45593999997E+02  0.45594000000E+02  0.51100000000E-03 0. -1.
    9900012    2    1    2    0    0  0.28028123513E+02  0.13252547358E+02 -0.74508496393E+01  0.59301939103E+02  0.49999991019E+02 0.  0.
         12    1    1    2    0    0 -0.28028123513E+02 -0.13252547358E+02  0.74508496393E+01  0.31886060897E+02  0.00000000000E+00 0. -1.
         11    1    3    3    0    0  0.96784918794E+01 -0.13994980152E+02  0.19991687741E+01  0.17132698286E+02  0.51100000000E-03 0. -1.
        -11    1    3    3    0    0  0.37204288012E+01  0.14947895005E+02  0.70303472746E+01  0.16932422704E+02  0.51100000000E-03 0.  1.
        -12    1    3    3    0    0  0.14629202833E+02  0.12299632505E+02 -0.16480365688E+02  0.25236818114E+02  0.00000000000E+00 0.  1.
</event>
<event>
 7    1  0.3449603E-013  0.5930196E+02  0.7816164E-02  0.1266605E+00
        -11   -1    0    0    0    0  0.00000000000E+00  0.00000000000E+00  0.45593999997E+02  0.45594000000E+02  0.51100000000E-03 0.  1.
         11   -1    0    0    0    0 -0.00000000000E+00 -0.00000000000E+00 -0.45593999997E+02  0.45594000000E+02  0.51100000000E-03 0. -1.
    9900012    2    1    2    0    0  0.11254961059E+02 -0.22272542435E+02  0.19848903495E+02  0.59301964422E+02  0.50000037194E+02 0.  0.
         12    1    1    2    0    0 -0.11254961059E+02  0.22272542435E+02 -0.19848903495E+02  0.31886035578E+02  0.00000000000E+00 0. -1.
         11    1    3    3    0    0  0.59557076173E+01 -0.18801200083E+02  0.10349989972E+02  0.22272805626E+02  0.51100000000E-03 0. -1.
        -11    1    3    3    0    0  0.69234375644E+01 -0.96033757444E+01  0.20878188974E+02  0.24001199731E+02  0.51100000000E-03 0.  1.
         12    1    3    3    0    0 -0.16241841226E+01  0.61320333926E+01 -0.11379275452E+02  0.13027959065E+02  0.00000000000E+00 0. -1.
</event>
<event>
 7    1  0.3449603E-013  0.5930173E+02  0.7816164E-02  0.1266606E+00
        -11   -1    0    0    0    0  0.00000000000E+00  0.00000000000E+00  0.45593999997E+02  0.45594000000E+02  0.51100000000E-03 0.  1.
         11   -1    0    0    0    0 -0.00000000000E+00 -0.00000000000E+00 -0.45593999997E+02  0.45594000000E+02  0.51100000000E-03 0. -1.
    9900012    2    1    2    0    0  0.10080745497E+02  0.22189026630E+02  0.20561132235E+02  0.59301725659E+02  0.49999601745E+02 0.  0.
         12    1    1    2    0    0 -0.10080745497E+02 -0.22189026630E+02 -0.20561132235E+02  0.31886274341E+02  0.00000000000E+00 0. -1.
         11    1    3    3    0    0 -0.78050705478E+01  0.16132777595E+02 -0.34490199530E+01  0.18250517200E+02  0.51100000000E-03 0. -1.
        -11    1    3    3    0    0  0.59355424867E+01  0.16210715286E+02  0.15543530830E+02  0.23229707394E+02  0.51100000000E-03 0.  1.
         12    1    3    3    0    0  0.11950273558E+02 -0.10154466251E+02  0.84666213587E+01  0.17821501064E+02  0.00000000000E+00 0. -1.
</event>
<event>
 7    1  0.3449603E-013  0.5930194E+02  0.7816164E-02  0.1266605E+00
        -11   -1    0    0    0    0  0.00000000000E+00  0.00000000000E+00  0.45593999997E+02  0.45594000000E+02  0.51100000000E-03 0.  1.
         11   -1    0    0    0    0 -0.00000000000E+00 -0.00000000000E+00 -0.45593999997E+02  0.45594000000E+02  0.51100000000E-03 0. -1.
    9900012    2    1    2    0    0 -0.22609962023E+02 -0.36361989924E+01  0.22187570583E+02  0.59301943264E+02  0.49999998607E+02 0.  0.
         12    1    1    2    0    0  0.22609962023E+02  0.36361989924E+01 -0.22187570583E+02  0.31886056736E+02  0.00000000000E+00 0. -1.
         11    1    3    3    0    0  0.91886251608E+01 -0.91834610446E+01  0.22078913193E+02  0.25617283172E+02  0.51100000000E-03 0.  1.
        -11    1    3    3    0    0 -0.17245994362E+02  0.74254516515E+01  0.20302858906E+01  0.18886071980E+02  0.51100000000E-03 0. -1.
        -12    1    3    3    0    0 -0.14552592822E+02 -0.18781895993E+01 -0.19216285004E+01  0.14798588112E+02  0.00000000000E+00 0.  1.
</event>
<event>
 7    1  0.3449603E-013  0.5930195E+02  0.7816164E-02  0.1266605E+00
        -11   -1    0    0    0    0  0.00000000000E+00  0.00000000000E+00  0.45593999997E+02  0.45594000000E+02  0.51100000000E-03 0. -1.
         11   -1    0    0    0    0 -0.00000000000E+00 -0.00000000000E+00 -0.45593999997E+02  0.45594000000E+02  0.51100000000E-03 0.  1.
    9900012    2    1    2    0    0  0.68687131456E+01  0.15158101974E+02 -0.27198770754E+02  0.59301946524E+02  0.50000004553E+02 0.  0.
         12    1    1    2    0    0 -0.68687131456E+01 -0.15158101974E+02  0.27198770754E+02  0.31886053476E+02  0.00000000000E+00 0. -1.
         11    1    3    3    0    0  0.60082240471E+01  0.16522784046E+02  0.58072418640E+01  0.18515539613E+02  0.51100000000E-03 0. -1.
        -11    1    3    3    0    0  0.30553088127E+01  0.73486134421E+01 -0.15966343084E+01  0.81170359638E+01  0.51100000000E-03 0.  1.
        -12    1    3    3    0    0 -0.21948197142E+01 -0.87132955138E+01 -0.31409378310E+02  0.32669370947E+02  0.00000000000E+00 0.  1.
</event>
<event>
 7    1  0.3449603E-013  0.5930194E+02  0.7816164E-02  0.1266605E+00
        -11   -1    0    0    0    0  0.00000000000E+00  0.00000000000E+00  0.45593999997E+02  0.45594000000E+02  0.51100000000E-03 0.  1.
         11   -1    0    0    0    0 -0.00000000000E+00 -0.00000000000E+00 -0.45593999997E+02  0.45594000000E+02  0.51100000000E-03 0. -1.
    9900012    2    1    2    0    0  0.79292659974E+01 -0.62146182273E+00  0.30878164986E+02  0.59301944318E+02  0.50000000529E+02 0.  0.
         12    1    1    2    0    0 -0.79292659974E+01  0.62146182273E+00 -0.30878164986E+02  0.31886055682E+02  0.00000000000E+00 0. -1.
         11    1    3    3    0    0 -0.13367780581E+02  0.65124872428E+00  0.60173452040E+01  0.14674131188E+02  0.51100000000E-03 0. -1.
        -11    1    3    3    0    0  0.13936945835E+02  0.13475723329E+02  0.77753776936E+01  0.20887557947E+02  0.51100000000E-03 0.  1.
        -12    1    3    3    0    0  0.73601007437E+01 -0.14748433876E+02  0.17085442089E+02  0.23740255182E+02  0.00000000000E+00 0.  1.
</event>
<event>
 7    1  0.3449603E-013  0.5930197E+02  0.7816164E-02  0.1266605E+00
        -11   -1    0    0    0    0  0.00000000000E+00  0.00000000000E+00  0.45593999997E+02  0.45594000000E+02  0.51100000000E-03 0.  1.
         11   -1    0    0    0    0 -0.00000000000E+00 -0.00000000000E+00 -0.45593999997E+02  0.45594000000E+02  0.51100000000E-03 0. -1.
    9900012    2    1    2    0    0 -0.21195563318E+00 -0.26462956695E+02  0.17787245751E+02  0.59301966794E+02  0.50000041520E+02 0.  0.
         12    1    1    2    0    0  0.21195563318E+00  0.26462956695E+02 -0.17787245751E+02  0.31886033206E+02  0.00000000000E+00 0. -1.
         11    1    3    3    0    0 -0.16258932849E+02 -0.28313466303E+02  0.76028267081E+01  0.33523249330E+02  0.51100000000E-03 0. -1.
        -11    1    3    3    0    0  0.22776712927E+01 -0.66897335323E+01  0.53704996357E+01  0.88759556020E+01  0.51100000000E-03 0.  1.
        -12    1    3    3    0    0  0.13769305923E+02  0.85402431403E+01  0.48139194070E+01  0.16902761862E+02  0.00000000000E+00 0.  1.
</event>
<event>
 7    1  0.3449603E-013  0.5930192E+02  0.7816164E-02  0.1266605E+00
        -11   -1    0    0    0    0  0.00000000000E+00  0.00000000000E+00  0.45593999997E+02  0.45594000000E+02  0.51100000000E-03 0. -1.
         11   -1    0    0    0    0 -0.00000000000E+00 -0.00000000000E+00 -0.45593999997E+02  0.45594000000E+02  0.51100000000E-03 0.  1.
    9900012    2    1    2    0    0  0.24147306264E+02 -0.66758981776E+01 -0.19724648998E+02  0.59301924757E+02  0.49999964855E+02 0.  0.
         12    1    1    2    0    0 -0.24147306264E+02  0.66758981776E+01  0.19724648998E+02  0.31886075243E+02  0.00000000000E+00 0. -1.
         11    1    3    3    0    0  0.32764143987E+02 -0.55369515851E+01 -0.16173358957E+02  0.36955710036E+02  0.51100000000E-03 0. -1.
        -11    1    3    3    0    0 -0.37634061642E+01  0.94861725169E+01 -0.25383717901E+00  0.10208581123E+02  0.51100000000E-03 0.  1.
        -12    1    3    3    0    0 -0.48534315582E+01 -0.10625119109E+02 -0.32974528616E+01  0.12137633598E+02  0.00000000000E+00 0.  1.
</event>
<event>
 7    1  0.3449603E-013  0.5930193E+02  0.7816164E-02  0.1266605E+00
        -11   -1    0    0    0    0  0.00000000000E+00  0.00000000000E+00  0.45593999997E+02  0.45594000000E+02  0.51100000000E-03 0.  1.
         11   -1    0    0    0    0 -0.00000000000E+00 -0.00000000000E+00 -0.45593999997E+02  0.45594000000E+02  0.51100000000E-03 0. -1.
    9900012    2    1    2    0    0 -0.62589734130E+01  0.16485015796E+02  0.26566727506E+02  0.59301929305E+02  0.49999973150E+02 0.  0.
         12    1    1    2    0    0  0.62589734130E+01 -0.16485015796E+02 -0.26566727506E+02  0.31886070695E+02  0.00000000000E+00 0. -1.
         11    1    3    3    0    0 -0.44441838398E+00  0.16451790298E+02  0.87829544179E+01  0.18654736672E+02  0.51100000000E-03 0. -1.
        -11    1    3    3    0    0  0.14418739034E+02  0.41577197836E+01  0.11968487695E+02  0.19194566083E+02  0.51100000000E-03 0.  1.
         12    1    3    3    0    0 -0.20233294063E+02 -0.41244942856E+01  0.58152853923E+01  0.21452626551E+02  0.00000000000E+00 0. -1.
</event>
<event>
 7    1  0.3449603E-013  0.5930190E+02  0.7816164E-02  0.1266605E+00
        -11   -1    0    0    0    0  0.00000000000E+00  0.00000000000E+00  0.45593999997E+02  0.45594000000E+02  0.51100000000E-03 0. -1.
         11   -1    0    0    0    0 -0.00000000000E+00 -0.00000000000E+00 -0.45593999997E+02  0.45594000000E+02  0.51100000000E-03 0.  1.
    9900012    2    1    2    0    0  0.30622716015E+02  0.86374567430E+01  0.20897954496E+01  0.59301895814E+02  0.49999912069E+02 0.  0.
         12    1    1    2    0    0 -0.30622716015E+02 -0.86374567430E+01 -0.20897954496E+01  0.31886104186E+02  0.00000000000E+00 0. -1.
         11    1    3    3    0    0 -0.12735968609E+01 -0.27222351486E+01  0.57186561202E+01  0.64603127827E+01  0.51100000000E-03 0. -1.
        -11    1    3    3    0    0  0.20201500752E+02  0.63749431784E+00 -0.21115609091E+02  0.29229710556E+02  0.51100000000E-03 0.  1.
         12    1    3    3    0    0  0.11694812124E+02  0.10722197574E+02  0.17486748421E+02  0.23611872475E+02  0.00000000000E+00 0. -1.
</event>
<event>
 7    1  0.3449603E-013  0.5930197E+02  0.7816164E-02  0.1266605E+00
        -11   -1    0    0    0    0  0.00000000000E+00  0.00000000000E+00  0.45593999997E+02  0.45594000000E+02  0.51100000000E-03 0.  1.
         11   -1    0    0    0    0 -0.00000000000E+00 -0.00000000000E+00 -0.45593999997E+02  0.45594000000E+02  0.51100000000E-03 0. -1.
    9900012    2    1    2    0    0  0.30973406349E+02  0.47266132906E+01 -0.59182873594E+01  0.59301970154E+02  0.50000047648E+02 0.  0.
         12    1    1    2    0    0 -0.30973406349E+02 -0.47266132906E+01  0.59182873594E+01  0.31886029846E+02  0.00000000000E+00 0. -1.
         11    1    3    3    0    0 -0.12259757597E+02 -0.10956354777E+01 -0.56073035613E+01  0.13525676579E+02  0.51100000000E-03 0. -1.
        -11    1    3    3    0    0  0.49829368293E+01  0.11810985641E+01 -0.47574029793E+01  0.69898166379E+01  0.51100000000E-03 0.  1.
        -12    1    3    3    0    0  0.38250227116E+02  0.46411502042E+01  0.44464191812E+01  0.38786476937E+02  0.00000000000E+00 0.  1.
</event>
<event>
 7    1  0.3449603E-013  0.5930195E+02  0.7816164E-02  0.1266605E+00
        -11   -1    0    0    0    0  0.00000000000E+00  0.00000000000E+00  0.45593999997E+02  0.45594000000E+02  0.51100000000E-03 0. -1.
         11   -1    0    0    0    0 -0.00000000000E+00 -0.00000000000E+00 -0.45593999997E+02  0.45594000000E+02  0.51100000000E-03 0.  1.
    9900012    2    1    2    0    0  0.12634175220E+02  0.17971086626E+02 -0.23111419960E+02  0.59301951788E+02  0.50000014153E+02 0.  0.
         12    1    1    2    0    0 -0.12634175220E+02 -0.17971086626E+02  0.23111419960E+02  0.31886048212E+02  0.00000000000E+00 0. -1.
         11    1    3    3    0    0 -0.97914545656E+01  0.14323424960E+02  0.21761072039E+01  0.17486238244E+02  0.51100000000E-03 0. -1.
        -11    1    3    3    0    0  0.92714800052E+00  0.94921180174E+01 -0.23144981589E+01  0.98141127902E+01  0.51100000000E-03 0.  1.
        -12    1    3    3    0    0  0.21498481786E+02 -0.58444563518E+01 -0.22973029005E+02  0.32001600754E+02  0.00000000000E+00 0.  1.
</event>
<event>
 7    1  0.3449603E-013  0.5930195E+02  0.7816164E-02  0.1266605E+00
        -11   -1    0    0    0    0  0.00000000000E+00  0.00000000000E+00  0.45593999997E+02  0.45594000000E+02  0.51100000000E-03 0.  1.
         11   -1    0    0    0    0 -0.00000000000E+00 -0.00000000000E+00 -0.45593999997E+02  0.45594000000E+02  0.51100000000E-03 0. -1.
    9900012    2    1    2    0    0 -0.53774139071E+01 -0.20157931643E+02 -0.24113516806E+02  0.59301945349E+02  0.50000002409E+02 0.  0.
         12    1    1    2    0    0  0.53774139071E+01  0.20157931643E+02  0.24113516806E+02  0.31886054651E+02  0.00000000000E+00 0. -1.
         11    1    3    3    0    0 -0.47255476753E+01 -0.91115946155E+01 -0.18951221751E+02  0.21552279772E+02  0.51100000000E-03 0. -1.
        -11    1    3    3    0    0  0.12443987310E+02 -0.16637281723E+02 -0.95269162961E+01  0.22856379802E+02  0.51100000000E-03 0.  1.
         12    1    3    3    0    0 -0.13095853542E+02  0.55909446955E+01  0.43646212405E+01  0.14893285774E+02  0.00000000000E+00 0. -1.
</event>
<event>
 7    1  0.3449603E-013  0.5930195E+02  0.7816164E-02  0.1266605E+00
        -11   -1    0    0    0    0  0.00000000000E+00  0.00000000000E+00  0.45593999997E+02  0.45594000000E+02  0.51100000000E-03 0. -1.
         11   -1    0    0    0    0 -0.00000000000E+00 -0.00000000000E+00 -0.45593999997E+02  0.45594000000E+02  0.51100000000E-03 0.  1.
    9900012    2    1    2    0    0  0.45238971973E+01  0.98669385251E+01 -0.29981630334E+02  0.59301948517E+02  0.50000008187E+02 0.  0.
         12    1    1    2    0    0 -0.45238971973E+01 -0.98669385251E+01  0.29981630334E+02  0.31886051483E+02  0.00000000000E+00 0. -1.
         11    1    3    3    0    0 -0.12865017368E+01  0.60320613652E+01  0.14957646906E+01  0.63465079614E+01  0.51100000000E-03 0. -1.
        -11    1    3    3    0    0 -0.11151985785E+02  0.14181891237E+01  0.52656649177E+01  0.12413914557E+02  0.51100000000E-03 0.  1.
         12    1    3    3    0    0  0.16962384719E+02  0.24166880362E+01 -0.36743059942E+02  0.40541525999E+02  0.00000000000E+00 0. -1.
</event>
<event>
 7    1  0.3449603E-013  0.5930195E+02  0.7816164E-02  0.1266605E+00
        -11   -1    0    0    0    0  0.00000000000E+00  0.00000000000E+00  0.45593999997E+02  0.45594000000E+02  0.51100000000E-03 0.  1.
         11   -1    0    0    0    0 -0.00000000000E+00 -0.00000000000E+00 -0.45593999997E+02  0.45594000000E+02  0.51100000000E-03 0. -1.
    9900012    2    1    2    0    0  0.11452530270E+01  0.25629966408E+02  0.18934451877E+02  0.59301948968E+02  0.50000009009E+02 0.  0.
         12    1    1    2    0    0 -0.11452530270E+01 -0.25629966408E+02 -0.18934451877E+02  0.31886051032E+02  0.00000000000E+00 0. -1.
         11    1    3    3    0    0  0.70757060237E+01 -0.12259903656E+02  0.67845301492E+01  0.15697155889E+02  0.51100000000E-03 0. -1.
        -11    1    3    3    0    0 -0.47103380918E+01  0.10341057551E+02  0.11285811534E+02  0.16015439377E+02  0.51100000000E-03 0.  1.
        -12    1    3    3    0    0 -0.12201149049E+01  0.27548812513E+02  0.86411019394E+00  0.27589353702E+02  0.00000000000E+00 0.  1.
</event>
<event>
 7    1  0.3449603E-013  0.5930195E+02  0.7816164E-02  0.1266605E+00
        -11   -1    0    0    0    0  0.00000000000E+00  0.00000000000E+00  0.45593999997E+02  0.45594000000E+02  0.51100000000E-03 0. -1.
         11   -1    0    0    0    0 -0.00000000000E+00 -0.00000000000E+00 -0.45593999997E+02  0.45594000000E+02  0.51100000000E-03 0.  1.
    9900012    2    1    2    0    0  0.15955638101E+02  0.95277925967E+01  0.25910592614E+02  0.59301952447E+02  0.50000015354E+02 0.  0.
         12    1    1    2    0    0 -0.15955638101E+02 -0.95277925967E+01 -0.25910592614E+02  0.31886047553E+02  0.00000000000E+00 0. -1.
         11    1    3    3    0    0  0.14443282152E+02  0.69806079120E+01  0.50102477029E+00  0.16049558007E+02  0.51100000000E-03 0. -1.
        -11    1    3    3    0    0  0.69898297332E+01  0.98022714877E+01 -0.38288480068E+01  0.12633381311E+02  0.51100000000E-03 0.  1.
         12    1    3    3    0    0 -0.54774737838E+01 -0.72550868031E+01  0.29238415850E+02  0.30619013129E+02  0.00000000000E+00 0. -1.
</event>
<event>
 7    1  0.3449603E-013  0.5930196E+02  0.7816164E-02  0.1266605E+00
        -11   -1    0    0    0    0  0.00000000000E+00  0.00000000000E+00  0.45593999997E+02  0.45594000000E+02  0.51100000000E-03 0.  1.
         11   -1    0    0    0    0 -0.00000000000E+00 -0.00000000000E+00 -0.45593999997E+02  0.45594000000E+02  0.51100000000E-03 0. -1.
    9900012    2    1    2    0    0  0.50091833237E+01  0.30890522052E+02  0.61158199495E+01  0.59301960361E+02  0.50000029788E+02 0.  0.
         12    1    1    2    0    0 -0.50091833237E+01 -0.30890522052E+02 -0.61158199495E+01  0.31886039639E+02  0.00000000000E+00 0. -1.
         11    1    3    3    0    0  0.10983771632E+02 -0.35173973252E+01 -0.94648031978E+01  0.14919712566E+02  0.51100000000E-03 0. -1.
        -11    1    3    3    0    0 -0.59964102968E+01  0.31632716706E+01  0.10832128074E+02  0.12778819311E+02  0.51100000000E-03 0.  1.
         12    1    3    3    0    0  0.21821988468E-01  0.31244647706E+02  0.47484950729E+01  0.31603428484E+02  0.00000000000E+00 0. -1.
</event>
<event>
 7    1  0.3449603E-013  0.5930176E+02  0.7816164E-02  0.1266605E+00
        -11   -1    0    0    0    0  0.00000000000E+00  0.00000000000E+00  0.45593999997E+02  0.45594000000E+02  0.51100000000E-03 0.  1.
         11   -1    0    0    0    0 -0.00000000000E+00 -0.00000000000E+00 -0.45593999997E+02  0.45594000000E+02  0.51100000000E-03 0. -1.
    9900012    2    1    2    0    0  0.82809124529E+01  0.22065162081E+02  0.21477597850E+02  0.59301763187E+02  0.49999670188E+02 0.  0.
         12    1    1    2    0    0 -0.82809124529E+01 -0.22065162081E+02 -0.21477597850E+02  0.31886236813E+02  0.00000000000E+00 0. -1.
         11    1    3    3    0    0 -0.18650622304E+01 -0.17861822624E+01  0.11058271909E+02  0.11355803894E+02  0.51100000000E-03 0. -1.
        -11    1    3    3    0    0 -0.59073094690E+01 -0.16969432072E+01  0.16108373998E+02  0.17241103055E+02  0.51100000000E-03 0.  1.
         12    1    3    3    0    0  0.16053284152E+02  0.25548287550E+02 -0.56890480569E+01  0.30704856238E+02  0.00000000000E+00 0. -1.
</event>
<event>
 7    1  0.3449603E-013  0.5930194E+02  0.7816164E-02  0.1266605E+00
        -11   -1    0    0    0    0  0.00000000000E+00  0.00000000000E+00  0.45593999997E+02  0.45594000000E+02  0.51100000000E-03 0.  1.
         11   -1    0    0    0    0 -0.00000000000E+00 -0.00000000000E+00 -0.45593999997E+02  0.45594000000E+02  0.51100000000E-03 0. -1.
    9900012    2    1    2    0    0 -0.29541169444E+02 -0.75150011108E+01  0.93576070587E+01  0.59301941233E+02  0.49999994903E+02 0.  0.
         12    1    1    2    0    0  0.29541169444E+02  0.75150011108E+01 -0.93576070587E+01  0.31886058767E+02  0.00000000000E+00 0. -1.
         11    1    3    3    0    0 -0.28027241203E+01  0.53294040914E+00 -0.13247678891E+02  0.13551394180E+02  0.51100000000E-03 0. -1.
        -11    1    3    3    0    0 -0.12675036913E+01 -0.54633323359E+01 -0.54146888822E+01  0.77957309966E+01  0.51100000000E-03 0.  1.
        -12    1    3    3    0    0 -0.25470941633E+02 -0.25846091841E+01  0.28019974832E+02  0.37954816056E+02  0.00000000000E+00 0.  1.
</event>
<event>
 7    1  0.3449603E-013  0.5930199E+02  0.7816164E-02  0.1266605E+00
        -11   -1    0    0    0    0  0.00000000000E+00  0.00000000000E+00  0.45593999997E+02  0.45594000000E+02  0.51100000000E-03 0. -1.
         11   -1    0    0    0    0 -0.00000000000E+00 -0.00000000000E+00 -0.45593999997E+02  0.45594000000E+02  0.51100000000E-03 0.  1.
    9900012    2    1    2    0    0  0.23700184373E+02 -0.74068193235E+01 -0.20003948773E+02  0.59301989301E+02  0.50000082568E+02 0.  0.
         12    1    1    2    0    0 -0.23700184373E+02  0.74068193235E+01  0.20003948773E+02  0.31886010699E+02  0.00000000000E+00 0. -1.
         11    1    3    3    0    0  0.10816848885E+02 -0.13881465221E+02  0.86646106416E+01  0.19615676749E+02  0.51100000000E-03 0. -1.
        -11    1    3    3    0    0  0.73830879518E+01 -0.84108418284E+01 -0.15176960955E+02  0.18857157582E+02  0.51100000000E-03 0.  1.
        -12    1    3    3    0    0  0.55002475357E+01  0.14885487726E+02 -0.13491598459E+02  0.20829154971E+02  0.00000000000E+00 0.  1.
</event>
<event>
 7    1  0.3449603E-013  0.5930190E+02  0.7816164E-02  0.1266605E+00
        -11   -1    0    0    0    0  0.00000000000E+00  0.00000000000E+00  0.45593999997E+02  0.45594000000E+02  0.51100000000E-03 0.  1.
         11   -1    0    0    0    0 -0.00000000000E+00 -0.00000000000E+00 -0.45593999997E+02  0.45594000000E+02  0.51100000000E-03 0. -1.
    9900012    2    1    2    0    0  0.10199797417E+02  0.20084586983E+01  0.30143885215E+02  0.59301896607E+02  0.49999913517E+02 0.  0.
         12    1    1    2    0    0 -0.10199797417E+02 -0.20084586983E+01 -0.30143885215E+02  0.31886103393E+02  0.00000000000E+00 0. -1.
         11    1    3    3    0    0  0.24603447503E+01 -0.15359339912E+02 -0.43979484351E+01  0.16164917863E+02  0.51100000000E-03 0. -1.
        -11    1    3    3    0    0 -0.30825323317E+01 -0.86242900133E+00  0.81945069414E+00  0.33041321190E+01  0.51100000000E-03 0.  1.
        -12    1    3    3    0    0  0.10821984999E+02  0.18230227611E+02  0.33722382956E+02  0.39832846626E+02  0.00000000000E+00 0.  1.
</event>
<event>
 7    1  0.3449603E-013  0.5930194E+02  0.7816164E-02  0.1266605E+00
        -11   -1    0    0    0    0  0.00000000000E+00  0.00000000000E+00  0.45593999997E+02  0.45594000000E+02  0.51100000000E-03 0.  1.
         11   -1    0    0    0    0 -0.00000000000E+00 -0.00000000000E+00 -0.45593999997E+02  0.45594000000E+02  0.51100000000E-03 0. -1.
    9900012    2    1    2    0    0 -0.43843150363E+01 -0.30682982706E+02  0.74868504613E+01  0.59301943864E+02  0.49999999702E+02 0.  0.
         12    1    1    2    0    0  0.43843150363E+01  0.30682982706E+02 -0.74868504613E+01  0.31886056136E+02  0.00000000000E+00 0. -1.
         11    1    3    3    0    0  0.17270484268E+01  0.59494397791E+01 -0.57056040799E+01  0.84221403533E+01  0.51100000000E-03 0. -1.
        -11    1    3    3    0    0 -0.15937824479E+02 -0.19814796161E+02  0.17579270758E+02  0.30913931433E+02  0.51100000000E-03 0.  1.
         12    1    3    3    0    0  0.98264610162E+01 -0.16817626324E+02 -0.43868162170E+01  0.19965872077E+02  0.00000000000E+00 0. -1.
</event>
<event>
 7    1  0.3449603E-013  0.5930194E+02  0.7816164E-02  0.1266605E+00
        -11   -1    0    0    0    0  0.00000000000E+00  0.00000000000E+00  0.45593999997E+02  0.45594000000E+02  0.51100000000E-03 0. -1.
         11   -1    0    0    0    0 -0.00000000000E+00 -0.00000000000E+00 -0.45593999997E+02  0.45594000000E+02  0.51100000000E-03 0.  1.
    9900012    2    1    2    0    0 -0.17804284768E+02 -0.22350707765E+02 -0.14148296214E+02  0.59301937536E+02  0.49999988160E+02 0.  0.
         12    1    1    2    0    0  0.17804284768E+02  0.22350707765E+02  0.14148296214E+02  0.31886062464E+02  0.00000000000E+00 0. -1.
         11    1    3    3    0    0  0.28946532391E+01 -0.11706230585E+02 -0.36545306797E+01  0.12600414542E+02  0.51100000000E-03 0. -1.
        -11    1    3    3    0    0  0.82530494147E+01  0.75535124245E+01 -0.11200796446E+01  0.11243796212E+02  0.51100000000E-03 0.  1.
         12    1    3    3    0    0 -0.28951987422E+02 -0.18197989605E+02 -0.93736858899E+01  0.35457726781E+02  0.00000000000E+00 0. -1.
</event>
<event>
 7    1  0.3449603E-013  0.5930193E+02  0.7816164E-02  0.1266605E+00
        -11   -1    0    0    0    0  0.00000000000E+00  0.00000000000E+00  0.45593999997E+02  0.45594000000E+02  0.51100000000E-03 0.  1.
         11   -1    0    0    0    0 -0.00000000000E+00 -0.00000000000E+00 -0.45593999997E+02  0.45594000000E+02  0.51100000000E-03 0. -1.
    9900012    2    1    2    0    0 -0.23354013021E+02  0.12005153702E+02  0.18088339182E+02  0.59301926959E+02  0.49999968871E+02 0.  0.
         12    1    1    2    0    0  0.23354013021E+02 -0.12005153702E+02 -0.18088339182E+02  0.31886073041E+02  0.00000000000E+00 0. -1.
         11    1    3    3    0    0 -0.29292552339E+01  0.90552339539E+01 -0.37324055953E+01  0.10222947225E+02  0.51100000000E-03 0. -1.
        -11    1    3    3    0    0  0.17626901145E+01  0.15175603918E+02 -0.54282606246E+00  0.15287272193E+02  0.51100000000E-03 0.  1.
         12    1    3    3    0    0 -0.22187447902E+02 -0.12225684169E+02  0.22363570840E+02  0.33791707541E+02  0.00000000000E+00 0. -1.
</event>
<event>
 7    1  0.3449603E-013  0.5930197E+02  0.7816164E-02  0.1266605E+00
        -11   -1    0    0    0    0  0.00000000000E+00  0.00000000000E+00  0.45593999997E+02  0.45594000000E+02  0.51100000000E-03 0. -1.
         11   -1    0    0    0    0 -0.00000000000E+00 -0.00000000000E+00 -0.45593999997E+02  0.45594000000E+02  0.51100000000E-03 0.  1.
    9900012    2    1    2    0    0  0.31287548894E+02  0.25587621233E+00 -0.61435223845E+01  0.59301967702E+02  0.50000043176E+02 0.  0.
         12    1    1    2    0    0 -0.31287548894E+02 -0.25587621233E+00  0.61435223845E+01  0.31886032298E+02  0.00000000000E+00 0. -1.
         11    1    3    3    0    0  0.64672767068E+01 -0.13587915699E+02  0.32761098569E+01  0.15400974550E+02  0.51100000000E-03 0. -1.
        -11    1    3    3    0    0  0.10117685488E+01 -0.85949680509E+01  0.26163686652E+01  0.90411579261E+01  0.51100000000E-03 0.  1.
        -12    1    3    3    0    0  0.23808503638E+02  0.22438759962E+02 -0.12036000907E+02  0.34859835226E+02  0.00000000000E+00 0.  1.
</event>
<event>
 7    1  0.3449603E-013  0.5930195E+02  0.7816164E-02  0.1266605E+00
        -11   -1    0    0    0    0  0.00000000000E+00  0.00000000000E+00  0.45593999997E+02  0.45594000000E+02  0.51100000000E-03 0.  1.
         11   -1    0    0    0    0 -0.00000000000E+00 -0.00000000000E+00 -0.45593999997E+02  0.45594000000E+02  0.51100000000E-03 0. -1.
    9900012    2    1    2    0    0 -0.13954014278E+02  0.17227932421E+02  0.22917336697E+02  0.59301945192E+02  0.50000002123E+02 0.  0.
         12    1    1    2    0    0  0.13954014278E+02 -0.17227932421E+02 -0.22917336697E+02  0.31886054808E+02  0.00000000000E+00 0. -1.
         11    1    3    3    0    0  0.90105820516E+01 -0.96110847274E+00 -0.30135708391E+01  0.95496559031E+01  0.51100000000E-03 0. -1.
        -11    1    3    3    0    0  0.49081729949E+01 -0.39543941286E+01  0.12248778106E+01  0.64208816360E+01  0.51100000000E-03 0.  1.
        -12    1    3    3    0    0 -0.27872769324E+02  0.22143435022E+02  0.24706029725E+02  0.43331407653E+02  0.00000000000E+00 0.  1.
</event>
<event>
 7    1  0.3449603E-013  0.5930213E+02  0.7816164E-02  0.1266604E+00
        -11   -1    0    0    0    0  0.00000000000E+00  0.00000000000E+00  0.45593999997E+02  0.45594000000E+02  0.51100000000E-03 0.  1.
         11   -1    0    0    0    0 -0.00000000000E+00 -0.00000000000E+00 -0.45593999997E+02  0.45594000000E+02  0.51100000000E-03 0. -1.
    9900012    2    1    2    0    0 -0.60495873867E+01 -0.30930385945E+02  0.48396482534E+01  0.59302133578E+02  0.50000345693E+02 0.  0.
         12    1    1    2    0    0  0.60495873867E+01  0.30930385945E+02 -0.48396482534E+01  0.31885866422E+02  0.00000000000E+00 0. -1.
         11    1    3    3    0    0  0.52222661438E+01 -0.32313780087E+01 -0.11055068253E+02  0.12646280158E+02  0.51100000000E-03 0. -1.
        -11    1    3    3    0    0  0.71771961850E+01  0.32144325898E+01  0.29443435964E+01  0.83972543982E+01  0.51100000000E-03 0.  1.
        -12    1    3    3    0    0 -0.18449049715E+02 -0.30913440526E+02  0.12950372910E+02  0.38258599021E+02  0.00000000000E+00 0.  1.
</event>
<event>
 7    1  0.3449603E-013  0.5930196E+02  0.7816164E-02  0.1266605E+00
        -11   -1    0    0    0    0  0.00000000000E+00  0.00000000000E+00  0.45593999997E+02  0.45594000000E+02  0.51100000000E-03 0. -1.
         11   -1    0    0    0    0 -0.00000000000E+00 -0.00000000000E+00 -0.45593999997E+02  0.45594000000E+02  0.51100000000E-03 0.  1.
    9900012    2    1    2    0    0  0.12561911675E+02  0.15974424326E+02 -0.24571031409E+02  0.59301961645E+02  0.50000032130E+02 0.  0.
         12    1    1    2    0    0 -0.12561911675E+02 -0.15974424326E+02  0.24571031409E+02  0.31886038355E+02  0.00000000000E+00 0. -1.
         11    1    3    3    0    0  0.18273128930E+02  0.10145989757E+02 -0.24428374640E+02  0.32149554225E+02  0.51100000000E-03 0. -1.
        -11    1    3    3    0    0  0.30653689273E+00  0.12501551138E+02 -0.83058512488E+01  0.15012325301E+02  0.51100000000E-03 0.  1.
         12    1    3    3    0    0 -0.60177541482E+01 -0.66731165695E+01  0.81631944799E+01  0.12140082119E+02  0.00000000000E+00 0. -1.
</event>
<event>
 7    1  0.3449603E-013  0.5930193E+02  0.7816164E-02  0.1266605E+00
        -11   -1    0    0    0    0  0.00000000000E+00  0.00000000000E+00  0.45593999997E+02  0.45594000000E+02  0.51100000000E-03 0. -1.
         11   -1    0    0    0    0 -0.00000000000E+00 -0.00000000000E+00 -0.45593999997E+02  0.45594000000E+02  0.51100000000E-03 0.  1.
    9900012    2    1    2    0    0 -0.33143615584E+01 -0.28156705688E+02 -0.14592340294E+02  0.59301929954E+02  0.49999974332E+02 0.  0.
         12    1    1    2    0    0  0.33143615584E+01  0.28156705688E+02  0.14592340294E+02  0.31886070046E+02  0.00000000000E+00 0. -1.
         11    1    3    3    0    0 -0.76458081747E+01 -0.98898453515E+01 -0.49229550707E+01  0.13435137164E+02  0.51100000000E-03 0. -1.
        -11    1    3    3    0    0  0.10441077164E+01  0.93848882207E+01 -0.14795913709E+02  0.17552360257E+02  0.51100000000E-03 0.  1.
        -12    1    3    3    0    0  0.32873388999E+01 -0.27651748558E+02  0.51265284863E+01  0.28314432533E+02  0.00000000000E+00 0.  1.
</event>
<event>
 7    1  0.3449603E-013  0.5930196E+02  0.7816164E-02  0.1266605E+00
        -11   -1    0    0    0    0  0.00000000000E+00  0.00000000000E+00  0.45593999997E+02  0.45594000000E+02  0.51100000000E-03 0.  1.
         11   -1    0    0    0    0 -0.00000000000E+00 -0.00000000000E+00 -0.45593999997E+02  0.45594000000E+02  0.51100000000E-03 0. -1.
    9900012    2    1    2    0    0  0.73200697970E+01  0.20405944616E+02  0.23382333733E+02  0.59301960292E+02  0.50000029661E+02 0.  0.
         12    1    1    2    0    0 -0.73200697970E+01 -0.20405944616E+02 -0.23382333733E+02  0.31886039708E+02  0.00000000000E+00 0. -1.
         11    1    3    3    0    0 -0.64266730130E+01  0.11217657388E+02  0.15919556440E+02  0.20507809264E+02  0.51100000000E-03 0. -1.
        -11    1    3    3    0    0 -0.11311264525E+01  0.19224112603E+02  0.79681490337E+01  0.20840761783E+02  0.51100000000E-03 0.  1.
         12    1    3    3    0    0  0.14877869263E+02 -0.10035825375E+02 -0.50537174138E+00  0.17953389244E+02  0.00000000000E+00 0. -1.
</event>
<event>
 7    1  0.3449603E-013  0.5930194E+02  0.7816164E-02  0.1266605E+00
        -11   -1    0    0    0    0  0.00000000000E+00  0.00000000000E+00  0.45593999997E+02  0.45594000000E+02  0.51100000000E-03 0.  1.
         11   -1    0    0    0    0 -0.00000000000E+00 -0.00000000000E+00 -0.45593999997E+02  0.45594000000E+02  0.51100000000E-03 0. -1.
    9900012    2    1    2    0    0  0.39105868777E+01 -0.10174331997E+02  0.29965163886E+02  0.59301940851E+02  0.49999994206E+02 0.  0.
         12    1    1    2    0    0 -0.39105868777E+01  0.10174331997E+02 -0.29965163886E+02  0.31886059149E+02  0.00000000000E+00 0. -1.
         11    1    3    3    0    0 -0.11012368198E+02 -0.34331434412E+01 -0.63509986586E+00  0.11552578903E+02  0.51100000000E-03 0. -1.
        -11    1    3    3    0    0 -0.69647493211E+01  0.51836944373E+01  0.17628685706E+02  0.19650673808E+02  0.51100000000E-03 0.  1.
        -12    1    3    3    0    0  0.21887704397E+02 -0.11924882993E+02  0.12971578046E+02  0.28098688140E+02  0.00000000000E+00 0.  1.
</event>
<event>
 7    1  0.3449603E-013  0.5930195E+02  0.7816164E-02  0.1266605E+00
        -11   -1    0    0    0    0  0.00000000000E+00  0.00000000000E+00  0.45593999997E+02  0.45594000000E+02  0.51100000000E-03 0.  1.
         11   -1    0    0    0    0 -0.00000000000E+00 -0.00000000000E+00 -0.45593999997E+02  0.45594000000E+02  0.51100000000E-03 0. -1.
    9900012    2    1    2    0    0  0.11414941238E+02 -0.12849721232E+02  0.26857099460E+02  0.59301952728E+02  0.50000015868E+02 0.  0.
         12    1    1    2    0    0 -0.11414941238E+02  0.12849721232E+02 -0.26857099460E+02  0.31886047272E+02  0.00000000000E+00 0. -1.
         11    1    3    3    0    0 -0.14679947335E+01 -0.20470224434E+01  0.29881804813E+01  0.39082646112E+01  0.51100000000E-03 0. -1.
        -11    1    3    3    0    0  0.10335592626E+02 -0.12476882062E+02  0.37803767917E+02  0.41129331746E+02  0.51100000000E-03 0.  1.
        -12    1    3    3    0    0  0.25473433456E+01  0.16741832736E+01 -0.13934848938E+02  0.14264356371E+02  0.00000000000E+00 0.  1.
</event>
<event>
 7    1  0.3449603E-013  0.5930195E+02  0.7816164E-02  0.1266605E+00
        -11   -1    0    0    0    0  0.00000000000E+00  0.00000000000E+00  0.45593999997E+02  0.45594000000E+02  0.51100000000E-03 0.  1.
         11   -1    0    0    0    0 -0.00000000000E+00 -0.00000000000E+00 -0.45593999997E+02  0.45594000000E+02  0.51100000000E-03 0. -1.
    9900012    2    1    2    0    0 -0.27962640223E+02 -0.83320510398E+01  0.12860316017E+02  0.59301952097E+02  0.50000014717E+02 0.  0.
         12    1    1    2    0    0  0.27962640223E+02  0.83320510398E+01 -0.12860316017E+02  0.31886047903E+02  0.00000000000E+00 0. -1.
         11    1    3    3    0    0 -0.12684819095E+02 -0.10811171863E+02 -0.27685140919E+01  0.16895287599E+02  0.51100000000E-03 0. -1.
        -11    1    3    3    0    0 -0.13422136663E+02 -0.12223266180E+02  0.19947117597E+02  0.26971271557E+02  0.51100000000E-03 0.  1.
        -12    1    3    3    0    0 -0.18556844654E+01  0.14702387003E+02 -0.43182874880E+01  0.15435392941E+02  0.00000000000E+00 0.  1.
</event>
<event>
 7    1  0.3449603E-013  0.5930195E+02  0.7816164E-02  0.1266605E+00
        -11   -1    0    0    0    0  0.00000000000E+00  0.00000000000E+00  0.45593999997E+02  0.45594000000E+02  0.51100000000E-03 0. -1.
         11   -1    0    0    0    0 -0.00000000000E+00 -0.00000000000E+00 -0.45593999997E+02  0.45594000000E+02  0.51100000000E-03 0.  1.
    9900012    2    1    2    0    0  0.10164587435E+02 -0.35565738520E+00 -0.30220432663E+02  0.59301954772E+02  0.50000019595E+02 0.  0.
         12    1    1    2    0    0 -0.10164587435E+02  0.35565738520E+00  0.30220432663E+02  0.31886045228E+02  0.00000000000E+00 0. -1.
         11    1    3    3    0    0  0.41007772796E+01 -0.32673383326E+01 -0.94256247245E+01  0.10785836814E+02  0.51100000000E-03 0. -1.
        -11    1    3    3    0    0  0.94562736190E+01 -0.23593187345E+01 -0.33208738408E+02  0.34609360043E+02  0.51100000000E-03 0.  1.
         12    1    3    3    0    0 -0.33924634631E+01  0.52709996819E+01  0.12413930470E+02  0.13906757915E+02  0.00000000000E+00 0. -1.
</event>
<event>
 7    1  0.3449603E-013  0.5930184E+02  0.7816164E-02  0.1266605E+00
        -11   -1    0    0    0    0  0.00000000000E+00  0.00000000000E+00  0.45593999997E+02  0.45594000000E+02  0.51100000000E-03 0.  1.
         11   -1    0    0    0    0 -0.00000000000E+00 -0.00000000000E+00 -0.45593999997E+02  0.45594000000E+02  0.51100000000E-03 0. -1.
    9900012    2    1    2    0    0  0.22681459268E+02 -0.51313733682E+01  0.21816225667E+02  0.59301838589E+02  0.49999807705E+02 0.  0.
         12    1    1    2    0    0 -0.22681459268E+02  0.51313733682E+01 -0.21816225667E+02  0.31886161411E+02  0.00000000000E+00 0. -1.
         11    1    3    3    0    0  0.58306799456E+00  0.74026322034E+01  0.21235270492E+02  0.22496125110E+02  0.51100000000E-03 0. -1.
        -11    1    3    3    0    0  0.68456266775E+01  0.35963129256E+01  0.10041647141E+02  0.12674018654E+02  0.51100000000E-03 0.  1.
         12    1    3    3    0    0  0.15252764596E+02 -0.16130318497E+02 -0.94606919666E+01  0.24131694825E+02  0.00000000000E+00 0. -1.
</event>
<event>
 7    1  0.3449603E-013  0.5930195E+02  0.7816164E-02  0.1266605E+00
        -11   -1    0    0    0    0  0.00000000000E+00  0.00000000000E+00  0.45593999997E+02  0.45594000000E+02  0.51100000000E-03 0.  1.
         11   -1    0    0    0    0 -0.00000000000E+00 -0.00000000000E+00 -0.45593999997E+02  0.45594000000E+02  0.51100000000E-03 0. -1.
    9900012    2    1    2    0    0 -0.30312196906E+02 -0.97790370268E+01 -0.15036780411E+01  0.59301954556E+02  0.50000019201E+02 0.  0.
         12    1    1    2    0    0  0.30312196906E+02  0.97790370268E+01  0.15036780411E+01  0.31886045444E+02  0.00000000000E+00 0. -1.
         11    1    3    3    0    0  0.11104399411E+01  0.37883803702E+01 -0.22133266024E-01  0.39478339421E+01  0.51100000000E-03 0. -1.
        -11    1    3    3    0    0 -0.16601713446E+02 -0.24735990061E+00  0.20039550322E+02  0.26024251260E+02  0.51100000000E-03 0.  1.
        -12    1    3    3    0    0 -0.14820923401E+02 -0.13320057496E+02 -0.21521095097E+02  0.29329869354E+02  0.00000000000E+00 0.  1.
</event>
<event>
 7    1  0.3449603E-013  0.5930195E+02  0.7816164E-02  0.1266605E+00
        -11   -1    0    0    0    0  0.00000000000E+00  0.00000000000E+00  0.45593999997E+02  0.45594000000E+02  0.51100000000E-03 0.  1.
         11   -1    0    0    0    0 -0.00000000000E+00 -0.00000000000E+00 -0.45593999997E+02  0.45594000000E+02  0.51100000000E-03 0. -1.
    9900012    2    1    2    0    0 -0.50306770143E+01 -0.27510444883E+02  0.15316268215E+02  0.59301947235E+02  0.50000005849E+02 0.  0.
         12    1    1    2    0    0  0.50306770143E+01  0.27510444883E+02 -0.15316268215E+02  0.31886052765E+02  0.00000000000E+00 0. -1.
         11    1    3    3    0    0 -0.15642183644E+01  0.11775144513E+02  0.40343247318E+01  0.12544982411E+02  0.51100000000E-03 0. -1.
        -11    1    3    3    0    0 -0.26157614426E+01  0.16696411971E+01 -0.20018801584E+01  0.36928896655E+01  0.51100000000E-03 0.  1.
        -12    1    3    3    0    0 -0.85069720731E+00 -0.40955230593E+02  0.13283823642E+02  0.43064075158E+02  0.00000000000E+00 0.  1.
</event>
<event>
 7    1  0.3449603E-013  0.5930195E+02  0.7816164E-02  0.1266605E+00
        -11   -1    0    0    0    0  0.00000000000E+00  0.00000000000E+00  0.45593999997E+02  0.45594000000E+02  0.51100000000E-03 0. -1.
         11   -1    0    0    0    0 -0.00000000000E+00 -0.00000000000E+00 -0.45593999997E+02  0.45594000000E+02  0.51100000000E-03 0.  1.
    9900012    2    1    2    0    0 -0.12460730131E+02 -0.41510274967E+01 -0.29055457785E+02  0.59301945810E+02  0.50000003251E+02 0.  0.
         12    1    1    2    0    0  0.12460730131E+02  0.41510274967E+01  0.29055457785E+02  0.31886054190E+02  0.00000000000E+00 0. -1.
         11    1    3    3    0    0 -0.56075628214E+01 -0.38760109117E+01 -0.11191889995E+01  0.69080247294E+01  0.51100000000E-03 0. -1.
        -11    1    3    3    0    0 -0.66930166363E+01 -0.21793524291E+02 -0.13886924194E+02  0.26694584405E+02  0.51100000000E-03 0.  1.
         12    1    3    3    0    0 -0.16015067306E+00  0.21518507706E+02 -0.14049344591E+02  0.25699336676E+02  0.00000000000E+00 0. -1.
</event>
<event>
 7    1  0.3449603E-013  0.5930195E+02  0.7816164E-02  0.1266605E+00
        -11   -1    0    0    0    0  0.00000000000E+00  0.00000000000E+00  0.45593999997E+02  0.45594000000E+02  0.51100000000E-03 0. -1.
         11   -1    0    0    0    0 -0.00000000000E+00 -0.00000000000E+00 -0.45593999997E+02  0.45594000000E+02  0.51100000000E-03 0.  1.
    9900012    2    1    2    0    0  0.12212209373E+02  0.28447127717E+02  0.76382638665E+01  0.59301949633E+02  0.50000010223E+02 0.  0.
         12    1    1    2    0    0 -0.12212209373E+02 -0.28447127717E+02 -0.76382638665E+01  0.31886050367E+02  0.00000000000E+00 0. -1.
         11    1    3    3    0    0  0.14386859613E+02  0.47241138456E+01 -0.80466416037E+01  0.17147811012E+02  0.51100000000E-03 0. -1.
        -11    1    3    3    0    0  0.61174297696E+01 -0.58012101389E+01  0.27085235452E+01  0.88551163808E+01  0.51100000000E-03 0.  1.
         12    1    3    3    0    0 -0.82920800093E+01  0.29524224010E+02  0.12976381925E+02  0.33299022240E+02  0.00000000000E+00 0. -1.
</event>
<event>
 7    1  0.3449603E-013  0.5930196E+02  0.7816164E-02  0.1266605E+00
        -11   -1    0    0    0    0  0.00000000000E+00  0.00000000000E+00  0.45593999997E+02  0.45594000000E+02  0.51100000000E-03 0.  1.
         11   -1    0    0    0    0 -0.00000000000E+00 -0.00000000000E+00 -0.45593999997E+02  0.45594000000E+02  0.51100000000E-03 0. -1.
    9900012    2    1    2    0    0 -0.19950326255E+02  0.11315961830E+02  0.22150692471E+02  0.59301957807E+02  0.50000025129E+02 0.  0.
         12    1    1    2    0    0  0.19950326255E+02 -0.11315961830E+02 -0.22150692471E+02  0.31886042193E+02  0.00000000000E+00 0. -1.
         11    1    3    3    0    0 -0.10530997065E+01 -0.95153649022E+00 -0.11075588925E+02  0.11166159187E+02  0.51100000000E-03 0. -1.
        -11    1    3    3    0    0 -0.10778787904E+02  0.16353673874E+02  0.77100936952E+01  0.21049239010E+02  0.51100000000E-03 0.  1.
        -12    1    3    3    0    0 -0.81184386443E+01 -0.40861755536E+01  0.25516187701E+02  0.27086559610E+02  0.00000000000E+00 0.  1.
</event>
<event>
 7    1  0.3449603E-013  0.5930195E+02  0.7816164E-02  0.1266605E+00
        -11   -1    0    0    0    0  0.00000000000E+00  0.00000000000E+00  0.45593999997E+02  0.45594000000E+02  0.51100000000E-03 0.  1.
         11   -1    0    0    0    0 -0.00000000000E+00 -0.00000000000E+00 -0.45593999997E+02  0.45594000000E+02  0.51100000000E-03 0. -1.
    9900012    2    1    2    0    0 -0.27282897551E+02 -0.16184181652E+02 -0.32304649893E+01  0.59301950722E+02  0.50000012209E+02 0.  0.
         12    1    1    2    0    0  0.27282897551E+02  0.16184181652E+02  0.32304649893E+01  0.31886049278E+02  0.00000000000E+00 0. -1.
         11    1    3    3    0    0  0.29508638163E+01 -0.13058889530E+02  0.87346507554E+01  0.15985503342E+02  0.51100000000E-03 0. -1.
        -11    1    3    3    0    0 -0.27598291216E+02 -0.13169575037E+02 -0.54605583824E+01  0.31063178891E+02  0.51100000000E-03 0.  1.
        -12    1    3    3    0    0 -0.26354701506E+01  0.10044282915E+02 -0.65045573623E+01  0.12253268489E+02  0.00000000000E+00 0.  1.
</event>
<event>
 7    1  0.3449603E-013  0.5930192E+02  0.7816164E-02  0.1266605E+00
        -11   -1    0    0    0    0  0.00000000000E+00  0.00000000000E+00  0.45593999997E+02  0.45594000000E+02  0.51100000000E-03 0.  1.
         11   -1    0    0    0    0 -0.00000000000E+00 -0.00000000000E+00 -0.45593999997E+02  0.45594000000E+02  0.51100000000E-03 0. -1.
    9900012    2    1    2    0    0  0.21047204676E+02 -0.23597429853E+02 -0.41107791031E+01  0.59301921138E+02  0.49999958255E+02 0.  0.
         12    1    1    2    0    0 -0.21047204676E+02  0.23597429853E+02  0.41107791031E+01  0.31886078862E+02  0.00000000000E+00 0. -1.
         11    1    3    3    0    0  0.15762661583E+02 -0.26573944907E+02 -0.15001027914E+02  0.34346279083E+02  0.51100000000E-03 0. -1.
        -11    1    3    3    0    0  0.44416136182E+00 -0.89843462099E+01  0.18043988464E+01  0.91745087930E+01  0.51100000000E-03 0.  1.
         12    1    3    3    0    0  0.48403817312E+01  0.11960861264E+02  0.90858499648E+01  0.15781133263E+02  0.00000000000E+00 0. -1.
</event>
<event>
 7    1  0.3449603E-013  0.5930195E+02  0.7816164E-02  0.1266605E+00
        -11   -1    0    0    0    0  0.00000000000E+00  0.00000000000E+00  0.45593999997E+02  0.45594000000E+02  0.51100000000E-03 0.  1.
         11   -1    0    0    0    0 -0.00000000000E+00 -0.00000000000E+00 -0.45593999997E+02  0.45594000000E+02  0.51100000000E-03 0. -1.
    9900012    2    1    2    0    0  0.49232926074E+01 -0.31419926953E+02 -0.22954904392E+01  0.59301954523E+02  0.50000019140E+02 0.  0.
         12    1    1    2    0    0 -0.49232926074E+01  0.31419926953E+02  0.22954904392E+01  0.31886045477E+02  0.00000000000E+00 0. -1.
         11    1    3    3    0    0  0.71450201940E+01  0.17134280437E+01 -0.34427890315E+01  0.81141817708E+01  0.51100000000E-03 0. -1.
        -11    1    3    3    0    0  0.95436308146E+01 -0.66482195771E+01 -0.14231165103E+02  0.18379493277E+02  0.51100000000E-03 0.  1.
        -12    1    3    3    0    0 -0.11765358401E+02 -0.26485135420E+02  0.15378463695E+02  0.32808279475E+02  0.00000000000E+00 0.  1.
</event>
<event>
 7    1  0.3449603E-013  0.5930195E+02  0.7816164E-02  0.1266605E+00
        -11   -1    0    0    0    0  0.00000000000E+00  0.00000000000E+00  0.45593999997E+02  0.45594000000E+02  0.51100000000E-03 0.  1.
         11   -1    0    0    0    0 -0.00000000000E+00 -0.00000000000E+00 -0.45593999997E+02  0.45594000000E+02  0.51100000000E-03 0. -1.
    9900012    2    1    2    0    0 -0.72709190394E+01  0.11280699272E+02  0.28924037507E+02  0.59301946851E+02  0.50000005149E+02 0.  0.
         12    1    1    2    0    0  0.72709190394E+01 -0.11280699272E+02 -0.28924037507E+02  0.31886053149E+02  0.00000000000E+00 0. -1.
         11    1    3    3    0    0 -0.87591168589E+00 -0.52769082929E+01 -0.31674597854E+01  0.62165733460E+01  0.51100000000E-03 0. -1.
        -11    1    3    3    0    0 -0.17335125795E+02  0.35943467556E+01  0.10786163430E+01  0.17736666215E+02  0.51100000000E-03 0.  1.
         12    1    3    3    0    0  0.10940118442E+02  0.12963260810E+02  0.31012880949E+02  0.35348707290E+02  0.00000000000E+00 0. -1.
</event>
<event>
 7    1  0.3915334E-013  0.5930193E+02  0.7816164E-02  0.1266605E+00
        -11   -1    0    0    0    0  0.00000000000E+00  0.00000000000E+00  0.45593999997E+02  0.45594000000E+02  0.51100000000E-03 0. -1.
         11   -1    0    0    0    0 -0.00000000000E+00 -0.00000000000E+00 -0.45593999997E+02  0.45594000000E+02  0.51100000000E-03 0.  1.
    9900012    2    1    2    0    0  0.24884867872E+02 -0.19883528754E+02 -0.14526594346E+01  0.59301928054E+02  0.49999970867E+02 0.  0.
         12    1    1    2    0    0 -0.24884867872E+02  0.19883528754E+02  0.14526594346E+01  0.31886071946E+02  0.00000000000E+00 0. -1.
         11    1    3    3    0    0 -0.70802690996E+01 -0.66612836410E+01 -0.30395168984E+01  0.10185360745E+02  0.51100000000E-03 0. -1.
        -11    1    3    3    0    0  0.17419583417E+02 -0.11197835657E+02 -0.16025404084E+02  0.26184861775E+02  0.51100000000E-03 0.  1.
         12    1    3    3    0    0  0.14545553555E+02 -0.20244094560E+01  0.17612261548E+02  0.22931705534E+02  0.00000000000E+00 0. -1.
</event>
<event>
 7    1  0.3449603E-013  0.5930202E+02  0.7816164E-02  0.1266604E+00
        -11   -1    0    0    0    0  0.00000000000E+00  0.00000000000E+00  0.45593999997E+02  0.45594000000E+02  0.51100000000E-03 0. -1.
         11   -1    0    0    0    0 -0.00000000000E+00 -0.00000000000E+00 -0.45593999997E+02  0.45594000000E+02  0.51100000000E-03 0.  1.
    9900012    2    1    2    0    0 -0.27030241466E+02  0.85639054522E+01 -0.14585650671E+02  0.59302021329E+02  0.50000140979E+02 0.  0.
         12    1    1    2    0    0  0.27030241466E+02 -0.85639054522E+01  0.14585650671E+02  0.31885978671E+02  0.00000000000E+00 0. -1.
         11    1    3    3    0    0 -0.21437263710E+02  0.67960501315E+00 -0.11305713132E+02  0.24245356009E+02  0.51100000000E-03 0. -1.
        -11    1    3    3    0    0 -0.19206150635E+02  0.77762517608E+01  0.11165880243E+01  0.20750736920E+02  0.51100000000E-03 0.  1.
         12    1    3    3    0    0  0.13613172879E+02  0.10804867825E+00 -0.43965255638E+01  0.14305928400E+02  0.00000000000E+00 0. -1.
</event>
<event>
 7    1  0.3449603E-013  0.5930200E+02  0.7816164E-02  0.1266605E+00
        -11   -1    0    0    0    0  0.00000000000E+00  0.00000000000E+00  0.45593999997E+02  0.45594000000E+02  0.51100000000E-03 0. -1.
         11   -1    0    0    0    0 -0.00000000000E+00 -0.00000000000E+00 -0.45593999997E+02  0.45594000000E+02  0.51100000000E-03 0.  1.
    9900012    2    1    2    0    0 -0.41569696857E+01 -0.17678227609E+02 -0.26209101147E+02  0.59301998192E+02  0.50000098782E+02 0.  0.
         12    1    1    2    0    0  0.41569696857E+01  0.17678227609E+02  0.26209101147E+02  0.31886001808E+02  0.00000000000E+00 0. -1.
         11    1    3    3    0    0  0.79552191520E+01 -0.18210342840E+01 -0.55651621199E+01  0.98778898203E+01  0.51100000000E-03 0. -1.
        -11    1    3    3    0    0  0.13646505363E+02 -0.10441737472E+02 -0.22897021086E+01  0.17334927922E+02  0.51100000000E-03 0.  1.
         12    1    3    3    0    0 -0.25758694201E+02 -0.54154558536E+01 -0.18354236919E+02  0.32089180449E+02  0.00000000000E+00 0. -1.
</event>
<event>
 7    1  0.3449603E-013  0.5930195E+02  0.7816164E-02  0.1266605E+00
        -11   -1    0    0    0    0  0.00000000000E+00  0.00000000000E+00  0.45593999997E+02  0.45594000000E+02  0.51100000000E-03 0.  1.
         11   -1    0    0    0    0 -0.00000000000E+00 -0.00000000000E+00 -0.45593999997E+02  0.45594000000E+02  0.51100000000E-03 0. -1.
    9900012    2    1    2    0    0  0.20289675324E+01 -0.31403640550E+01  0.31666095502E+02  0.59301949758E+02  0.50000010451E+02 0.  0.
         12    1    1    2    0    0 -0.20289675324E+01  0.31403640550E+01 -0.31666095502E+02  0.31886050242E+02  0.00000000000E+00 0. -1.
         11    1    3    3    0    0 -0.31945170685E+01 -0.23338218640E+01 -0.24426468812E+01  0.46495363039E+01  0.51100000000E-03 0. -1.
        -11    1    3    3    0    0 -0.89439216370E+01 -0.12021440405E+02  0.33357052275E+02  0.36567768601E+02  0.51100000000E-03 0.  1.
         12    1    3    3    0    0  0.14167406238E+02  0.11214898214E+02  0.75169010802E+00  0.18084644854E+02  0.00000000000E+00 0. -1.
</event>
<event>
 7    1  0.3449603E-013  0.5930202E+02  0.7816164E-02  0.1266604E+00
        -11   -1    0    0    0    0  0.00000000000E+00  0.00000000000E+00  0.45593999997E+02  0.45594000000E+02  0.51100000000E-03 0.  1.
         11   -1    0    0    0    0 -0.00000000000E+00 -0.00000000000E+00 -0.45593999997E+02  0.45594000000E+02  0.51100000000E-03 0. -1.
    9900012    2    1    2    0    0 -0.19145012380E+02 -0.69873633256E+01  0.24522657637E+02  0.59302023727E+02  0.50000145353E+02 0.  0.
         12    1    1    2    0    0  0.19145012380E+02  0.69873633256E+01 -0.24522657637E+02  0.31885976273E+02  0.00000000000E+00 0. -1.
         11    1    3    3    0    0 -0.36483324388E+01 -0.12088002964E+01 -0.60718332385E+01  0.71860063233E+01  0.51100000000E-03 0. -1.
        -11    1    3    3    0    0 -0.26460265902E+01 -0.50464109103E+01 -0.89051475929E+01  0.10572103561E+02  0.51100000000E-03 0.  1.
        -12    1    3    3    0    0 -0.12850653351E+02 -0.73215211897E+00  0.39499638469E+02  0.41543913843E+02  0.00000000000E+00 0.  1.
</event>
<event>
 7    1  0.3449603E-013  0.5930196E+02  0.7816164E-02  0.1266605E+00
        -11   -1    0    0    0    0  0.00000000000E+00  0.00000000000E+00  0.45593999997E+02  0.45594000000E+02  0.51100000000E-03 0.  1.
         11   -1    0    0    0    0 -0.00000000000E+00 -0.00000000000E+00 -0.45593999997E+02  0.45594000000E+02  0.51100000000E-03 0. -1.
    9900012    2    1    2    0    0 -0.22391104802E+01  0.16859700101E+02  0.26971403492E+02  0.59301957449E+02  0.50000024477E+02 0.  0.
         12    1    1    2    0    0  0.22391104802E+01 -0.16859700101E+02 -0.26971403492E+02  0.31886042551E+02  0.00000000000E+00 0. -1.
         11    1    3    3    0    0  0.49609336648E+01 -0.64207950526E+01  0.28927297452E+01  0.86142531640E+01  0.51100000000E-03 0. -1.
        -11    1    3    3    0    0  0.89054615216E+01 -0.45328975634E+01 -0.82767002275E+00  0.10026935881E+02  0.51100000000E-03 0.  1.
         12    1    3    3    0    0 -0.16105505667E+02  0.27813392717E+02  0.24906343770E+02  0.40660768404E+02  0.00000000000E+00 0. -1.
</event>
<event>
 7    1  0.3449603E-013  0.5930195E+02  0.7816164E-02  0.1266605E+00
        -11   -1    0    0    0    0  0.00000000000E+00  0.00000000000E+00  0.45593999997E+02  0.45594000000E+02  0.51100000000E-03 0.  1.
         11   -1    0    0    0    0 -0.00000000000E+00 -0.00000000000E+00 -0.45593999997E+02  0.45594000000E+02  0.51100000000E-03 0. -1.
    9900012    2    1    2    0    0  0.11448784940E+02 -0.11836689080E+02  0.27304547368E+02  0.59301949885E+02  0.50000010682E+02 0.  0.
         12    1    1    2    0    0 -0.11448784940E+02  0.11836689080E+02 -0.27304547368E+02  0.31886050115E+02  0.00000000000E+00 0. -1.
         11    1    3    3    0    0  0.14166079079E+01  0.64890431690E+01  0.20686973669E+02  0.21727064667E+02  0.51100000000E-03 0. -1.
        -11    1    3    3    0    0 -0.89318269137E+01  0.20370176284E+01  0.17313071218E+01  0.93233254499E+01  0.51100000000E-03 0.  1.
         12    1    3    3    0    0  0.18964003945E+02 -0.20362749878E+02  0.48862665772E+01  0.28251559767E+02  0.00000000000E+00 0. -1.
</event>
<event>
 7    1  0.3449603E-013  0.5930196E+02  0.7816164E-02  0.1266605E+00
        -11   -1    0    0    0    0  0.00000000000E+00  0.00000000000E+00  0.45593999997E+02  0.45594000000E+02  0.51100000000E-03 0. -1.
         11   -1    0    0    0    0 -0.00000000000E+00 -0.00000000000E+00 -0.45593999997E+02  0.45594000000E+02  0.51100000000E-03 0.  1.
    9900012    2    1    2    0    0  0.26561100756E+02 -0.13157137585E+02 -0.11752335662E+02  0.59301957029E+02  0.50000023712E+02 0.  0.
         12    1    1    2    0    0 -0.26561100756E+02  0.13157137585E+02  0.11752335662E+02  0.31886042971E+02  0.00000000000E+00 0. -1.
         11    1    3    3    0    0 -0.43278983368E+01 -0.14351310070E+02  0.29404507773E+01  0.15275374162E+02  0.51100000000E-03 0. -1.
        -11    1    3    3    0    0 -0.43956011792E+01 -0.38657533627E+01 -0.18790882195E+01  0.61478721185E+01  0.51100000000E-03 0.  1.
        -12    1    3    3    0    0  0.35284600272E+02  0.50599258474E+01 -0.12813698219E+02  0.37878710749E+02  0.00000000000E+00 0.  1.
</event>
<event>
 7    1  0.3449603E-013  0.5930195E+02  0.7816164E-02  0.1266605E+00
        -11   -1    0    0    0    0  0.00000000000E+00  0.00000000000E+00  0.45593999997E+02  0.45594000000E+02  0.51100000000E-03 0. -1.
         11   -1    0    0    0    0 -0.00000000000E+00 -0.00000000000E+00 -0.45593999997E+02  0.45594000000E+02  0.51100000000E-03 0.  1.
    9900012    2    1    2    0    0  0.76912609597E+01 -0.14284806080E+02 -0.27450114579E+02  0.59301953360E+02  0.50000017021E+02 0.  0.
         12    1    1    2    0    0 -0.76912609597E+01  0.14284806080E+02  0.27450114579E+02  0.31886046640E+02  0.00000000000E+00 0. -1.
         11    1    3    3    0    0  0.47100777972E+01  0.53674362319E+01  0.68055209738E+00  0.71733782821E+01  0.51100000000E-03 0. -1.
        -11    1    3    3    0    0  0.18543640443E+02 -0.12885198525E+02 -0.44823542577E+01  0.23021434400E+02  0.51100000000E-03 0.  1.
        -12    1    3    3    0    0 -0.15562457280E+02 -0.67670437869E+01 -0.23648312419E+02  0.29107140678E+02  0.00000000000E+00 0.  1.
</event>
<event>
 7    1  0.3449603E-013  0.5930186E+02  0.7816164E-02  0.1266605E+00
        -11   -1    0    0    0    0  0.00000000000E+00  0.00000000000E+00  0.45593999997E+02  0.45594000000E+02  0.51100000000E-03 0. -1.
         11   -1    0    0    0    0 -0.00000000000E+00 -0.00000000000E+00 -0.45593999997E+02  0.45594000000E+02  0.51100000000E-03 0.  1.
    9900012    2    1    2    0    0 -0.34666129682E+01  0.12732239562E+02 -0.29027543975E+02  0.59301864472E+02  0.49999854909E+02 0.  0.
         12    1    1    2    0    0  0.34666129682E+01 -0.12732239562E+02  0.29027543975E+02  0.31886135528E+02  0.00000000000E+00 0. -1.
         11    1    3    3    0    0 -0.10821798754E+02 -0.27695648460E+01 -0.21196796845E+02  0.23960092121E+02  0.51100000000E-03 0. -1.
        -11    1    3    3    0    0 -0.11132528520E+02  0.53068399252E+01  0.11756121368E+01  0.12388615960E+02  0.51100000000E-03 0.  1.
        -12    1    3    3    0    0  0.18487714306E+02  0.10194964482E+02 -0.90063592661E+01  0.22953156391E+02  0.00000000000E+00 0.  1.
</event>
<event>
 7    1  0.3449603E-013  0.5930195E+02  0.7816164E-02  0.1266605E+00
        -11   -1    0    0    0    0  0.00000000000E+00  0.00000000000E+00  0.45593999997E+02  0.45594000000E+02  0.51100000000E-03 0. -1.
         11   -1    0    0    0    0 -0.00000000000E+00 -0.00000000000E+00 -0.45593999997E+02  0.45594000000E+02  0.51100000000E-03 0.  1.
    9900012    2    1    2    0    0 -0.17922800959E+02  0.19568171530E+02 -0.17679929354E+02  0.59301952374E+02  0.50000015222E+02 0.  0.
         12    1    1    2    0    0  0.17922800959E+02 -0.19568171530E+02  0.17679929354E+02  0.31886047626E+02  0.00000000000E+00 0. -1.
         11    1    3    3    0    0 -0.22020506351E+01  0.10626190275E+01  0.48683645758E+01  0.54478583040E+01  0.51100000000E-03 0. -1.
        -11    1    3    3    0    0 -0.54601007812E+00 -0.13407580139E+02 -0.43500545474E+01  0.14106179746E+02  0.51100000000E-03 0.  1.
         12    1    3    3    0    0 -0.15174740245E+02  0.31913132642E+02 -0.18198239382E+02  0.39747914324E+02  0.00000000000E+00 0. -1.
</event>
<event>
 7    1  0.3449603E-013  0.5930195E+02  0.7816164E-02  0.1266605E+00
        -11   -1    0    0    0    0  0.00000000000E+00  0.00000000000E+00  0.45593999997E+02  0.45594000000E+02  0.51100000000E-03 0.  1.
         11   -1    0    0    0    0 -0.00000000000E+00 -0.00000000000E+00 -0.45593999997E+02  0.45594000000E+02  0.51100000000E-03 0. -1.
    9900012    2    1    2    0    0 -0.54778207582E+01 -0.16701065760E+02  0.26604287564E+02  0.59301949216E+02  0.50000009463E+02 0.  0.
         12    1    1    2    0    0  0.54778207582E+01  0.16701065760E+02 -0.26604287564E+02  0.31886050784E+02  0.00000000000E+00 0. -1.
         11    1    3    3    0    0  0.14275897345E+02 -0.95021784546E+01  0.17320271296E+01  0.17236373128E+02  0.51100000000E-03 0. -1.
        -11    1    3    3    0    0 -0.89950516491E+01 -0.12634475096E+02  0.25663374693E+02  0.29985825252E+02  0.51100000000E-03 0.  1.
        -12    1    3    3    0    0 -0.10758666454E+02  0.54355877909E+01 -0.79111425831E+00  0.12079750836E+02  0.00000000000E+00 0.  1.
</event>
<event>
 7    1  0.3449603E-013  0.5930195E+02  0.7816164E-02  0.1266605E+00
        -11   -1    0    0    0    0  0.00000000000E+00  0.00000000000E+00  0.45593999997E+02  0.45594000000E+02  0.51100000000E-03 0. -1.
         11   -1    0    0    0    0 -0.00000000000E+00 -0.00000000000E+00 -0.45593999997E+02  0.45594000000E+02  0.51100000000E-03 0.  1.
    9900012    2    1    2    0    0 -0.14980593986E+02 -0.84082222359E+01 -0.26862687214E+02  0.59301947223E+02  0.50000005828E+02 0.  0.
         12    1    1    2    0    0  0.14980593986E+02  0.84082222359E+01  0.26862687214E+02  0.31886052777E+02  0.00000000000E+00 0. -1.
         11    1    3    3    0    0  0.74129354124E+00 -0.50653974656E+01 -0.13735264990E+02  0.14658283399E+02  0.51100000000E-03 0. -1.
        -11    1    3    3    0    0 -0.68271033162E+01  0.13537126073E+02 -0.19342982349E+02  0.24576698078E+02  0.51100000000E-03 0.  1.
        -12    1    3    3    0    0 -0.88947842110E+01 -0.16879950843E+02  0.62155601247E+01  0.20066965747E+02  0.00000000000E+00 0.  1.
</event>
<event>
 7    1  0.3449603E-013  0.5930202E+02  0.7816164E-02  0.1266604E+00
        -11   -1    0    0    0    0  0.00000000000E+00  0.00000000000E+00  0.45593999997E+02  0.45594000000E+02  0.51100000000E-03 0.  1.
         11   -1    0    0    0    0 -0.00000000000E+00 -0.00000000000E+00 -0.45593999997E+02  0.45594000000E+02  0.51100000000E-03 0. -1.
    9900012    2    1    2    0    0 -0.31353465581E+02  0.34419450381E+01 -0.46721270422E+01  0.59302022507E+02  0.50000143128E+02 0.  0.
         12    1    1    2    0    0  0.31353465581E+02 -0.34419450381E+01  0.46721270422E+01  0.31885977493E+02  0.00000000000E+00 0. -1.
         11    1    3    3    0    0 -0.29349136761E+02 -0.13380333490E+02 -0.10560442017E+02  0.33940066128E+02  0.51100000000E-03 0. -1.
        -11    1    3    3    0    0 -0.47344261392E+01 -0.14781746780E+01 -0.18668068122E+01  0.52995055601E+01  0.51100000000E-03 0.  1.
        -12    1    3    3    0    0  0.27300973197E+01  0.18300453206E+02  0.77551217869E+01  0.20062450819E+02  0.00000000000E+00 0.  1.
</event>
<event>
 7    1  0.3449603E-013  0.5930195E+02  0.7816164E-02  0.1266605E+00
        -11   -1    0    0    0    0  0.00000000000E+00  0.00000000000E+00  0.45593999997E+02  0.45594000000E+02  0.51100000000E-03 0. -1.
         11   -1    0    0    0    0 -0.00000000000E+00 -0.00000000000E+00 -0.45593999997E+02  0.45594000000E+02  0.51100000000E-03 0.  1.
    9900012    2    1    2    0    0 -0.62663865802E+01  0.17907763144E+02 -0.25627414717E+02  0.59301953417E+02  0.50000017125E+02 0.  0.
         12    1    1    2    0    0  0.62663865802E+01 -0.17907763144E+02  0.25627414717E+02  0.31886046583E+02  0.00000000000E+00 0. -1.
         11    1    3    3    0    0 -0.28062141320E+01  0.87880429833E+01 -0.76076374508E+01  0.11957453118E+02  0.51100000000E-03 0. -1.
        -11    1    3    3    0    0  0.16904298380E+02  0.40602608761E+01 -0.19723635378E+02  0.26291877355E+02  0.51100000000E-03 0.  1.
         12    1    3    3    0    0 -0.20364470828E+02  0.50594592842E+01  0.17038581115E+01  0.21052622944E+02  0.00000000000E+00 0. -1.
</event>
<event>
 7    1  0.3449603E-013  0.5930193E+02  0.7816164E-02  0.1266605E+00
        -11   -1    0    0    0    0  0.00000000000E+00  0.00000000000E+00  0.45593999997E+02  0.45594000000E+02  0.51100000000E-03 0.  1.
         11   -1    0    0    0    0 -0.00000000000E+00 -0.00000000000E+00 -0.45593999997E+02  0.45594000000E+02  0.51100000000E-03 0. -1.
    9900012    2    1    2    0    0 -0.29148132357E+02  0.12641822827E+02 -0.27003511366E+01  0.59301934069E+02  0.49999981837E+02 0.  0.
         12    1    1    2    0    0  0.29148132357E+02 -0.12641822827E+02  0.27003511366E+01  0.31886065931E+02  0.00000000000E+00 0. -1.
         11    1    3    3    0    0 -0.26357118249E+02  0.97239769631E+01 -0.34869808128E+01  0.28309228987E+02  0.51100000000E-03 0. -1.
        -11    1    3    3    0    0 -0.15759385246E+02 -0.26981442342E+00 -0.48594674448E+01  0.16493800268E+02  0.51100000000E-03 0.  1.
         12    1    3    3    0    0  0.12968371139E+02  0.31876602874E+01  0.56460971209E+01  0.14498904814E+02  0.00000000000E+00 0. -1.
</event>
<event>
 7    1  0.3449603E-013  0.5930192E+02  0.7816164E-02  0.1266605E+00
        -11   -1    0    0    0    0  0.00000000000E+00  0.00000000000E+00  0.45593999997E+02  0.45594000000E+02  0.51100000000E-03 0.  1.
         11   -1    0    0    0    0 -0.00000000000E+00 -0.00000000000E+00 -0.45593999997E+02  0.45594000000E+02  0.51100000000E-03 0. -1.
    9900012    2    1    2    0    0 -0.34595158099E+01 -0.83009428747E+01  0.30591631990E+02  0.59301923884E+02  0.49999963263E+02 0.  0.
         12    1    1    2    0    0  0.34595158099E+01  0.83009428747E+01 -0.30591631990E+02  0.31886076116E+02  0.00000000000E+00 0. -1.
         11    1    3    3    0    0  0.86829827597E+01  0.67075212119E+01 -0.75668875218E+01  0.13328271360E+02  0.51100000000E-03 0.  1.
        -11    1    3    3    0    0 -0.85032465215E+01 -0.89662126069E+00  0.53820208057E+01  0.10103231132E+02  0.51100000000E-03 0. -1.
        -12    1    3    3    0    0 -0.36392520481E+01 -0.14111842826E+02  0.32776498706E+02  0.35870421392E+02  0.00000000000E+00 0.  1.
</event>
<event>
 7    1  0.3449603E-013  0.5930194E+02  0.7816164E-02  0.1266605E+00
        -11   -1    0    0    0    0  0.00000000000E+00  0.00000000000E+00  0.45593999997E+02  0.45594000000E+02  0.51100000000E-03 0.  1.
         11   -1    0    0    0    0 -0.00000000000E+00 -0.00000000000E+00 -0.45593999997E+02  0.45594000000E+02  0.51100000000E-03 0. -1.
    9900012    2    1    2    0    0  0.41575360577E+01  0.19604304058E+02  0.24801346804E+02  0.59301942749E+02  0.49999997669E+02 0.  0.
         12    1    1    2    0    0 -0.41575360577E+01 -0.19604304058E+02 -0.24801346804E+02  0.31886057251E+02  0.00000000000E+00 0. -1.
         11    1    3    3    0    0 -0.84971352688E+01 -0.25873452446E+01  0.33581803108E+01  0.94959485283E+01  0.51100000000E-03 0.  1.
        -11    1    3    3    0    0  0.17126078986E+02  0.13100783228E+01  0.22639343492E+02  0.28417578374E+02  0.51100000000E-03 0. -1.
         12    1    3    3    0    0 -0.44714076593E+01  0.20881570980E+02 -0.11961769980E+01  0.21388415847E+02  0.00000000000E+00 0. -1.
</event>
<event>
 7    1  0.3449603E-013  0.5930195E+02  0.7816164E-02  0.1266605E+00
        -11   -1    0    0    0    0  0.00000000000E+00  0.00000000000E+00  0.45593999997E+02  0.45594000000E+02  0.51100000000E-03 0. -1.
         11   -1    0    0    0    0 -0.00000000000E+00 -0.00000000000E+00 -0.45593999997E+02  0.45594000000E+02  0.51100000000E-03 0.  1.
    9900012    2    1    2    0    0  0.27031904300E+01 -0.28068220078E+02 -0.14885833250E+02  0.59301949000E+02  0.50000009068E+02 0.  0.
         12    1    1    2    0    0 -0.27031904300E+01  0.28068220078E+02  0.14885833250E+02  0.31886051000E+02  0.00000000000E+00 0. -1.
         11    1    3    3    0    0  0.99776131868E+01 -0.15947146810E+02 -0.10455008633E+02  0.21521418682E+02  0.51100000000E-03 0. -1.
        -11    1    3    3    0    0 -0.20493487331E+02 -0.75824349171E+01 -0.81434055122E+01  0.23319335236E+02  0.51100000000E-03 0.  1.
         12    1    3    3    0    0  0.13219064574E+02 -0.45386383501E+01  0.37125808956E+01  0.14461195082E+02  0.00000000000E+00 0. -1.
</event>
<event>
 7    1  0.3449603E-013  0.5930195E+02  0.7816164E-02  0.1266605E+00
        -11   -1    0    0    0    0  0.00000000000E+00  0.00000000000E+00  0.45593999997E+02  0.45594000000E+02  0.51100000000E-03 0.  1.
         11   -1    0    0    0    0 -0.00000000000E+00 -0.00000000000E+00 -0.45593999997E+02  0.45594000000E+02  0.51100000000E-03 0. -1.
    9900012    2    1    2    0    0 -0.78458935984E+01 -0.25471160516E+02  0.17503771943E+02  0.59301951380E+02  0.50000013408E+02 0.  0.
         12    1    1    2    0    0  0.78458935984E+01  0.25471160516E+02 -0.17503771943E+02  0.31886048620E+02  0.00000000000E+00 0. -1.
         11    1    3    3    0    0 -0.99895437363E+01 -0.12475817961E+02  0.18359499503E+01  0.16087502302E+02  0.51100000000E-03 0. -1.
        -11    1    3    3    0    0 -0.64656441933E+01 -0.19330475596E+02  0.22631323572E+02  0.30457325038E+02  0.51100000000E-03 0.  1.
         12    1    3    3    0    0  0.86092943312E+01  0.63351330407E+01 -0.69635015784E+01  0.12757124039E+02  0.00000000000E+00 0. -1.
</event>
<event>
 7    1  0.3449603E-013  0.5930193E+02  0.7816164E-02  0.1266605E+00
        -11   -1    0    0    0    0  0.00000000000E+00  0.00000000000E+00  0.45593999997E+02  0.45594000000E+02  0.51100000000E-03 0.  1.
         11   -1    0    0    0    0 -0.00000000000E+00 -0.00000000000E+00 -0.45593999997E+02  0.45594000000E+02  0.51100000000E-03 0. -1.
    9900012    2    1    2    0    0 -0.13329475067E+02 -0.22731139202E+02  0.17953873797E+02  0.59301934402E+02  0.49999982444E+02 0.  0.
         12    1    1    2    0    0  0.13329475067E+02  0.22731139202E+02 -0.17953873797E+02  0.31886065598E+02  0.00000000000E+00 0. -1.
         11    1    3    3    0    0 -0.27006124901E+02  0.26054766960E-01  0.13116083996E+02  0.30022710083E+02  0.51100000000E-03 0. -1.
        -11    1    3    3    0    0  0.44127605587E+01 -0.50885388453E+01 -0.35780491134E+01  0.76268026753E+01  0.51100000000E-03 0.  1.
        -12    1    3    3    0    0  0.92638892754E+01 -0.17668655124E+02  0.84158389144E+01  0.21652421644E+02  0.00000000000E+00 0.  1.
</event>
<event>
 7    1  0.3449603E-013  0.5930196E+02  0.7816164E-02  0.1266605E+00
        -11   -1    0    0    0    0  0.00000000000E+00  0.00000000000E+00  0.45593999997E+02  0.45594000000E+02  0.51100000000E-03 0. -1.
         11   -1    0    0    0    0 -0.00000000000E+00 -0.00000000000E+00 -0.45593999997E+02  0.45594000000E+02  0.51100000000E-03 0.  1.
    9900012    2    1    2    0    0  0.23332889966E+02 -0.17162837708E+02  0.13331658077E+02  0.59301955099E+02  0.50000020191E+02 0.  0.
         12    1    1    2    0    0 -0.23332889966E+02  0.17162837708E+02 -0.13331658077E+02  0.31886044901E+02  0.00000000000E+00 0. -1.
         11    1    3    3    0    0 -0.52149811478E+01  0.16031331812E+01 -0.13895118883E+01  0.56299918221E+01  0.51100000000E-03 0. -1.
        -11    1    3    3    0    0  0.64868189170E+00  0.10676872135E+02  0.56664143609E+00  0.10711557756E+02  0.51100000000E-03 0.  1.
        -12    1    3    3    0    0  0.27899189222E+02 -0.29442843024E+02  0.14154528529E+02  0.42960405521E+02  0.00000000000E+00 0.  1.
</event>
<event>
 7    1  0.3449603E-013  0.5930196E+02  0.7816164E-02  0.1266605E+00
        -11   -1    0    0    0    0  0.00000000000E+00  0.00000000000E+00  0.45593999997E+02  0.45594000000E+02  0.51100000000E-03 0.  1.
         11   -1    0    0    0    0 -0.00000000000E+00 -0.00000000000E+00 -0.45593999997E+02  0.45594000000E+02  0.51100000000E-03 0. -1.
    9900012    2    1    2    0    0  0.12207861563E+02  0.53988811578E+01  0.28957548513E+02  0.59301962028E+02  0.50000032828E+02 0.  0.
         12    1    1    2    0    0 -0.12207861563E+02 -0.53988811578E+01 -0.28957548513E+02  0.31886037972E+02  0.00000000000E+00 0. -1.
         11    1    3    3    0    0 -0.76704523892E+00 -0.86658659441E+01  0.52453413441E+01  0.10158700558E+02  0.51100000000E-03 0. -1.
        -11    1    3    3    0    0  0.24817672458E+02  0.48453536538E+00  0.11367859391E+02  0.27301645887E+02  0.51100000000E-03 0.  1.
         12    1    3    3    0    0 -0.11842765656E+02  0.13580211737E+02  0.12344347777E+02  0.21841615582E+02  0.00000000000E+00 0. -1.
</event>
<event>
 7    1  0.3449603E-013  0.5930196E+02  0.7816164E-02  0.1266605E+00
        -11   -1    0    0    0    0  0.00000000000E+00  0.00000000000E+00  0.45593999997E+02  0.45594000000E+02  0.51100000000E-03 0.  1.
         11   -1    0    0    0    0 -0.00000000000E+00 -0.00000000000E+00 -0.45593999997E+02  0.45594000000E+02  0.51100000000E-03 0. -1.
    9900012    2    1    2    0    0  0.13136738357E+02  0.18409057136E+02  0.22477823680E+02  0.59301955456E+02  0.50000020842E+02 0.  0.
         12    1    1    2    0    0 -0.13136738357E+02 -0.18409057136E+02 -0.22477823680E+02  0.31886044544E+02  0.00000000000E+00 0. -1.
         11    1    3    3    0    0  0.13400770854E+02  0.72790602141E+01  0.34369694991E+01  0.15632598527E+02  0.51100000000E-03 0. -1.
        -11    1    3    3    0    0  0.48560557721E+01  0.57212620586E+01  0.29718231178E+02  0.30651058413E+02  0.51100000000E-03 0.  1.
        -12    1    3    3    0    0 -0.51200882696E+01  0.54087348632E+01 -0.10677376998E+02  0.13018298516E+02  0.00000000000E+00 0.  1.
</event>
<event>
 7    1  0.3449603E-013  0.5930202E+02  0.7816164E-02  0.1266605E+00
        -11   -1    0    0    0    0  0.00000000000E+00  0.00000000000E+00  0.45593999997E+02  0.45594000000E+02  0.51100000000E-03 0.  1.
         11   -1    0    0    0    0 -0.00000000000E+00 -0.00000000000E+00 -0.45593999997E+02  0.45594000000E+02  0.51100000000E-03 0. -1.
    9900012    2    1    2    0    0 -0.17389684907E+02  0.59037395361E+00  0.26720148561E+02  0.59302015278E+02  0.50000129943E+02 0.  0.
         12    1    1    2    0    0  0.17389684907E+02 -0.59037395361E+00 -0.26720148561E+02  0.31885984722E+02  0.00000000000E+00 0. -1.
         11    1    3    3    0    0  0.25385677190E+01 -0.11712383734E+02  0.12380690953E+02  0.17230953762E+02  0.51100000000E-03 0. -1.
        -11    1    3    3    0    0 -0.79641941965E+01  0.60858632227E+01  0.23649673570E+02  0.25686050312E+02  0.51100000000E-03 0.  1.
         12    1    3    3    0    0 -0.11964058430E+02  0.62168944653E+01 -0.93102159627E+01  0.16385011205E+02  0.00000000000E+00 0. -1.
</event>
<event>
 7    1  0.3449603E-013  0.5930194E+02  0.7816164E-02  0.1266605E+00
        -11   -1    0    0    0    0  0.00000000000E+00  0.00000000000E+00  0.45593999997E+02  0.45594000000E+02  0.51100000000E-03 0. -1.
         11   -1    0    0    0    0 -0.00000000000E+00 -0.00000000000E+00 -0.45593999997E+02  0.45594000000E+02  0.51100000000E-03 0.  1.
    9900012    2    1    2    0    0 -0.20949206899E+02 -0.16496027670E+02 -0.17485211714E+02  0.59301939923E+02  0.49999992513E+02 0.  0.
         12    1    1    2    0    0  0.20949206899E+02  0.16496027670E+02  0.17485211714E+02  0.31886060077E+02  0.00000000000E+00 0. -1.
         11    1    3    3    0    0 -0.43320152262E+01 -0.39988249776E+01  0.72214808201E+01  0.93223785923E+01  0.51100000000E-03 0. -1.
        -11    1    3    3    0    0 -0.11840323887E+02  0.11141078420E+02 -0.11994473412E+01  0.16302011296E+02  0.51100000000E-03 0.  1.
        -12    1    3    3    0    0 -0.47768677857E+01 -0.23638281112E+02 -0.23507245193E+02  0.33677550035E+02  0.00000000000E+00 0.  1.
</event>
<event>
 7    1  0.3449603E-013  0.5930195E+02  0.7816164E-02  0.1266605E+00
        -11   -1    0    0    0    0  0.00000000000E+00  0.00000000000E+00  0.45593999997E+02  0.45594000000E+02  0.51100000000E-03 0. -1.
         11   -1    0    0    0    0 -0.00000000000E+00 -0.00000000000E+00 -0.45593999997E+02  0.45594000000E+02  0.51100000000E-03 0.  1.
    9900012    2    1    2    0    0  0.15698348255E+02  0.25217248289E+02 -0.11591912751E+02  0.59301949908E+02  0.50000010725E+02 0.  0.
         12    1    1    2    0    0 -0.15698348255E+02 -0.25217248289E+02  0.11591912751E+02  0.31886050092E+02  0.00000000000E+00 0. -1.
         11    1    3    3    0    0 -0.12901572409E+01  0.25625636299E+02  0.83027826137E+01  0.26968016998E+02  0.51100000000E-03 0. -1.
        -11    1    3    3    0    0 -0.24202678766E+01 -0.49524368716E+00  0.19244159134E+01  0.31315075879E+01  0.51100000000E-03 0.  1.
        -12    1    3    3    0    0  0.19408773372E+02  0.86855677848E-01 -0.21819111279E+02  0.29202425322E+02  0.00000000000E+00 0.  1.
</event>
<event>
 7    1  0.3449603E-013  0.5930195E+02  0.7816164E-02  0.1266605E+00
        -11   -1    0    0    0    0  0.00000000000E+00  0.00000000000E+00  0.45593999997E+02  0.45594000000E+02  0.51100000000E-03 0. -1.
         11   -1    0    0    0    0 -0.00000000000E+00 -0.00000000000E+00 -0.45593999997E+02  0.45594000000E+02  0.51100000000E-03 0.  1.
    9900012    2    1    2    0    0 -0.25317951066E+02 -0.19381552702E+02 -0.27794407643E+00  0.59301945302E+02  0.50000002323E+02 0.  0.
         12    1    1    2    0    0  0.25317951066E+02  0.19381552702E+02  0.27794407643E+00  0.31886054698E+02  0.00000000000E+00 0. -1.
         11    1    3    3    0    0  0.30064560189E+00  0.33969651902E+01  0.67986226371E+00  0.34773514692E+01  0.51100000000E-03 0. -1.
        -11    1    3    3    0    0  0.57467580260E+01  0.85246889012E+01  0.44110109271E+01  0.11187160781E+02  0.51100000000E-03 0.  1.
        -12    1    3    3    0    0 -0.31365354694E+02 -0.31303206794E+02 -0.53688172672E+01  0.44637433052E+02  0.00000000000E+00 0.  1.
</event>
<event>
 7    1  0.3449603E-013  0.5930194E+02  0.7816164E-02  0.1266605E+00
        -11   -1    0    0    0    0  0.00000000000E+00  0.00000000000E+00  0.45593999997E+02  0.45594000000E+02  0.51100000000E-03 0. -1.
         11   -1    0    0    0    0 -0.00000000000E+00 -0.00000000000E+00 -0.45593999997E+02  0.45594000000E+02  0.51100000000E-03 0.  1.
    9900012    2    1    2    0    0  0.12089591794E+02  0.26889587802E+02  0.12145474305E+02  0.59301941792E+02  0.49999995923E+02 0.  0.
         12    1    1    2    0    0 -0.12089591794E+02 -0.26889587802E+02 -0.12145474305E+02  0.31886058208E+02  0.00000000000E+00 0. -1.
         11    1    3    3    0    0  0.17375858217E+01  0.54772312402E+01 -0.30259647224E+01  0.64942843569E+01  0.51100000000E-03 0.  1.
        -11    1    3    3    0    0 -0.49472767781E+01  0.29348895921E+02 -0.12528096351E+00  0.29763214458E+02  0.51100000000E-03 0. -1.
         12    1    3    3    0    0  0.15299282751E+02 -0.79365393587E+01  0.15296719991E+02  0.23044442978E+02  0.00000000000E+00 0. -1.
</event>
<event>
 7    1  0.3449603E-013  0.5930187E+02  0.7816164E-02  0.1266605E+00
        -11   -1    0    0    0    0  0.00000000000E+00  0.00000000000E+00  0.45593999997E+02  0.45594000000E+02  0.51100000000E-03 0.  1.
         11   -1    0    0    0    0 -0.00000000000E+00 -0.00000000000E+00 -0.45593999997E+02  0.45594000000E+02  0.51100000000E-03 0. -1.
    9900012    2    1    2    0    0  0.49027896015E+01 -0.55987677890E+01  0.31005508215E+02  0.59301873137E+02  0.49999870713E+02 0.  0.
         12    1    1    2    0    0 -0.49027896015E+01  0.55987677890E+01 -0.31005508215E+02  0.31886126863E+02  0.00000000000E+00 0. -1.
         11    1    3    3    0    0 -0.12317323197E+02  0.12060475748E+02  0.13800905091E+02  0.22082493237E+02  0.51100000000E-03 0. -1.
        -11    1    3    3    0    0  0.15754717594E+02 -0.79371470617E+00  0.58000324497E+01  0.16807185552E+02  0.51100000000E-03 0.  1.
        -12    1    3    3    0    0  0.14653952042E+01 -0.16865528830E+02  0.11404570675E+02  0.20412194348E+02  0.00000000000E+00 0.  1.
</event>
<event>
 7    1  0.3449603E-013  0.5930216E+02  0.7816164E-02  0.1266604E+00
        -11   -1    0    0    0    0  0.00000000000E+00  0.00000000000E+00  0.45593999997E+02  0.45594000000E+02  0.51100000000E-03 0.  1.
         11   -1    0    0    0    0 -0.00000000000E+00 -0.00000000000E+00 -0.45593999997E+02  0.45594000000E+02  0.51100000000E-03 0. -1.
    9900012    2    1    2    0    0 -0.20687001443E+02 -0.17932227339E+02  0.16345949635E+02  0.59302158699E+02  0.50000391507E+02 0.  0.
         12    1    1    2    0    0  0.20687001443E+02  0.17932227339E+02 -0.16345949635E+02  0.31885841301E+02  0.00000000000E+00 0. -1.
         11    1    3    3    0    0 -0.12636730495E+02 -0.97132004124E+01 -0.66847786091E+01  0.17283503267E+02  0.51100000000E-03 0. -1.
        -11    1    3    3    0    0  0.12427489152E+02 -0.73142838447E+01  0.11884125515E+02  0.18686189400E+02  0.51100000000E-03 0.  1.
         12    1    3    3    0    0 -0.20477760099E+02 -0.90474308156E+00  0.11146602729E+02  0.23332466032E+02  0.00000000000E+00 0. -1.
</event>
<event>
 7    1  0.3449603E-013  0.5930194E+02  0.7816164E-02  0.1266605E+00
        -11   -1    0    0    0    0  0.00000000000E+00  0.00000000000E+00  0.45593999997E+02  0.45594000000E+02  0.51100000000E-03 0. -1.
         11   -1    0    0    0    0 -0.00000000000E+00 -0.00000000000E+00 -0.45593999997E+02  0.45594000000E+02  0.51100000000E-03 0.  1.
    9900012    2    1    2    0    0  0.11377354605E+02  0.89095149763E+01 -0.28423531690E+02  0.59301940214E+02  0.49999993045E+02 0.  0.
         12    1    1    2    0    0 -0.11377354605E+02 -0.89095149763E+01  0.28423531690E+02  0.31886059786E+02  0.00000000000E+00 0. -1.
         11    1    3    3    0    0  0.70677908583E+01 -0.45350877209E+01 -0.11477405369E+02  0.14221516182E+02  0.51100000000E-03 0. -1.
        -11    1    3    3    0    0  0.14097049091E+02  0.56907306564E+01  0.80036098610E+01  0.17180482517E+02  0.51100000000E-03 0.  1.
        -12    1    3    3    0    0 -0.97874853438E+01  0.77538720408E+01 -0.24949736182E+02  0.27899941515E+02  0.00000000000E+00 0.  1.
</event>
<event>
 7    1  0.3449603E-013  0.5930193E+02  0.7816164E-02  0.1266605E+00
        -11   -1    0    0    0    0  0.00000000000E+00  0.00000000000E+00  0.45593999997E+02  0.45594000000E+02  0.51100000000E-03 0.  1.
         11   -1    0    0    0    0 -0.00000000000E+00 -0.00000000000E+00 -0.45593999997E+02  0.45594000000E+02  0.51100000000E-03 0. -1.
    9900012    2    1    2    0    0 -0.17841447163E+02  0.22674741258E+02  0.13574253501E+02  0.59301929592E+02  0.49999973672E+02 0.  0.
         12    1    1    2    0    0  0.17841447163E+02 -0.22674741258E+02 -0.13574253501E+02  0.31886070408E+02  0.00000000000E+00 0. -1.
         11    1    3    3    0    0  0.35709988271E+01  0.42822635946E+01  0.75654786793E+01  0.93982063195E+01  0.51100000000E-03 0.  1.
        -11    1    3    3    0    0 -0.18023240530E+02  0.30817498728E+02  0.21147178935E-01  0.35700922601E+02  0.51100000000E-03 0. -1.
         12    1    3    3    0    0 -0.33892054602E+01 -0.12425021065E+02  0.59876276427E+01  0.14202800671E+02  0.00000000000E+00 0. -1.
</event>
<event>
 7    1  0.3449603E-013  0.5930194E+02  0.7816164E-02  0.1266605E+00
        -11   -1    0    0    0    0  0.00000000000E+00  0.00000000000E+00  0.45593999997E+02  0.45594000000E+02  0.51100000000E-03 0. -1.
         11   -1    0    0    0    0 -0.00000000000E+00 -0.00000000000E+00 -0.45593999997E+02  0.45594000000E+02  0.51100000000E-03 0.  1.
    9900012    2    1    2    0    0 -0.26925498078E+02 -0.16666198617E+02  0.37385002686E+01  0.59301937099E+02  0.49999987363E+02 0.  0.
         12    1    1    2    0    0  0.26925498078E+02  0.16666198617E+02 -0.37385002686E+01  0.31886062901E+02  0.00000000000E+00 0. -1.
         11    1    3    3    0    0 -0.18792433194E+02  0.36543794605E+01 -0.44515155733E+01  0.19655178090E+02  0.51100000000E-03 0. -1.
        -11    1    3    3    0    0 -0.72477730158E+01  0.75544285061E+01 -0.36413435955E+00  0.10475313734E+02  0.51100000000E-03 0.  1.
         12    1    3    3    0    0 -0.88529186829E+00 -0.27875006583E+02  0.85541502014E+01  0.29171445274E+02  0.00000000000E+00 0. -1.
</event>
<event>
 7    1  0.3449603E-013  0.5930195E+02  0.7816164E-02  0.1266605E+00
        -11   -1    0    0    0    0  0.00000000000E+00  0.00000000000E+00  0.45593999997E+02  0.45594000000E+02  0.51100000000E-03 0. -1.
         11   -1    0    0    0    0 -0.00000000000E+00 -0.00000000000E+00 -0.45593999997E+02  0.45594000000E+02  0.51100000000E-03 0.  1.
    9900012    2    1    2    0    0  0.23944488210E+01  0.20990677991E+02 -0.23882590405E+02  0.59301951764E+02  0.50000014108E+02 0.  0.
         12    1    1    2    0    0 -0.23944488210E+01 -0.20990677991E+02  0.23882590405E+02  0.31886048236E+02  0.00000000000E+00 0. -1.
         11    1    3    3    0    0  0.98700981028E+00 -0.38378263329E+01 -0.85991575457E+01  0.94682949935E+01  0.51100000000E-03 0. -1.
        -11    1    3    3    0    0  0.39365861186E+01  0.30001397133E+02 -0.24522047438E+02  0.38947546149E+02  0.51100000000E-03 0.  1.
         12    1    3    3    0    0 -0.25291471078E+01 -0.51728928092E+01  0.92386145792E+01  0.10886110621E+02  0.00000000000E+00 0. -1.
</event>
<event>
 7    1  0.3449603E-013  0.5930189E+02  0.7816164E-02  0.1266605E+00
        -11   -1    0    0    0    0  0.00000000000E+00  0.00000000000E+00  0.45593999997E+02  0.45594000000E+02  0.51100000000E-03 0. -1.
         11   -1    0    0    0    0 -0.00000000000E+00 -0.00000000000E+00 -0.45593999997E+02  0.45594000000E+02  0.51100000000E-03 0.  1.
    9900012    2    1    2    0    0 -0.97623246397E+00  0.30401935942E+02 -0.95652055370E+01  0.59301891805E+02  0.49999904758E+02 0.  0.
         12    1    1    2    0    0  0.97623246397E+00 -0.30401935942E+02  0.95652055370E+01  0.31886108195E+02  0.00000000000E+00 0. -1.
         11    1    3    3    0    0  0.12673620569E+02  0.14108700576E+02  0.70900353118E+01  0.20247090933E+02  0.51100000000E-03 0. -1.
        -11    1    3    3    0    0 -0.64999692456E+01 -0.50206446104E+01  0.34371607995E+01  0.89034008738E+01  0.51100000000E-03 0.  1.
        -12    1    3    3    0    0 -0.71498837873E+01  0.21313879977E+02 -0.20092401648E+02  0.30151399998E+02  0.00000000000E+00 0.  1.
</event>
<event>
 7    1  0.3449603E-013  0.5930196E+02  0.7816164E-02  0.1266605E+00
        -11   -1    0    0    0    0  0.00000000000E+00  0.00000000000E+00  0.45593999997E+02  0.45594000000E+02  0.51100000000E-03 0.  1.
         11   -1    0    0    0    0 -0.00000000000E+00 -0.00000000000E+00 -0.45593999997E+02  0.45594000000E+02  0.51100000000E-03 0. -1.
    9900012    2    1    2    0    0 -0.16013160292E+02  0.24374940112E+02  0.12890331414E+02  0.59301958352E+02  0.50000026124E+02 0.  0.
         12    1    1    2    0    0  0.16013160292E+02 -0.24374940112E+02 -0.12890331414E+02  0.31886041648E+02  0.00000000000E+00 0. -1.
         11    1    3    3    0    0 -0.18862042831E+02  0.13879528991E+02  0.25170495859E+01  0.23553206229E+02  0.51100000000E-03 0. -1.
        -11    1    3    3    0    0 -0.58398628401E+01  0.20144758493E+02  0.84934768283E+01  0.22628619967E+02  0.51100000000E-03 0.  1.
        -12    1    3    3    0    0  0.86887453788E+01 -0.96493473717E+01  0.18798050002E+01  0.13120132156E+02  0.00000000000E+00 0.  1.
</event>
<event>
 7    1  0.3449603E-013  0.5930194E+02  0.7816164E-02  0.1266605E+00
        -11   -1    0    0    0    0  0.00000000000E+00  0.00000000000E+00  0.45593999997E+02  0.45594000000E+02  0.51100000000E-03 0.  1.
         11   -1    0    0    0    0 -0.00000000000E+00 -0.00000000000E+00 -0.45593999997E+02  0.45594000000E+02  0.51100000000E-03 0. -1.
    9900012    2    1    2    0    0  0.19381957971E+02 -0.12940099238E+02  0.21762687243E+02  0.59301936914E+02  0.49999987027E+02 0.  0.
         12    1    1    2    0    0 -0.19381957971E+02  0.12940099238E+02 -0.21762687243E+02  0.31886063086E+02  0.00000000000E+00 0. -1.
         11    1    3    3    0    0 -0.63229298528E+01  0.12037941067E+02  0.86361831811E+01  0.16108231662E+02  0.51100000000E-03 0. -1.
        -11    1    3    3    0    0 -0.21347279149E+01 -0.51230938976E+01  0.61697383855E+01  0.82987243816E+01  0.51100000000E-03 0.  1.
         12    1    3    3    0    0  0.27839615739E+02 -0.19854946408E+02  0.69567656761E+01  0.34894980871E+02  0.00000000000E+00 0. -1.
</event>
<event>
 7    1  0.3449603E-013  0.5930193E+02  0.7816164E-02  0.1266605E+00
        -11   -1    0    0    0    0  0.00000000000E+00  0.00000000000E+00  0.45593999997E+02  0.45594000000E+02  0.51100000000E-03 0. -1.
         11   -1    0    0    0    0 -0.00000000000E+00 -0.00000000000E+00 -0.45593999997E+02  0.45594000000E+02  0.51100000000E-03 0.  1.
    9900012    2    1    2    0    0  0.24106138900E+01  0.12274446082E+02 -0.29329992494E+02  0.59301928658E+02  0.49999971969E+02 0.  0.
         12    1    1    2    0    0 -0.24106138900E+01 -0.12274446082E+02  0.29329992494E+02  0.31886071342E+02  0.00000000000E+00 0. -1.
         11    1    3    3    0    0 -0.17176581205E+02  0.37396556856E+01 -0.74759234154E+01  0.19102601858E+02  0.51100000000E-03 0. -1.
        -11    1    3    3    0    0  0.60532499277E+01  0.16606490421E+02 -0.14240839482E+02  0.22698433166E+02  0.51100000000E-03 0.  1.
         12    1    3    3    0    0  0.13533945168E+02 -0.80717000248E+01 -0.76132295965E+01  0.17500893634E+02  0.00000000000E+00 0. -1.
</event>
<event>
 7    1  0.3449603E-013  0.5930197E+02  0.7816164E-02  0.1266605E+00
        -11   -1    0    0    0    0  0.00000000000E+00  0.00000000000E+00  0.45593999997E+02  0.45594000000E+02  0.51100000000E-03 0.  1.
         11   -1    0    0    0    0 -0.00000000000E+00 -0.00000000000E+00 -0.45593999997E+02  0.45594000000E+02  0.51100000000E-03 0. -1.
    9900012    2    1    2    0    0  0.18263682980E+02 -0.20268523025E+02  0.16502835669E+02  0.59301972861E+02  0.50000052585E+02 0.  0.
         12    1    1    2    0    0 -0.18263682980E+02  0.20268523025E+02 -0.16502835669E+02  0.31886027139E+02  0.00000000000E+00 0. -1.
         11    1    3    3    0    0  0.75011312615E+01  0.34335622501E+01  0.77850898962E+01  0.11343013042E+02  0.51100000000E-03 0. -1.
        -11    1    3    3    0    0  0.12186388585E+02  0.90421612407E+00  0.17885757542E+02  0.21661624977E+02  0.51100000000E-03 0.  1.
         12    1    3    3    0    0 -0.14238368667E+01 -0.24606301399E+02 -0.91680117687E+01  0.26297334841E+02  0.00000000000E+00 0. -1.
</event>
<event>
 7    1  0.3449603E-013  0.5930204E+02  0.7816164E-02  0.1266604E+00
        -11   -1    0    0    0    0  0.00000000000E+00  0.00000000000E+00  0.45593999997E+02  0.45594000000E+02  0.51100000000E-03 0.  1.
         11   -1    0    0    0    0 -0.00000000000E+00 -0.00000000000E+00 -0.45593999997E+02  0.45594000000E+02  0.51100000000E-03 0. -1.
    9900012    2    1    2    0    0  0.27318340635E+02 -0.68189302503E+01 -0.14964113948E+02  0.59302043043E+02  0.50000180580E+02 0.  0.
         12    1    1    2    0    0 -0.27318340635E+02  0.68189302503E+01  0.14964113948E+02  0.31885956957E+02  0.00000000000E+00 0. -1.
         11    1    3    3    0    0 -0.11913568668E+01  0.67532503650E+01 -0.13387802234E+01  0.69869918008E+01  0.51100000000E-03 0. -1.
        -11    1    3    3    0    0  0.14871859218E+02  0.63951818884E+01  0.95720492361E+01  0.18806772047E+02  0.51100000000E-03 0.  1.
        -12    1    3    3    0    0  0.13637838284E+02 -0.19967362504E+02 -0.23197382961E+02  0.33508279196E+02  0.00000000000E+00 0.  1.
</event>
<event>
 7    1  0.3449603E-013  0.5930196E+02  0.7816164E-02  0.1266605E+00
        -11   -1    0    0    0    0  0.00000000000E+00  0.00000000000E+00  0.45593999997E+02  0.45594000000E+02  0.51100000000E-03 0.  1.
         11   -1    0    0    0    0 -0.00000000000E+00 -0.00000000000E+00 -0.45593999997E+02  0.45594000000E+02  0.51100000000E-03 0. -1.
    9900012    2    1    2    0    0  0.61155022629E+01  0.12669177637E+02  0.28614893661E+02  0.59301959651E+02  0.50000028493E+02 0.  0.
         12    1    1    2    0    0 -0.61155022629E+01 -0.12669177637E+02 -0.28614893661E+02  0.31886040349E+02  0.00000000000E+00 0. -1.
         11    1    3    3    0    0 -0.55970462901E+01 -0.10457920800E+02  0.25479242995E+02  0.28104925876E+02  0.51100000000E-03 0.  1.
        -11    1    3    3    0    0  0.11020606762E+02  0.44613038520E+01 -0.14116224903E+01  0.11972872829E+02  0.51100000000E-03 0. -1.
        -12    1    3    3    0    0  0.69194179121E+00  0.18665794585E+02  0.45472731568E+01  0.19224160946E+02  0.00000000000E+00 0.  1.
</event>
<event>
 7    1  0.3449603E-013  0.5930193E+02  0.7816164E-02  0.1266605E+00
        -11   -1    0    0    0    0  0.00000000000E+00  0.00000000000E+00  0.45593999997E+02  0.45594000000E+02  0.51100000000E-03 0.  1.
         11   -1    0    0    0    0 -0.00000000000E+00 -0.00000000000E+00 -0.45593999997E+02  0.45594000000E+02  0.51100000000E-03 0. -1.
    9900012    2    1    2    0    0 -0.28360583187E+02  0.81124144721E+01  0.12107332566E+02  0.59301930171E+02  0.49999974729E+02 0.  0.
         12    1    1    2    0    0  0.28360583187E+02 -0.81124144721E+01 -0.12107332566E+02  0.31886069829E+02  0.00000000000E+00 0. -1.
         11    1    3    3    0    0  0.22678667532E-01  0.53115949836E+01 -0.40064355955E+00  0.53267317479E+01  0.51100000000E-03 0. -1.
        -11    1    3    3    0    0 -0.51222217227E+01  0.21482140880E+02  0.13592934797E+01  0.22126165759E+02  0.51100000000E-03 0.  1.
        -12    1    3    3    0    0 -0.23261040132E+02 -0.18681321391E+02  0.11148682646E+02  0.31849032665E+02  0.00000000000E+00 0.  1.
</event>
<event>
 7    1  0.3449603E-013  0.5930194E+02  0.7816164E-02  0.1266605E+00
        -11   -1    0    0    0    0  0.00000000000E+00  0.00000000000E+00  0.45593999997E+02  0.45594000000E+02  0.51100000000E-03 0.  1.
         11   -1    0    0    0    0 -0.00000000000E+00 -0.00000000000E+00 -0.45593999997E+02  0.45594000000E+02  0.51100000000E-03 0. -1.
    9900012    2    1    2    0    0 -0.18520809257E+02 -0.15435770047E+02  0.20867135983E+02  0.59301941344E+02  0.49999995105E+02 0.  0.
         12    1    1    2    0    0  0.18520809257E+02  0.15435770047E+02 -0.20867135983E+02  0.31886058656E+02  0.00000000000E+00 0. -1.
         11    1    3    3    0    0 -0.11531158665E+02  0.75540721841E+01 -0.93034138461E+00  0.13816553914E+02  0.51100000000E-03 0. -1.
        -11    1    3    3    0    0  0.87748686676E+01  0.32092808792E+01  0.53227645759E+01  0.10753121727E+02  0.51100000000E-03 0.  1.
         12    1    3    3    0    0 -0.15764519260E+02 -0.26199123110E+02  0.16474712792E+02  0.34732265702E+02  0.00000000000E+00 0. -1.
</event>
<event>
 7    1  0.3449603E-013  0.5930199E+02  0.7816164E-02  0.1266605E+00
        -11   -1    0    0    0    0  0.00000000000E+00  0.00000000000E+00  0.45593999997E+02  0.45594000000E+02  0.51100000000E-03 0. -1.
         11   -1    0    0    0    0 -0.00000000000E+00 -0.00000000000E+00 -0.45593999997E+02  0.45594000000E+02  0.51100000000E-03 0.  1.
    9900012    2    1    2    0    0  0.17660423095E+02 -0.24585637083E+02 -0.10018657455E+02  0.59301990656E+02  0.50000085039E+02 0.  0.
         12    1    1    2    0    0 -0.17660423095E+02  0.24585637083E+02  0.10018657455E+02  0.31886009344E+02  0.00000000000E+00 0. -1.
         11    1    3    3    0    0 -0.48731367699E+01 -0.40275452809E+01  0.82627271466E+00  0.63758379707E+01  0.51100000000E-03 0. -1.
        -11    1    3    3    0    0 -0.10155408490E+02  0.12399384417E+01 -0.89453283702E+01  0.13590020929E+02  0.51100000000E-03 0.  1.
         12    1    3    3    0    0  0.32688968354E+02 -0.21798030244E+02 -0.18996018000E+01  0.39336131757E+02  0.00000000000E+00 0. -1.
</event>
<event>
 7    1  0.3449603E-013  0.5930191E+02  0.7816164E-02  0.1266605E+00
        -11   -1    0    0    0    0  0.00000000000E+00  0.00000000000E+00  0.45593999997E+02  0.45594000000E+02  0.51100000000E-03 0.  1.
         11   -1    0    0    0    0 -0.00000000000E+00 -0.00000000000E+00 -0.45593999997E+02  0.45594000000E+02  0.51100000000E-03 0. -1.
    9900012    2    1    2    0    0 -0.69056119406E+01 -0.23201510397E+02  0.20753918138E+02  0.59301910885E+02  0.49999939555E+02 0.  0.
         12    1    1    2    0    0  0.69056119406E+01  0.23201510397E+02 -0.20753918138E+02  0.31886089115E+02  0.00000000000E+00 0. -1.
         11    1    3    3    0    0  0.82887815693E+01  0.20506722372E+01 -0.19519621376E+01  0.87589561579E+01  0.51100000000E-03 0. -1.
        -11    1    3    3    0    0 -0.19629078740E+01 -0.23216957016E+02 -0.99675898904E+00  0.23321098370E+02  0.51100000000E-03 0.  1.
         12    1    3    3    0    0 -0.13231485636E+02 -0.20352256180E+01  0.23702639264E+02  0.27221856357E+02  0.00000000000E+00 0. -1.
</event>
<event>
 7    1  0.3449603E-013  0.5930195E+02  0.7816164E-02  0.1266605E+00
        -11   -1    0    0    0    0  0.00000000000E+00  0.00000000000E+00  0.45593999997E+02  0.45594000000E+02  0.51100000000E-03 0.  1.
         11   -1    0    0    0    0 -0.00000000000E+00 -0.00000000000E+00 -0.45593999997E+02  0.45594000000E+02  0.51100000000E-03 0. -1.
    9900012    2    1    2    0    0  0.39480702136E+01  0.30774377838E+02  0.73532622592E+01  0.59301952023E+02  0.50000014582E+02 0.  0.
         12    1    1    2    0    0 -0.39480702136E+01 -0.30774377838E+02 -0.73532622592E+01  0.31886047977E+02  0.00000000000E+00 0. -1.
         11    1    3    3    0    0 -0.11619225677E+02 -0.41743172141E+01  0.47530523192E+01  0.13229619652E+02  0.51100000000E-03 0. -1.
        -11    1    3    3    0    0 -0.23412898406E+01 -0.25818884292E+01  0.28263495706E+01  0.44873197050E+01  0.51100000000E-03 0.  1.
        -12    1    3    3    0    0  0.17908585731E+02  0.37530583481E+02 -0.22613963066E+00  0.41585012666E+02  0.00000000000E+00 0.  1.
</event>
<event>
 7    1  0.3449603E-013  0.5930208E+02  0.7816164E-02  0.1266604E+00
        -11   -1    0    0    0    0  0.00000000000E+00  0.00000000000E+00  0.45593999997E+02  0.45594000000E+02  0.51100000000E-03 0. -1.
         11   -1    0    0    0    0 -0.00000000000E+00 -0.00000000000E+00 -0.45593999997E+02  0.45594000000E+02  0.51100000000E-03 0.  1.
    9900012    2    1    2    0    0  0.10917317749E+02  0.11953224719E+02 -0.27470795724E+02  0.59302077938E+02  0.50000244219E+02 0.  0.
         12    1    1    2    0    0 -0.10917317749E+02 -0.11953224719E+02  0.27470795724E+02  0.31885922062E+02  0.00000000000E+00 0. -1.
         11    1    3    3    0    0  0.83886208603E+00 -0.12118408496E+02 -0.70703303105E+01  0.14055215581E+02  0.51100000000E-03 0. -1.
        -11    1    3    3    0    0  0.65336524326E+01 -0.20401980132E+01 -0.17433436350E+02  0.18729007589E+02  0.51100000000E-03 0.  1.
        -12    1    3    3    0    0  0.35448032302E+01  0.26111831228E+02 -0.29670290641E+01  0.26517854768E+02  0.00000000000E+00 0.  1.
</event>
<event>
 7    1  0.3997011E-013  0.5930194E+02  0.7816164E-02  0.1266605E+00
        -11   -1    0    0    0    0  0.00000000000E+00  0.00000000000E+00  0.45593999997E+02  0.45594000000E+02  0.51100000000E-03 0. -1.
         11   -1    0    0    0    0 -0.00000000000E+00 -0.00000000000E+00 -0.45593999997E+02  0.45594000000E+02  0.51100000000E-03 0.  1.
    9900012    2    1    2    0    0  0.66999029418E+01 -0.23605446456E+02 -0.20362090792E+02  0.59301944376E+02  0.50000000636E+02 0.  0.
         12    1    1    2    0    0 -0.66999029418E+01  0.23605446456E+02  0.20362090792E+02  0.31886055624E+02  0.00000000000E+00 0. -1.
         11    1    3    3    0    0 -0.28189000615E+01  0.83702520296E+01 -0.78045670874E+01  0.11786372821E+02  0.51100000000E-03 0. -1.
        -11    1    3    3    0    0  0.12337942698E+02 -0.73635954334E+01 -0.17094082899E+02  0.22330585262E+02  0.51100000000E-03 0.  1.
         12    1    3    3    0    0 -0.28191396942E+01 -0.24612103052E+02  0.45365591943E+01  0.25184986293E+02  0.00000000000E+00 0. -1.
</event>
<event>
 7    1  0.3449603E-013  0.5930192E+02  0.7816164E-02  0.1266605E+00
        -11   -1    0    0    0    0  0.00000000000E+00  0.00000000000E+00  0.45593999997E+02  0.45594000000E+02  0.51100000000E-03 0.  1.
         11   -1    0    0    0    0 -0.00000000000E+00 -0.00000000000E+00 -0.45593999997E+02  0.45594000000E+02  0.51100000000E-03 0. -1.
    9900012    2    1    2    0    0 -0.90898947938E+01  0.92217573487E+00  0.30549068004E+02  0.59301919159E+02  0.49999954646E+02 0.  0.
         12    1    1    2    0    0  0.90898947938E+01 -0.92217573487E+00 -0.30549068004E+02  0.31886080841E+02  0.00000000000E+00 0. -1.
         11    1    3    3    0    0  0.10934972891E+02 -0.63147180014E+01 -0.48071320752E+01  0.13511395732E+02  0.51100000000E-03 0. -1.
        -11    1    3    3    0    0  0.27476506238E+01 -0.18720895450E+01  0.98901150812E+01  0.10434015516E+02  0.51100000000E-03 0.  1.
         12    1    3    3    0    0 -0.22772518309E+02  0.91089832812E+01  0.25466084998E+02  0.35356507911E+02  0.00000000000E+00 0. -1.
</event>
<event>
 7    1  0.3449603E-013  0.5930186E+02  0.7816164E-02  0.1266605E+00
        -11   -1    0    0    0    0  0.00000000000E+00  0.00000000000E+00  0.45593999997E+02  0.45594000000E+02  0.51100000000E-03 0.  1.
         11   -1    0    0    0    0 -0.00000000000E+00 -0.00000000000E+00 -0.45593999997E+02  0.45594000000E+02  0.51100000000E-03 0. -1.
    9900012    2    1    2    0    0 -0.18202234738E+02  0.23180340459E+02  0.12168664073E+02  0.59301860086E+02  0.49999846911E+02 0.  0.
         12    1    1    2    0    0  0.18202234738E+02 -0.23180340459E+02 -0.12168664073E+02  0.31886139914E+02  0.00000000000E+00 0. -1.
         11    1    3    3    0    0 -0.22782707052E+00 -0.64899766768E+01  0.12824423796E+02  0.14374892988E+02  0.51100000000E-03 0. -1.
        -11    1    3    3    0    0  0.52118632502E+01 -0.15714595216E+01  0.22991477777E+01  0.59092372039E+01  0.51100000000E-03 0.  1.
        -12    1    3    3    0    0 -0.23186270918E+02  0.31241776658E+02 -0.29549075012E+01  0.39017729895E+02  0.00000000000E+00 0.  1.
</event>
<event>
 7    1  0.3449603E-013  0.5930194E+02  0.7816164E-02  0.1266605E+00
        -11   -1    0    0    0    0  0.00000000000E+00  0.00000000000E+00  0.45593999997E+02  0.45594000000E+02  0.51100000000E-03 0.  1.
         11   -1    0    0    0    0 -0.00000000000E+00 -0.00000000000E+00 -0.45593999997E+02  0.45594000000E+02  0.51100000000E-03 0. -1.
    9900012    2    1    2    0    0 -0.11231705628E+02  0.24394185111E+02  0.17189913402E+02  0.59301943466E+02  0.49999998975E+02 0.  0.
         12    1    1    2    0    0  0.11231705628E+02 -0.24394185111E+02 -0.17189913402E+02  0.31886056534E+02  0.00000000000E+00 0. -1.
         11    1    3    3    0    0 -0.14422805435E+02  0.20694691284E+01  0.17508003323E+02  0.22777844492E+02  0.51100000000E-03 0. -1.
        -11    1    3    3    0    0 -0.10829803688E+02  0.20091936866E+01  0.34760396300E+01  0.11550080474E+02  0.51100000000E-03 0.  1.
         12    1    3    3    0    0  0.14020903495E+02  0.20315522296E+02 -0.37941295505E+01  0.24974018500E+02  0.00000000000E+00 0. -1.
</event>
<event>
 7    1  0.3449603E-013  0.5930194E+02  0.7816164E-02  0.1266605E+00
        -11   -1    0    0    0    0  0.00000000000E+00  0.00000000000E+00  0.45593999997E+02  0.45594000000E+02  0.51100000000E-03 0. -1.
         11   -1    0    0    0    0 -0.00000000000E+00 -0.00000000000E+00 -0.45593999997E+02  0.45594000000E+02  0.51100000000E-03 0.  1.
    9900012    2    1    2    0    0  0.13926768022E+02 -0.25444193594E+02  0.13242325617E+02  0.59301936541E+02  0.49999986346E+02 0.  0.
         12    1    1    2    0    0 -0.13926768022E+02  0.25444193594E+02 -0.13242325617E+02  0.31886063459E+02  0.00000000000E+00 0. -1.
         11    1    3    3    0    0  0.15126595290E+02 -0.19904460201E+02 -0.31475044249E+01  0.25197384891E+02  0.51100000000E-03 0. -1.
        -11    1    3    3    0    0  0.24186780575E+01 -0.13643543600E+02 -0.16948611082E+01  0.13959542971E+02  0.51100000000E-03 0.  1.
         12    1    3    3    0    0 -0.36185053263E+01  0.81038102077E+01  0.18084691150E+02  0.20145008679E+02  0.00000000000E+00 0. -1.
</event>
<event>
 7    1  0.3449603E-013  0.5930194E+02  0.7816164E-02  0.1266605E+00
        -11   -1    0    0    0    0  0.00000000000E+00  0.00000000000E+00  0.45593999997E+02  0.45594000000E+02  0.51100000000E-03 0.  1.
         11   -1    0    0    0    0 -0.00000000000E+00 -0.00000000000E+00 -0.45593999997E+02  0.45594000000E+02  0.51100000000E-03 0. -1.
    9900012    2    1    2    0    0 -0.31142734027E+02 -0.54274547245E+01  0.41705639042E+01  0.59301941123E+02  0.49999994702E+02 0.  0.
         12    1    1    2    0    0  0.31142734027E+02  0.54274547245E+01 -0.41705639042E+01  0.31886058877E+02  0.00000000000E+00 0. -1.
         11    1    3    3    0    0  0.32867743350E+01 -0.38106789665E+01  0.15023074463E+02  0.15843513698E+02  0.51100000000E-03 0. -1.
        -11    1    3    3    0    0 -0.13029143402E+02  0.80947550091E+01  0.37495394552E+01  0.15790588426E+02  0.51100000000E-03 0.  1.
        -12    1    3    3    0    0 -0.21400364959E+02 -0.97115307670E+01 -0.14602050014E+02  0.27667838999E+02  0.00000000000E+00 0.  1.
</event>
<event>
 7    1  0.3449603E-013  0.5930182E+02  0.7816164E-02  0.1266605E+00
        -11   -1    0    0    0    0  0.00000000000E+00  0.00000000000E+00  0.45593999997E+02  0.45594000000E+02  0.51100000000E-03 0. -1.
         11   -1    0    0    0    0 -0.00000000000E+00 -0.00000000000E+00 -0.45593999997E+02  0.45594000000E+02  0.51100000000E-03 0.  1.
    9900012    2    1    2    0    0 -0.12468143314E+02 -0.16424450166E+02 -0.24321005523E+02  0.59301820069E+02  0.49999773928E+02 0.  0.
         12    1    1    2    0    0  0.12468143314E+02  0.16424450166E+02  0.24321005523E+02  0.31886179931E+02  0.00000000000E+00 0. -1.
         11    1    3    3    0    0 -0.39238899429E+01 -0.19299129730E+02 -0.68479068699E+01  0.20850591104E+02  0.51100000000E-03 0. -1.
        -11    1    3    3    0    0 -0.28965559978E+01 -0.13451101394E+02  0.16794056738E+00  0.13760464005E+02  0.51100000000E-03 0.  1.
         12    1    3    3    0    0 -0.56476973734E+01  0.16325780958E+02 -0.17641039221E+02  0.24690764960E+02  0.00000000000E+00 0. -1.
</event>
<event>
 7    1  0.3449603E-013  0.5930195E+02  0.7816164E-02  0.1266605E+00
        -11   -1    0    0    0    0  0.00000000000E+00  0.00000000000E+00  0.45593999997E+02  0.45594000000E+02  0.51100000000E-03 0.  1.
         11   -1    0    0    0    0 -0.00000000000E+00 -0.00000000000E+00 -0.45593999997E+02  0.45594000000E+02  0.51100000000E-03 0. -1.
    9900012    2    1    2    0    0  0.53282230144E+01  0.19747605811E+02  0.24461445584E+02  0.59301949510E+02  0.50000009999E+02 0.  0.
         12    1    1    2    0    0 -0.53282230144E+01 -0.19747605811E+02 -0.24461445584E+02  0.31886050490E+02  0.00000000000E+00 0. -1.
         11    1    3    3    0    0  0.28816313145E+01  0.71950884844E+01  0.91511139693E+01  0.11992330235E+02  0.51100000000E-03 0. -1.
        -11    1    3    3    0    0  0.48043626689E+01  0.28120668869E+02  0.13162119802E+02  0.31418073083E+02  0.51100000000E-03 0.  1.
         12    1    3    3    0    0 -0.23577709690E+01 -0.15568151542E+02  0.21482118131E+01  0.15891546192E+02  0.00000000000E+00 0. -1.
</event>
<event>
 7    1  0.3449603E-013  0.5930196E+02  0.7816164E-02  0.1266605E+00
        -11   -1    0    0    0    0  0.00000000000E+00  0.00000000000E+00  0.45593999997E+02  0.45594000000E+02  0.51100000000E-03 0. -1.
         11   -1    0    0    0    0 -0.00000000000E+00 -0.00000000000E+00 -0.45593999997E+02  0.45594000000E+02  0.51100000000E-03 0.  1.
    9900012    2    1    2    0    0  0.28928045693E+02  0.87693498220E+01 -0.10148227304E+02  0.59301955383E+02  0.50000020708E+02 0.  0.
         12    1    1    2    0    0 -0.28928045693E+02 -0.87693498220E+01  0.10148227304E+02  0.31886044617E+02  0.00000000000E+00 0. -1.
         11    1    3    3    0    0  0.49905058508E+01  0.18548566300E+02 -0.17991570668E+02  0.26318265061E+02  0.51100000000E-03 0.  1.
        -11    1    3    3    0    0 -0.26906988092E-02  0.14809190324E+01  0.63118989692E+01  0.64833014182E+01  0.51100000000E-03 0. -1.
        -12    1    3    3    0    0  0.23940230541E+02 -0.11260135511E+02  0.15314443952E+01  0.26500388903E+02  0.00000000000E+00 0.  1.
</event>
<event>
 7    1  0.3449603E-013  0.5930192E+02  0.7816164E-02  0.1266605E+00
        -11   -1    0    0    0    0  0.00000000000E+00  0.00000000000E+00  0.45593999997E+02  0.45594000000E+02  0.51100000000E-03 0.  1.
         11   -1    0    0    0    0 -0.00000000000E+00 -0.00000000000E+00 -0.45593999997E+02  0.45594000000E+02  0.51100000000E-03 0. -1.
    9900012    2    1    2    0    0 -0.24070994966E+02 -0.17713183885E+02  0.11115423780E+02  0.59301916393E+02  0.49999949601E+02 0.  0.
         12    1    1    2    0    0  0.24070994966E+02  0.17713183885E+02 -0.11115423780E+02  0.31886083607E+02  0.00000000000E+00 0. -1.
         11    1    3    3    0    0 -0.32950834980E+02 -0.12926691592E+02  0.63196548903E+01  0.35955457438E+02  0.51100000000E-03 0.  1.
        -11    1    3    3    0    0 -0.21378804848E+01  0.70933719625E+00  0.98003381590E+01  0.10055860009E+02  0.51100000000E-03 0. -1.
         12    1    3    3    0    0  0.11017720499E+02 -0.54958294894E+01 -0.50045692695E+01  0.13290598946E+02  0.00000000000E+00 0. -1.
</event>
<event>
 7    1  0.3449603E-013  0.5930196E+02  0.7816164E-02  0.1266605E+00
        -11   -1    0    0    0    0  0.00000000000E+00  0.00000000000E+00  0.45593999997E+02  0.45594000000E+02  0.51100000000E-03 0.  1.
         11   -1    0    0    0    0 -0.00000000000E+00 -0.00000000000E+00 -0.45593999997E+02  0.45594000000E+02  0.51100000000E-03 0. -1.
    9900012    2    1    2    0    0  0.21856605381E+02 -0.12805448511E+02 -0.19365664077E+02  0.59301958296E+02  0.50000026023E+02 0.  0.
         12    1    1    2    0    0 -0.21856605381E+02  0.12805448511E+02  0.19365664077E+02  0.31886041704E+02  0.00000000000E+00 0. -1.
         11    1    3    3    0    0 -0.22650459150E+01  0.51385254997E+00 -0.80864006214E+01  0.84133437295E+01  0.51100000000E-03 0. -1.
        -11    1    3    3    0    0 -0.10520582475E+02 -0.48640547334E+01  0.37636813965E+01  0.12186344078E+02  0.51100000000E-03 0.  1.
        -12    1    3    3    0    0  0.34642233772E+02 -0.84552463278E+01 -0.15042944852E+02  0.38702270489E+02  0.00000000000E+00 0.  1.
</event>
<event>
 7    1  0.3449603E-013  0.5930187E+02  0.7816164E-02  0.1266605E+00
        -11   -1    0    0    0    0  0.00000000000E+00  0.00000000000E+00  0.45593999997E+02  0.45594000000E+02  0.51100000000E-03 0.  1.
         11   -1    0    0    0    0 -0.00000000000E+00 -0.00000000000E+00 -0.45593999997E+02  0.45594000000E+02  0.51100000000E-03 0. -1.
    9900012    2    1    2    0    0  0.18857389947E+01 -0.30824678343E+02  0.79378014264E+01  0.59301866681E+02  0.49999858939E+02 0.  0.
         12    1    1    2    0    0 -0.18857389947E+01  0.30824678343E+02 -0.79378014264E+01  0.31886133319E+02  0.00000000000E+00 0. -1.
         11    1    3    3    0    0 -0.19022236293E+01  0.12333511216E+01  0.12165278295E+01  0.25728486054E+01  0.51100000000E-03 0. -1.
        -11    1    3    3    0    0  0.84510436482E+01 -0.82065137449E+01 -0.18353936087E+02  0.21809034292E+02  0.51100000000E-03 0.  1.
        -12    1    3    3    0    0 -0.46630810242E+01 -0.23851515720E+02  0.25075209684E+02  0.34919983784E+02  0.00000000000E+00 0.  1.
</event>
<event>
 7    1  0.3449603E-013  0.5930197E+02  0.7816164E-02  0.1266605E+00
        -11   -1    0    0    0    0  0.00000000000E+00  0.00000000000E+00  0.45593999997E+02  0.45594000000E+02  0.51100000000E-03 0.  1.
         11   -1    0    0    0    0 -0.00000000000E+00 -0.00000000000E+00 -0.45593999997E+02  0.45594000000E+02  0.51100000000E-03 0. -1.
    9900012    2    1    2    0    0 -0.19028220912E+02 -0.16001002158E+02  0.19965312352E+02  0.59301969228E+02  0.50000045959E+02 0.  0.
         12    1    1    2    0    0  0.19028220912E+02  0.16001002158E+02 -0.19965312352E+02  0.31886030772E+02  0.00000000000E+00 0. -1.
         11    1    3    3    0    0  0.47838704760E+01  0.39542780258E+01  0.33144261847E+01  0.70361319367E+01  0.51100000000E-03 0. -1.
        -11    1    3    3    0    0 -0.19462666225E+02 -0.20659773052E+01  0.25249107455E+02  0.31946534497E+02  0.51100000000E-03 0.  1.
         12    1    3    3    0    0 -0.43494251630E+01 -0.17889302878E+02 -0.85982212883E+01  0.20319302794E+02  0.00000000000E+00 0. -1.
</event>
<event>
 7    1  0.3449603E-013  0.5930193E+02  0.7816164E-02  0.1266605E+00
        -11   -1    0    0    0    0  0.00000000000E+00  0.00000000000E+00  0.45593999997E+02  0.45594000000E+02  0.51100000000E-03 0.  1.
         11   -1    0    0    0    0 -0.00000000000E+00 -0.00000000000E+00 -0.45593999997E+02  0.45594000000E+02  0.51100000000E-03 0. -1.
    9900012    2    1    2    0    0  0.14710726586E+02 -0.20462246254E+02  0.19534909027E+02  0.59301926721E+02  0.49999968437E+02 0.  0.
         12    1    1    2    0    0 -0.14710726586E+02  0.20462246254E+02 -0.19534909027E+02  0.31886073279E+02  0.00000000000E+00 0. -1.
         11    1    3    3    0    0 -0.72504499683E+01  0.19942481962E+01  0.71050851086E+01  0.10345447563E+02  0.51100000000E-03 0. -1.
        -11    1    3    3    0    0  0.12194157828E+02  0.10699364089E+01 -0.93803569763E+01  0.15421846398E+02  0.51100000000E-03 0.  1.
         12    1    3    3    0    0  0.97670187263E+01 -0.23526430859E+02  0.21810180895E+02  0.33534632761E+02  0.00000000000E+00 0. -1.
</event>
<event>
 7    1  0.5597175E-013  0.5930197E+02  0.7816164E-02  0.1266605E+00
        -11   -1    0    0    0    0  0.00000000000E+00  0.00000000000E+00  0.45593999997E+02  0.45594000000E+02  0.51100000000E-03 0.  1.
         11   -1    0    0    0    0 -0.00000000000E+00 -0.00000000000E+00 -0.45593999997E+02  0.45594000000E+02  0.51100000000E-03 0. -1.
    9900012    2    1    2    0    0 -0.30337685015E+02 -0.82361114777E+01 -0.53394774546E+01  0.59301973533E+02  0.50000053811E+02 0.  0.
         12    1    1    2    0    0  0.30337685015E+02  0.82361114777E+01  0.53394774546E+01  0.31886026467E+02  0.00000000000E+00 0. -1.
         11    1    3    3    0    0 -0.95293490293E+01 -0.25750114999E+01  0.13530955629E+02  0.16748908551E+02  0.51100000000E-03 0. -1.
        -11    1    3    3    0    0 -0.25204925754E+02 -0.11878238929E+02 -0.74771265759E+01  0.28849406657E+02  0.51100000000E-03 0.  1.
         12    1    3    3    0    0  0.43965897686E+01  0.62171389512E+01 -0.11393306508E+02  0.13703658326E+02  0.00000000000E+00 0. -1.
</event>
<event>
 7    1  0.3449603E-013  0.5930190E+02  0.7816164E-02  0.1266605E+00
        -11   -1    0    0    0    0  0.00000000000E+00  0.00000000000E+00  0.45593999997E+02  0.45594000000E+02  0.51100000000E-03 0.  1.
         11   -1    0    0    0    0 -0.00000000000E+00 -0.00000000000E+00 -0.45593999997E+02  0.45594000000E+02  0.51100000000E-03 0. -1.
    9900012    2    1    2    0    0  0.98737320250E+01 -0.27783396011E+02  0.12137367203E+02  0.59301900198E+02  0.49999920064E+02 0.  0.
         12    1    1    2    0    0 -0.98737320250E+01  0.27783396011E+02 -0.12137367203E+02  0.31886099802E+02  0.00000000000E+00 0. -1.
         11    1    3    3    0    0  0.15721724349E+01 -0.12868836588E+02 -0.93264533383E+01  0.15970642236E+02  0.51100000000E-03 0.  1.
        -11    1    3    3    0    0  0.12440148928E+02  0.69786365161E+01  0.13585919488E+02  0.19698626388E+02  0.51100000000E-03 0. -1.
         12    1    3    3    0    0 -0.41385893377E+01 -0.21893195939E+02  0.78779010533E+01  0.23632631574E+02  0.00000000000E+00 0. -1.
</event>
<event>
 7    1  0.3449603E-013  0.5930202E+02  0.7816164E-02  0.1266604E+00
        -11   -1    0    0    0    0  0.00000000000E+00  0.00000000000E+00  0.45593999997E+02  0.45594000000E+02  0.51100000000E-03 0. -1.
         11   -1    0    0    0    0 -0.00000000000E+00 -0.00000000000E+00 -0.45593999997E+02  0.45594000000E+02  0.51100000000E-03 0.  1.
    9900012    2    1    2    0    0  0.20838632010E+02 -0.23894870301E+02 -0.33914815980E+01  0.59302022546E+02  0.50000143199E+02 0.  0.
         12    1    1    2    0    0 -0.20838632010E+02  0.23894870301E+02  0.33914815980E+01  0.31885977454E+02  0.00000000000E+00 0. -1.
         11    1    3    3    0    0  0.12305715233E+02 -0.69453548860E+01  0.19256011285E+02  0.23884357909E+02  0.51100000000E-03 0. -1.
        -11    1    3    3    0    0 -0.54376369247E+01 -0.41670036660E+01 -0.14656554878E+01  0.70057091824E+01  0.51100000000E-03 0.  1.
        -12    1    3    3    0    0  0.13970553702E+02 -0.12782511749E+02 -0.21181837395E+02  0.28411955455E+02  0.00000000000E+00 0.  1.
</event>
<event>
 7    1  0.3449603E-013  0.5930196E+02  0.7816164E-02  0.1266605E+00
        -11   -1    0    0    0    0  0.00000000000E+00  0.00000000000E+00  0.45593999997E+02  0.45594000000E+02  0.51100000000E-03 0. -1.
         11   -1    0    0    0    0 -0.00000000000E+00 -0.00000000000E+00 -0.45593999997E+02  0.45594000000E+02  0.51100000000E-03 0.  1.
    9900012    2    1    2    0    0 -0.18711795472E+02  0.22638121590E+02  0.12413854376E+02  0.59301958863E+02  0.50000027057E+02 0.  0.
         12    1    1    2    0    0  0.18711795472E+02 -0.22638121590E+02 -0.12413854376E+02  0.31886041137E+02  0.00000000000E+00 0. -1.
         11    1    3    3    0    0 -0.16254381304E+02 -0.12053566997E+02  0.77298403835E+01  0.21662036413E+02  0.51100000000E-03 0. -1.
        -11    1    3    3    0    0 -0.32997666525E+01  0.33541923547E+01 -0.27114849826E+01  0.54305816802E+01  0.51100000000E-03 0.  1.
         12    1    3    3    0    0  0.84235248525E+00  0.31337496232E+02  0.73954989753E+01  0.32209340771E+02  0.00000000000E+00 0. -1.
</event>
<event>
 7    1  0.3449603E-013  0.5930191E+02  0.7816164E-02  0.1266605E+00
        -11   -1    0    0    0    0  0.00000000000E+00  0.00000000000E+00  0.45593999997E+02  0.45594000000E+02  0.51100000000E-03 0.  1.
         11   -1    0    0    0    0 -0.00000000000E+00 -0.00000000000E+00 -0.45593999997E+02  0.45594000000E+02  0.51100000000E-03 0. -1.
    9900012    2    1    2    0    0 -0.10379380145E+02  0.29635061040E+02  0.55456466286E+01  0.59301912570E+02  0.49999942629E+02 0.  0.
         12    1    1    2    0    0  0.10379380145E+02 -0.29635061040E+02 -0.55456466286E+01  0.31886087430E+02  0.00000000000E+00 0. -1.
         11    1    3    3    0    0 -0.18474960309E+02  0.42698608026E+01 -0.28573965839E+01  0.19176041958E+02  0.51100000000E-03 0. -1.
        -11    1    3    3    0    0  0.48811047222E+00  0.13093021517E+02 -0.10180435795E+02  0.16592369858E+02  0.51100000000E-03 0.  1.
        -12    1    3    3    0    0  0.76074696919E+01  0.12272178721E+02  0.18583479008E+02  0.23533500753E+02  0.00000000000E+00 0.  1.
</event>
<event>
 7    1  0.4783803E-013  0.5930195E+02  0.7816164E-02  0.1266605E+00
        -11   -1    0    0    0    0  0.00000000000E+00  0.00000000000E+00  0.45593999997E+02  0.45594000000E+02  0.51100000000E-03 0. -1.
         11   -1    0    0    0    0 -0.00000000000E+00 -0.00000000000E+00 -0.45593999997E+02  0.45594000000E+02  0.51100000000E-03 0.  1.
    9900012    2    1    2    0    0  0.67462965876E+01 -0.52521713079E+01 -0.30718438974E+02  0.59301947969E+02  0.50000007189E+02 0.  0.
         12    1    1    2    0    0 -0.67462965876E+01  0.52521713079E+01  0.30718438974E+02  0.31886052031E+02  0.00000000000E+00 0. -1.
         11    1    3    3    0    0 -0.32262291532E+01  0.10733609258E+02 -0.11320687676E+02  0.15930376391E+02  0.51100000000E-03 0. -1.
        -11    1    3    3    0    0  0.19428640661E+01 -0.44544833771E+01 -0.26973588783E+02  0.27407875420E+02  0.51100000000E-03 0.  1.
         12    1    3    3    0    0  0.80296616746E+01 -0.11531297188E+02  0.75758374847E+01  0.15963696159E+02  0.00000000000E+00 0. -1.
</event>
<event>
 7    1  0.3449603E-013  0.5930192E+02  0.7816164E-02  0.1266605E+00
        -11   -1    0    0    0    0  0.00000000000E+00  0.00000000000E+00  0.45593999997E+02  0.45594000000E+02  0.51100000000E-03 0.  1.
         11   -1    0    0    0    0 -0.00000000000E+00 -0.00000000000E+00 -0.45593999997E+02  0.45594000000E+02  0.51100000000E-03 0. -1.
    9900012    2    1    2    0    0  0.27698481967E+02 -0.14121990401E+02  0.70770960877E+01  0.59301924587E+02  0.49999964545E+02 0.  0.
         12    1    1    2    0    0 -0.27698481967E+02  0.14121990401E+02 -0.70770960877E+01  0.31886075413E+02  0.00000000000E+00 0. -1.
         11    1    3    3    0    0  0.16948942959E+02 -0.14259864063E+02 -0.11550995481E+02  0.24980710306E+02  0.51100000000E-03 0. -1.
        -11    1    3    3    0    0  0.14479211866E+02 -0.90037777255E+01  0.55422090740E+01  0.17928515590E+02  0.51100000000E-03 0.  1.
        -12    1    3    3    0    0 -0.37296728571E+01  0.91416513873E+01  0.13085882495E+02  0.16392698691E+02  0.00000000000E+00 0.  1.
</event>
<event>
 7    1  0.3449603E-013  0.5930215E+02  0.7816164E-02  0.1266604E+00
        -11   -1    0    0    0    0  0.00000000000E+00  0.00000000000E+00  0.45593999997E+02  0.45594000000E+02  0.51100000000E-03 0.  1.
         11   -1    0    0    0    0 -0.00000000000E+00 -0.00000000000E+00 -0.45593999997E+02  0.45594000000E+02  0.51100000000E-03 0. -1.
    9900012    2    1    2    0    0  0.13405113432E+02  0.27445897354E+02  0.91505878617E+01  0.59302147245E+02  0.50000370618E+02 0.  0.
         12    1    1    2    0    0 -0.13405113432E+02 -0.27445897354E+02 -0.91505878617E+01  0.31885852755E+02  0.00000000000E+00 0. -1.
         11    1    3    3    0    0  0.13602627726E+02 -0.56504343070E+01  0.76279525740E+01  0.16587481715E+02  0.51100000000E-03 0. -1.
        -11    1    3    3    0    0 -0.53764874195E+01  0.43276764227E+01 -0.92679170826E+01  0.11555504641E+02  0.51100000000E-03 0.  1.
        -12    1    3    3    0    0  0.51789731259E+01  0.28768655239E+02  0.10790552370E+02  0.31159160889E+02  0.00000000000E+00 0.  1.
</event>
<event>
 7    1  0.3449603E-013  0.5930191E+02  0.7816164E-02  0.1266605E+00
        -11   -1    0    0    0    0  0.00000000000E+00  0.00000000000E+00  0.45593999997E+02  0.45594000000E+02  0.51100000000E-03 0.  1.
         11   -1    0    0    0    0 -0.00000000000E+00 -0.00000000000E+00 -0.45593999997E+02  0.45594000000E+02  0.51100000000E-03 0. -1.
    9900012    2    1    2    0    0 -0.12983390719E+02  0.24636265939E+02  0.15530897302E+02  0.59301908910E+02  0.49999935954E+02 0.  0.
         12    1    1    2    0    0  0.12983390719E+02 -0.24636265939E+02 -0.15530897302E+02  0.31886091090E+02  0.00000000000E+00 0. -1.
         11    1    3    3    0    0 -0.13926907928E+02  0.18564755686E+02  0.31066761190E+01  0.23414960066E+02  0.51100000000E-03 0.  1.
        -11    1    3    3    0    0  0.61448568060E+01  0.18640201109E+02  0.44698596667E+01  0.20129481072E+02  0.51100000000E-03 0. -1.
        -12    1    3    3    0    0 -0.52013395971E+01 -0.12568690856E+02  0.79543615162E+01  0.15757467772E+02  0.00000000000E+00 0.  1.
</event>
<event>
 7    1  0.3449603E-013  0.5930196E+02  0.7816164E-02  0.1266605E+00
        -11   -1    0    0    0    0  0.00000000000E+00  0.00000000000E+00  0.45593999997E+02  0.45594000000E+02  0.51100000000E-03 0.  1.
         11   -1    0    0    0    0 -0.00000000000E+00 -0.00000000000E+00 -0.45593999997E+02  0.45594000000E+02  0.51100000000E-03 0. -1.
    9900012    2    1    2    0    0 -0.10961894026E+02 -0.29685422922E+02  0.39156606246E+01  0.59301955203E+02  0.50000020380E+02 0.  0.
         12    1    1    2    0    0  0.10961894026E+02  0.29685422922E+02 -0.39156606246E+01  0.31886044797E+02  0.00000000000E+00 0. -1.
         11    1    3    3    0    0 -0.57776244686E+01 -0.84546988795E+01 -0.46191519586E+01  0.11233852532E+02  0.51100000000E-03 0. -1.
        -11    1    3    3    0    0 -0.76202438025E+01 -0.26071040605E+02 -0.98566393491E+01  0.28894992877E+02  0.51100000000E-03 0.  1.
         12    1    3    3    0    0  0.24359742454E+01  0.48403165629E+01  0.18391451932E+02  0.19173109793E+02  0.00000000000E+00 0. -1.
</event>
<event>
 7    1  0.3449603E-013  0.5930190E+02  0.7816164E-02  0.1266605E+00
        -11   -1    0    0    0    0  0.00000000000E+00  0.00000000000E+00  0.45593999997E+02  0.45594000000E+02  0.51100000000E-03 0. -1.
         11   -1    0    0    0    0 -0.00000000000E+00 -0.00000000000E+00 -0.45593999997E+02  0.45594000000E+02  0.51100000000E-03 0.  1.
    9900012    2    1    2    0    0  0.28384933610E+02 -0.14272958388E+02  0.27021346886E+01  0.59301900693E+02  0.49999920967E+02 0.  0.
         12    1    1    2    0    0 -0.28384933610E+02  0.14272958388E+02 -0.27021346886E+01  0.31886099307E+02  0.00000000000E+00 0. -1.
         11    1    3    3    0    0 -0.40374005945E+01 -0.25958065525E+01  0.60425913868E+01  0.77169764899E+01  0.51100000000E-03 0. -1.
        -11    1    3    3    0    0  0.34761890070E+02  0.44089113032E+01 -0.42894631555E+01  0.35301940379E+02  0.51100000000E-03 0.  1.
         12    1    3    3    0    0 -0.23395558657E+01 -0.16086063138E+02  0.94900645736E+00  0.16282983823E+02  0.00000000000E+00 0. -1.
</event>
<event>
 7    1  0.3449603E-013  0.5930194E+02  0.7816164E-02  0.1266605E+00
        -11   -1    0    0    0    0  0.00000000000E+00  0.00000000000E+00  0.45593999997E+02  0.45594000000E+02  0.51100000000E-03 0. -1.
         11   -1    0    0    0    0 -0.00000000000E+00 -0.00000000000E+00 -0.45593999997E+02  0.45594000000E+02  0.51100000000E-03 0.  1.
    9900012    2    1    2    0    0 -0.11756127247E+02  0.55793199767E+01 -0.29109883056E+02  0.59301943004E+02  0.49999998133E+02 0.  0.
         12    1    1    2    0    0  0.11756127247E+02 -0.55793199767E+01  0.29109883056E+02  0.31886056996E+02  0.00000000000E+00 0. -1.
         11    1    3    3    0    0 -0.10235186694E+02  0.12703615799E+02  0.30468015901E+01  0.16595900133E+02  0.51100000000E-03 0. -1.
        -11    1    3    3    0    0 -0.42566113839E+01 -0.25280978701E+01  0.38703791938E+01  0.62840953748E+01  0.51100000000E-03 0.  1.
        -12    1    3    3    0    0  0.27356708311E+01 -0.45961979519E+01 -0.36027063840E+02  0.36421947496E+02  0.00000000000E+00 0.  1.
</event>
<event>
 7    1  0.3449603E-013  0.5930194E+02  0.7816164E-02  0.1266605E+00
        -11   -1    0    0    0    0  0.00000000000E+00  0.00000000000E+00  0.45593999997E+02  0.45594000000E+02  0.51100000000E-03 0. -1.
         11   -1    0    0    0    0 -0.00000000000E+00 -0.00000000000E+00 -0.45593999997E+02  0.45594000000E+02  0.51100000000E-03 0.  1.
    9900012    2    1    2    0    0 -0.71113529793E+01 -0.20026883941E+02 -0.23771268469E+02  0.59301943076E+02  0.49999998263E+02 0.  0.
         12    1    1    2    0    0  0.71113529793E+01  0.20026883941E+02  0.23771268469E+02  0.31886056924E+02  0.00000000000E+00 0. -1.
         11    1    3    3    0    0  0.44154832438E+01  0.79380498451E+01  0.69816244253E+01  0.11456535580E+02  0.51100000000E-03 0.  1.
        -11    1    3    3    0    0  0.35086927507E+01  0.87080870245E+00 -0.95823616279E+00  0.37399798689E+01  0.51100000000E-03 0. -1.
        -12    1    3    3    0    0 -0.15035528974E+02 -0.28835742488E+02 -0.29794656731E+02  0.44105427627E+02  0.00000000000E+00 0.  1.
</event>
<event>
 7    1  0.3449603E-013  0.5930195E+02  0.7816164E-02  0.1266605E+00
        -11   -1    0    0    0    0  0.00000000000E+00  0.00000000000E+00  0.45593999997E+02  0.45594000000E+02  0.51100000000E-03 0. -1.
         11   -1    0    0    0    0 -0.00000000000E+00 -0.00000000000E+00 -0.45593999997E+02  0.45594000000E+02  0.51100000000E-03 0.  1.
    9900012    2    1    2    0    0  0.30071773247E+02  0.48295410630E+01 -0.94384486262E+01  0.59301947789E+02  0.50000006860E+02 0.  0.
         12    1    1    2    0    0 -0.30071773247E+02 -0.48295410630E+01  0.94384486262E+01  0.31886052211E+02  0.00000000000E+00 0. -1.
         11    1    3    3    0    0  0.23453771350E+02  0.37683525929E+01  0.14185839659E+02  0.27667994486E+02  0.51100000000E-03 0. -1.
        -11    1    3    3    0    0  0.87732166518E+01  0.80272201739E+00 -0.95555815482E+00  0.88615339928E+01  0.51100000000E-03 0.  1.
        -12    1    3    3    0    0 -0.21552147541E+01  0.25846645268E+00 -0.22668730130E+02  0.22772419311E+02  0.00000000000E+00 0.  1.
</event>
<event>
 7    1  0.3449603E-013  0.5930195E+02  0.7816164E-02  0.1266605E+00
        -11   -1    0    0    0    0  0.00000000000E+00  0.00000000000E+00  0.45593999997E+02  0.45594000000E+02  0.51100000000E-03 0. -1.
         11   -1    0    0    0    0 -0.00000000000E+00 -0.00000000000E+00 -0.45593999997E+02  0.45594000000E+02  0.51100000000E-03 0.  1.
    9900012    2    1    2    0    0  0.27399594942E+02  0.10999957792E+02 -0.12040910384E+02  0.59301946665E+02  0.50000004810E+02 0.  0.
         12    1    1    2    0    0 -0.27399594942E+02 -0.10999957792E+02  0.12040910384E+02  0.31886053335E+02  0.00000000000E+00 0. -1.
         11    1    3    3    0    0 -0.65510371995E+00  0.94705038762E+01  0.12451163917E+01  0.95744409572E+01  0.51100000000E-03 0. -1.
        -11    1    3    3    0    0  0.34132815867E+02  0.11583486523E+02 -0.84459924084E+01  0.37021089490E+02  0.51100000000E-03 0.  1.
        -12    1    3    3    0    0 -0.60781172047E+01 -0.10054032608E+02 -0.48400343670E+01  0.12706416218E+02  0.00000000000E+00 0.  1.
</event>
<event>
 7    1  0.3449603E-013  0.5930194E+02  0.7816164E-02  0.1266605E+00
        -11   -1    0    0    0    0  0.00000000000E+00  0.00000000000E+00  0.45593999997E+02  0.45594000000E+02  0.51100000000E-03 0.  1.
         11   -1    0    0    0    0 -0.00000000000E+00 -0.00000000000E+00 -0.45593999997E+02  0.45594000000E+02  0.51100000000E-03 0. -1.
    9900012    2    1    2    0    0  0.85709066157E+01  0.30646116224E+02 -0.20188430083E+01  0.59301943378E+02  0.49999998815E+02 0.  0.
         12    1    1    2    0    0 -0.85709066157E+01 -0.30646116224E+02  0.20188430083E+01  0.31886056622E+02  0.00000000000E+00 0. -1.
         11    1    3    3    0    0 -0.50010506968E+01 -0.58973625827E+01  0.75059078253E+01  0.10776272363E+02  0.51100000000E-03 0. -1.
        -11    1    3    3    0    0  0.15190995910E+02  0.59825604578E+01  0.46356378917E+00  0.16333164972E+02  0.51100000000E-03 0.  1.
        -12    1    3    3    0    0 -0.16190385974E+01  0.30560918349E+02 -0.99883146227E+01  0.32192506042E+02  0.00000000000E+00 0.  1.
</event>
<event>
 7    1  0.3449603E-013  0.5930196E+02  0.7816164E-02  0.1266605E+00
        -11   -1    0    0    0    0  0.00000000000E+00  0.00000000000E+00  0.45593999997E+02  0.45594000000E+02  0.51100000000E-03 0. -1.
         11   -1    0    0    0    0 -0.00000000000E+00 -0.00000000000E+00 -0.45593999997E+02  0.45594000000E+02  0.51100000000E-03 0.  1.
    9900012    2    1    2    0    0 -0.11728325363E+01 -0.86632867232E+00 -0.31852683690E+02  0.59301960425E+02  0.50000029905E+02 0.  0.
         12    1    1    2    0    0  0.11728325363E+01  0.86632867232E+00  0.31852683690E+02  0.31886039575E+02  0.00000000000E+00 0. -1.
         11    1    3    3    0    0  0.53104900138E+01 -0.62487145379E+01 -0.17300686846E+02  0.19145795966E+02  0.51100000000E-03 0.  1.
        -11    1    3    3    0    0 -0.10159174774E+02  0.14714713703E+02 -0.21492999090E+02  0.27958552208E+02  0.51100000000E-03 0. -1.
         12    1    3    3    0    0  0.36758522238E+01 -0.93323278377E+01  0.69410022463E+01  0.12197612251E+02  0.00000000000E+00 0. -1.
</event>
<event>
 7    1  0.3449603E-013  0.5930209E+02  0.7816164E-02  0.1266604E+00
        -11   -1    0    0    0    0  0.00000000000E+00  0.00000000000E+00  0.45593999997E+02  0.45594000000E+02  0.51100000000E-03 0.  1.
         11   -1    0    0    0    0 -0.00000000000E+00 -0.00000000000E+00 -0.45593999997E+02  0.45594000000E+02  0.51100000000E-03 0. -1.
    9900012    2    1    2    0    0 -0.22206560443E+02  0.15582962569E+01  0.22828747029E+02  0.59302089242E+02  0.50000264836E+02 0.  0.
         12    1    1    2    0    0  0.22206560443E+02 -0.15582962569E+01 -0.22828747029E+02  0.31885910758E+02  0.00000000000E+00 0. -1.
         11    1    3    3    0    0  0.37478140948E+01 -0.60860748041E+01 -0.77450874293E+01  0.10539107958E+02  0.51100000000E-03 0. -1.
        -11    1    3    3    0    0  0.43375164181E+01 -0.12771715383E+01  0.10267785211E+02  0.11219297180E+02  0.51100000000E-03 0.  1.
        -12    1    3    3    0    0 -0.30291890956E+02  0.89215425993E+01  0.20306049247E+02  0.37543684104E+02  0.00000000000E+00 0.  1.
</event>
<event>
 7    1  0.3449603E-013  0.5930201E+02  0.7816164E-02  0.1266605E+00
        -11   -1    0    0    0    0  0.00000000000E+00  0.00000000000E+00  0.45593999997E+02  0.45594000000E+02  0.51100000000E-03 0. -1.
         11   -1    0    0    0    0 -0.00000000000E+00 -0.00000000000E+00 -0.45593999997E+02  0.45594000000E+02  0.51100000000E-03 0.  1.
    9900012    2    1    2    0    0  0.30853115936E+02 -0.67180275907E+01 -0.44350721270E+01  0.59302007426E+02  0.50000115623E+02 0.  0.
         12    1    1    2    0    0 -0.30853115936E+02  0.67180275907E+01  0.44350721270E+01  0.31885992574E+02  0.00000000000E+00 0. -1.
         11    1    3    3    0    0  0.20231511403E+02 -0.10471191759E+01 -0.85429367358E+01  0.21986183856E+02  0.51100000000E-03 0. -1.
        -11    1    3    3    0    0  0.21429505320E+02 -0.19206332724E+01 -0.56882608985E+01  0.22254636432E+02  0.51100000000E-03 0.  1.
         12    1    3    3    0    0 -0.10807900786E+02 -0.37502751424E+01  0.97961255073E+01  0.15061187138E+02  0.00000000000E+00 0. -1.
</event>
<event>
 7    1  0.3449603E-013  0.5930195E+02  0.7816164E-02  0.1266605E+00
        -11   -1    0    0    0    0  0.00000000000E+00  0.00000000000E+00  0.45593999997E+02  0.45594000000E+02  0.51100000000E-03 0.  1.
         11   -1    0    0    0    0 -0.00000000000E+00 -0.00000000000E+00 -0.45593999997E+02  0.45594000000E+02  0.51100000000E-03 0. -1.
    9900012    2    1    2    0    0  0.32525183476E+01  0.11941372358E+02  0.29386139759E+02  0.59301945692E+02  0.50000003034E+02 0.  0.
         12    1    1    2    0    0 -0.32525183476E+01 -0.11941372358E+02 -0.29386139759E+02  0.31886054308E+02  0.00000000000E+00 0. -1.
         11    1    3    3    0    0 -0.94844583999E+01  0.74624176547E+01 -0.46739567900E+01  0.12941734842E+02  0.51100000000E-03 0. -1.
        -11    1    3    3    0    0  0.44781522260E+01 -0.51391748822E+01 -0.28088625004E+01  0.73725622843E+01  0.51100000000E-03 0.  1.
        -12    1    3    3    0    0  0.82588245215E+01  0.96181295857E+01  0.36868959050E+02  0.38987648565E+02  0.00000000000E+00 0.  1.
</event>
<event>
 7    1  0.3449603E-013  0.5930195E+02  0.7816164E-02  0.1266605E+00
        -11   -1    0    0    0    0  0.00000000000E+00  0.00000000000E+00  0.45593999997E+02  0.45594000000E+02  0.51100000000E-03 0.  1.
         11   -1    0    0    0    0 -0.00000000000E+00 -0.00000000000E+00 -0.45593999997E+02  0.45594000000E+02  0.51100000000E-03 0. -1.
    9900012    2    1    2    0    0 -0.14999374440E+02  0.20029849056E+02  0.19762189251E+02  0.59301949589E+02  0.50000010143E+02 0.  0.
         12    1    1    2    0    0  0.14999374440E+02 -0.20029849056E+02 -0.19762189251E+02  0.31886050411E+02  0.00000000000E+00 0. -1.
         11    1    3    3    0    0 -0.60518452126E+01 -0.31730223405E+01  0.15506529632E+02  0.16945364049E+02  0.51100000000E-03 0.  1.
        -11    1    3    3    0    0  0.69901995518E+01  0.22178506320E+02 -0.51564128494E+01  0.23818850226E+02  0.51100000000E-03 0. -1.
         12    1    3    3    0    0 -0.15937728779E+02  0.10243650767E+01  0.94120724679E+01  0.18537735315E+02  0.00000000000E+00 0. -1.
</event>
<event>
 7    1  0.3449603E-013  0.5930194E+02  0.7816164E-02  0.1266605E+00
        -11   -1    0    0    0    0  0.00000000000E+00  0.00000000000E+00  0.45593999997E+02  0.45594000000E+02  0.51100000000E-03 0.  1.
         11   -1    0    0    0    0 -0.00000000000E+00 -0.00000000000E+00 -0.45593999997E+02  0.45594000000E+02  0.51100000000E-03 0. -1.
    9900012    2    1    2    0    0  0.28815246594E+02 -0.53583212810E+01  0.12557490833E+02  0.59301943185E+02  0.49999998463E+02 0.  0.
         12    1    1    2    0    0 -0.28815246594E+02  0.53583212810E+01 -0.12557490833E+02  0.31886056815E+02  0.00000000000E+00 0. -1.
         11    1    3    3    0    0  0.73787086229E+01 -0.36420435714E+01  0.14546085166E+02  0.16712223557E+02  0.51100000000E-03 0. -1.
        -11    1    3    3    0    0  0.12124924421E+02 -0.39895553200E+01  0.17035687448E+02  0.21287202516E+02  0.51100000000E-03 0.  1.
         12    1    3    3    0    0  0.93116135502E+01  0.22732776105E+01 -0.19024281781E+02  0.21302517112E+02  0.00000000000E+00 0. -1.
</event>
<event>
 7    1  0.3449603E-013  0.5930196E+02  0.7816164E-02  0.1266605E+00
        -11   -1    0    0    0    0  0.00000000000E+00  0.00000000000E+00  0.45593999997E+02  0.45594000000E+02  0.51100000000E-03 0. -1.
         11   -1    0    0    0    0 -0.00000000000E+00 -0.00000000000E+00 -0.45593999997E+02  0.45594000000E+02  0.51100000000E-03 0.  1.
    9900012    2    1    2    0    0  0.25087659955E+02  0.18972117720E+02 -0.52332890327E+01  0.59301964704E+02  0.50000037709E+02 0.  0.
         12    1    1    2    0    0 -0.25087659955E+02 -0.18972117720E+02  0.52332890327E+01  0.31886035296E+02  0.00000000000E+00 0. -1.
         11    1    3    3    0    0  0.11293942371E+02  0.42526212428E+01  0.39539965601E+01  0.12699291743E+02  0.51100000000E-03 0. -1.
        -11    1    3    3    0    0 -0.79386865366E+01 -0.96671056732E+00  0.10606602037E+02  0.13283722380E+02  0.51100000000E-03 0.  1.
         12    1    3    3    0    0  0.21732404120E+02  0.15686207045E+02 -0.19793887630E+02  0.33318950581E+02  0.00000000000E+00 0. -1.
</event>
<event>
 7    1  0.3449603E-013  0.5930193E+02  0.7816164E-02  0.1266605E+00
        -11   -1    0    0    0    0  0.00000000000E+00  0.00000000000E+00  0.45593999997E+02  0.45594000000E+02  0.51100000000E-03 0. -1.
         11   -1    0    0    0    0 -0.00000000000E+00 -0.00000000000E+00 -0.45593999997E+02  0.45594000000E+02  0.51100000000E-03 0.  1.
    9900012    2    1    2    0    0  0.15769320484E+02 -0.25020508775E+02 -0.11917384593E+02  0.59301931201E+02  0.49999976607E+02 0.  0.
         12    1    1    2    0    0 -0.15769320484E+02  0.25020508775E+02  0.11917384593E+02  0.31886068799E+02  0.00000000000E+00 0. -1.
         11    1    3    3    0    0  0.11226430594E+02  0.11316854759E+02  0.11287266866E+01  0.15980549731E+02  0.51100000000E-03 0. -1.
        -11    1    3    3    0    0  0.47989506241E+01 -0.78301405408E+01 -0.11574132863E+02  0.14775032310E+02  0.51100000000E-03 0.  1.
        -12    1    3    3    0    0 -0.25606073402E+00 -0.28507222993E+02 -0.14719784171E+01  0.28546349160E+02  0.00000000000E+00 0.  1.
</event>
<event>
 7    1  0.3449603E-013  0.5930194E+02  0.7816164E-02  0.1266605E+00
        -11   -1    0    0    0    0  0.00000000000E+00  0.00000000000E+00  0.45593999997E+02  0.45594000000E+02  0.51100000000E-03 0. -1.
         11   -1    0    0    0    0 -0.00000000000E+00 -0.00000000000E+00 -0.45593999997E+02  0.45594000000E+02  0.51100000000E-03 0.  1.
    9900012    2    1    2    0    0 -0.56660669515E+01 -0.30860934948E+02  0.56761857428E+01  0.59301941838E+02  0.49999996006E+02 0.  0.
         12    1    1    2    0    0  0.56660669515E+01  0.30860934948E+02 -0.56761857428E+01  0.31886058162E+02  0.00000000000E+00 0. -1.
         11    1    3    3    0    0  0.10969934882E+02 -0.19497728576E+02  0.31263547948E+01  0.22589267042E+02  0.51100000000E-03 0. -1.
        -11    1    3    3    0    0  0.43407825755E+01 -0.14182783691E+02 -0.22713423911E+01  0.15005090573E+02  0.51100000000E-03 0.  1.
        -12    1    3    3    0    0 -0.20976784409E+02  0.28195773191E+01  0.48211733390E+01  0.21707584222E+02  0.00000000000E+00 0.  1.
</event>
<event>
 7    1  0.3449603E-013  0.5930188E+02  0.7816164E-02  0.1266605E+00
        -11   -1    0    0    0    0  0.00000000000E+00  0.00000000000E+00  0.45593999997E+02  0.45594000000E+02  0.51100000000E-03 0. -1.
         11   -1    0    0    0    0 -0.00000000000E+00 -0.00000000000E+00 -0.45593999997E+02  0.45594000000E+02  0.51100000000E-03 0.  1.
    9900012    2    1    2    0    0  0.14476753708E+02  0.56954194048E+01 -0.27833621451E+02  0.59301879458E+02  0.49999882240E+02 0.  0.
         12    1    1    2    0    0 -0.14476753708E+02 -0.56954194048E+01  0.27833621451E+02  0.31886120542E+02  0.00000000000E+00 0. -1.
         11    1    3    3    0    0  0.91083782318E+01 -0.52354434128E+01 -0.11434941154E+02  0.15528370849E+02  0.51100000000E-03 0. -1.
        -11    1    3    3    0    0 -0.40322273902E+01  0.21693126594E+02 -0.19156279173E+02  0.29220089513E+02  0.51100000000E-03 0.  1.
         12    1    3    3    0    0  0.94006028660E+01 -0.10762263776E+02  0.27575988759E+01  0.14553419096E+02  0.00000000000E+00 0. -1.
</event>
<event>
 7    1  0.3449603E-013  0.5930177E+02  0.7816164E-02  0.1266605E+00
        -11   -1    0    0    0    0  0.00000000000E+00  0.00000000000E+00  0.45593999997E+02  0.45594000000E+02  0.51100000000E-03 0. -1.
         11   -1    0    0    0    0 -0.00000000000E+00 -0.00000000000E+00 -0.45593999997E+02  0.45594000000E+02  0.51100000000E-03 0.  1.
    9900012    2    1    2    0    0  0.14808780095E+02  0.28237894591E+02 -0.23012412334E+00  0.59301770747E+02  0.49999683976E+02 0.  0.
         12    1    1    2    0    0 -0.14808780095E+02 -0.28237894591E+02  0.23012412334E+00  0.31886229253E+02  0.00000000000E+00 0. -1.
         11    1    3    3    0    0  0.13906267497E+02  0.71044652821E+01 -0.82801151288E+01  0.17675350335E+02  0.51100000000E-03 0. -1.
        -11    1    3    3    0    0  0.12631255707E+02 -0.18078488583E+01 -0.37323684556E+01  0.13294642258E+02  0.51100000000E-03 0.  1.
         12    1    3    3    0    0 -0.11728743109E+02  0.22941278168E+02  0.11782359461E+02  0.28331778154E+02  0.00000000000E+00 0. -1.
</event>
<event>
 7    1  0.3449603E-013  0.5930197E+02  0.7816164E-02  0.1266605E+00
        -11   -1    0    0    0    0  0.00000000000E+00  0.00000000000E+00  0.45593999997E+02  0.45594000000E+02  0.51100000000E-03 0.  1.
         11   -1    0    0    0    0 -0.00000000000E+00 -0.00000000000E+00 -0.45593999997E+02  0.45594000000E+02  0.51100000000E-03 0. -1.
    9900012    2    1    2    0    0  0.87559192190E+01  0.27795453864E+02  0.12940839780E+02  0.59301973106E+02  0.50000053032E+02 0.  0.
         12    1    1    2    0    0 -0.87559192190E+01 -0.27795453864E+02 -0.12940839780E+02  0.31886026894E+02  0.00000000000E+00 0. -1.
         11    1    3    3    0    0  0.60808472779E+01  0.48464088200E+01 -0.81535648332E+01  0.11266987256E+02  0.51100000000E-03 0. -1.
        -11    1    3    3    0    0  0.12989916702E+02 -0.45662579245E+01  0.68895440120E+01  0.15396573135E+02  0.51100000000E-03 0.  1.
         12    1    3    3    0    0 -0.10314844761E+02  0.27515302968E+02  0.14204860601E+02  0.32638412715E+02  0.00000000000E+00 0. -1.
</event>
<event>
 7    1  0.3449603E-013  0.5930192E+02  0.7816164E-02  0.1266605E+00
        -11   -1    0    0    0    0  0.00000000000E+00  0.00000000000E+00  0.45593999997E+02  0.45594000000E+02  0.51100000000E-03 0. -1.
         11   -1    0    0    0    0 -0.00000000000E+00 -0.00000000000E+00 -0.45593999997E+02  0.45594000000E+02  0.51100000000E-03 0.  1.
    9900012    2    1    2    0    0 -0.81781807504E+01 -0.14575779740E+02 -0.27154850318E+02  0.59301923239E+02  0.49999962086E+02 0.  0.
         12    1    1    2    0    0  0.81781807504E+01  0.14575779740E+02  0.27154850318E+02  0.31886076761E+02  0.00000000000E+00 0. -1.
         11    1    3    3    0    0  0.62558994450E+01 -0.93685886780E+01  0.11225091560E+02  0.15903125871E+02  0.51100000000E-03 0. -1.
        -11    1    3    3    0    0 -0.88709969238E+01  0.28698012967E+01 -0.11619232672E+02  0.14897547250E+02  0.51100000000E-03 0.  1.
        -12    1    3    3    0    0 -0.55630832715E+01 -0.80769923589E+01 -0.26760709206E+02  0.28501250118E+02  0.00000000000E+00 0.  1.
</event>
<event>
 7    1  0.3449603E-013  0.5930194E+02  0.7816164E-02  0.1266605E+00
        -11   -1    0    0    0    0  0.00000000000E+00  0.00000000000E+00  0.45593999997E+02  0.45594000000E+02  0.51100000000E-03 0. -1.
         11   -1    0    0    0    0 -0.00000000000E+00 -0.00000000000E+00 -0.45593999997E+02  0.45594000000E+02  0.51100000000E-03 0.  1.
    9900012    2    1    2    0    0  0.30329408603E+02 -0.54593445638E+01  0.81879863850E+01  0.59301943638E+02  0.49999999289E+02 0.  0.
         12    1    1    2    0    0 -0.30329408603E+02  0.54593445638E+01 -0.81879863850E+01  0.31886056362E+02  0.00000000000E+00 0. -1.
         11    1    3    3    0    0  0.55744006583E+01  0.60422038348E+01  0.13419403762E+02  0.15737298608E+02  0.51100000000E-03 0. -1.
        -11    1    3    3    0    0  0.30364127163E+02 -0.16773067632E+02 -0.75987412001E+01  0.35511362748E+02  0.51100000000E-03 0.  1.
         12    1    3    3    0    0 -0.56091192178E+01  0.52715192334E+01  0.23673238234E+01  0.80532822820E+01  0.00000000000E+00 0. -1.
</event>
<event>
 7    1  0.3449603E-013  0.5930192E+02  0.7816164E-02  0.1266605E+00
        -11   -1    0    0    0    0  0.00000000000E+00  0.00000000000E+00  0.45593999997E+02  0.45594000000E+02  0.51100000000E-03 0.  1.
         11   -1    0    0    0    0 -0.00000000000E+00 -0.00000000000E+00 -0.45593999997E+02  0.45594000000E+02  0.51100000000E-03 0. -1.
    9900012    2    1    2    0    0 -0.11325142417E+02  0.27280857338E+02  0.12009069672E+02  0.59301924948E+02  0.49999965202E+02 0.  0.
         12    1    1    2    0    0  0.11325142417E+02 -0.27280857338E+02 -0.12009069672E+02  0.31886075052E+02  0.00000000000E+00 0. -1.
         11    1    3    3    0    0  0.38070176210E+01 -0.90312086085E+01 -0.46280374833E+01  0.10838581240E+02  0.51100000000E-03 0. -1.
        -11    1    3    3    0    0  0.48053856676E+01  0.31504805767E+01  0.60578540699E+01  0.83495422313E+01  0.51100000000E-03 0.  1.
        -12    1    3    3    0    0 -0.19937545706E+02  0.33161585370E+02  0.10579253085E+02  0.40113801476E+02  0.00000000000E+00 0.  1.
</event>
<event>
 7    1  0.3449603E-013  0.5930197E+02  0.7816164E-02  0.1266605E+00
        -11   -1    0    0    0    0  0.00000000000E+00  0.00000000000E+00  0.45593999997E+02  0.45594000000E+02  0.51100000000E-03 0. -1.
         11   -1    0    0    0    0 -0.00000000000E+00 -0.00000000000E+00 -0.45593999997E+02  0.45594000000E+02  0.51100000000E-03 0.  1.
    9900012    2    1    2    0    0  0.31488555895E+02  0.20751417919E+01 -0.45698830605E+01  0.59301965486E+02  0.50000039135E+02 0.  0.
         12    1    1    2    0    0 -0.31488555895E+02 -0.20751417919E+01  0.45698830605E+01  0.31886034514E+02  0.00000000000E+00 0. -1.
         11    1    3    3    0    0  0.24731518991E+02  0.12481255101E+02  0.15811893148E+02  0.31897425064E+02  0.51100000000E-03 0. -1.
        -11    1    3    3    0    0  0.29944320940E+01  0.29458992829E+01 -0.67858794134E+01  0.79807960646E+01  0.51100000000E-03 0.  1.
        -12    1    3    3    0    0  0.37626048097E+01 -0.13352012592E+02 -0.13595896795E+02  0.19423744358E+02  0.00000000000E+00 0.  1.
</event>
<event>
 7    1  0.3449603E-013  0.5930193E+02  0.7816164E-02  0.1266605E+00
        -11   -1    0    0    0    0  0.00000000000E+00  0.00000000000E+00  0.45593999997E+02  0.45594000000E+02  0.51100000000E-03 0.  1.
         11   -1    0    0    0    0 -0.00000000000E+00 -0.00000000000E+00 -0.45593999997E+02  0.45594000000E+02  0.51100000000E-03 0. -1.
    9900012    2    1    2    0    0  0.25633495144E+02  0.17659035689E+02  0.69140205906E+01  0.59301932580E+02  0.49999979122E+02 0.  0.
         12    1    1    2    0    0 -0.25633495144E+02 -0.17659035689E+02 -0.69140205906E+01  0.31886067420E+02  0.00000000000E+00 0. -1.
         11    1    3    3    0    0 -0.16446178601E+01 -0.15996826841E+01  0.35671719751E+01  0.42412814994E+01  0.51100000000E-03 0. -1.
        -11    1    3    3    0    0 -0.14506551488E+01 -0.76254653449E+01  0.12453573186E+02  0.14674590538E+02  0.51100000000E-03 0.  1.
        -12    1    3    3    0    0  0.28728768153E+02  0.26884183718E+02 -0.91067245706E+01  0.40386060543E+02  0.00000000000E+00 0.  1.
</event>
<event>
 7    1  0.3449603E-013  0.5930195E+02  0.7816164E-02  0.1266605E+00
        -11   -1    0    0    0    0  0.00000000000E+00  0.00000000000E+00  0.45593999997E+02  0.45594000000E+02  0.51100000000E-03 0. -1.
         11   -1    0    0    0    0 -0.00000000000E+00 -0.00000000000E+00 -0.45593999997E+02  0.45594000000E+02  0.51100000000E-03 0.  1.
    9900012    2    1    2    0    0  0.16743230582E+02 -0.21438493164E+02  0.16636567932E+02  0.59301950511E+02  0.50000011824E+02 0.  0.
         12    1    1    2    0    0 -0.16743230582E+02  0.21438493164E+02 -0.16636567932E+02  0.31886049489E+02  0.00000000000E+00 0. -1.
         11    1    3    3    0    0 -0.94486210155E+01 -0.85055924816E+01  0.28285252072E+01  0.13023904855E+02  0.51100000000E-03 0. -1.
        -11    1    3    3    0    0  0.25617668712E+02 -0.49974706790E+01 -0.43433861718E+01  0.26459491059E+02  0.51100000000E-03 0.  1.
         12    1    3    3    0    0  0.57418288596E+00 -0.79354300034E+01  0.18151428896E+02  0.19818554597E+02  0.00000000000E+00 0. -1.
</event>
<event>
 7    1  0.3449603E-013  0.5930193E+02  0.7816164E-02  0.1266605E+00
        -11   -1    0    0    0    0  0.00000000000E+00  0.00000000000E+00  0.45593999997E+02  0.45594000000E+02  0.51100000000E-03 0.  1.
         11   -1    0    0    0    0 -0.00000000000E+00 -0.00000000000E+00 -0.45593999997E+02  0.45594000000E+02  0.51100000000E-03 0. -1.
    9900012    2    1    2    0    0  0.12247854365E+02  0.84439440376E+01  0.28203037066E+02  0.59301930515E+02  0.49999975357E+02 0.  0.
         12    1    1    2    0    0 -0.12247854365E+02 -0.84439440376E+01 -0.28203037066E+02  0.31886069485E+02  0.00000000000E+00 0. -1.
         11    1    3    3    0    0  0.12202337378E+02  0.22016579303E+01  0.23306532914E+02  0.26399598706E+02  0.51100000000E-03 0.  1.
        -11    1    3    3    0    0 -0.15290430744E+02  0.17124591277E+01  0.67553387740E+01  0.16803701700E+02  0.51100000000E-03 0. -1.
         12    1    3    3    0    0  0.15335947730E+02  0.45298269796E+01 -0.18588346221E+01  0.16098630110E+02  0.00000000000E+00 0. -1.
</event>
<event>
 7    1  0.3449603E-013  0.5930198E+02  0.7816164E-02  0.1266605E+00
        -11   -1    0    0    0    0  0.00000000000E+00  0.00000000000E+00  0.45593999997E+02  0.45594000000E+02  0.51100000000E-03 0.  1.
         11   -1    0    0    0    0 -0.00000000000E+00 -0.00000000000E+00 -0.45593999997E+02  0.45594000000E+02  0.51100000000E-03 0. -1.
    9900012    2    1    2    0    0 -0.15255171468E+02 -0.19316082341E+02  0.20270344293E+02  0.59301981884E+02  0.50000069041E+02 0.  0.
         12    1    1    2    0    0  0.15255171468E+02  0.19316082341E+02 -0.20270344293E+02  0.31886018116E+02  0.00000000000E+00 0. -1.
         11    1    3    3    0    0 -0.91634640077E+01  0.60491641273E+01  0.26012251269E+01  0.11283963474E+02  0.51100000000E-03 0. -1.
        -11    1    3    3    0    0  0.80980781393E+01  0.80073214845E+00  0.16302657040E+02  0.18220775734E+02  0.51100000000E-03 0.  1.
         12    1    3    3    0    0 -0.14189785599E+02 -0.26165978617E+02  0.13664621262E+01  0.29797242676E+02  0.00000000000E+00 0. -1.
</event>
<event>
 7    1  0.3449603E-013  0.5930192E+02  0.7816164E-02  0.1266605E+00
        -11   -1    0    0    0    0  0.00000000000E+00  0.00000000000E+00  0.45593999997E+02  0.45594000000E+02  0.51100000000E-03 0. -1.
         11   -1    0    0    0    0 -0.00000000000E+00 -0.00000000000E+00 -0.45593999997E+02  0.45594000000E+02  0.51100000000E-03 0.  1.
    9900012    2    1    2    0    0 -0.15683779479E+02 -0.15554640736E+02 -0.22995533579E+02  0.59301916018E+02  0.49999948916E+02 0.  0.
         12    1    1    2    0    0  0.15683779479E+02  0.15554640736E+02  0.22995533579E+02  0.31886083982E+02  0.00000000000E+00 0. -1.
         11    1    3    3    0    0  0.24822106414E+01 -0.11199345402E+02  0.20844786352E+00  0.11473018690E+02  0.51100000000E-03 0. -1.
        -11    1    3    3    0    0  0.42544632361E+01 -0.12508582299E+02 -0.19693680998E+02  0.23715104049E+02  0.51100000000E-03 0.  1.
        -12    1    3    3    0    0 -0.22420453356E+02  0.81532869649E+01 -0.35103004442E+01  0.24113793278E+02  0.00000000000E+00 0.  1.
</event>
<event>
 7    1  0.3449603E-013  0.5930196E+02  0.7816164E-02  0.1266605E+00
        -11   -1    0    0    0    0  0.00000000000E+00  0.00000000000E+00  0.45593999997E+02  0.45594000000E+02  0.51100000000E-03 0.  1.
         11   -1    0    0    0    0 -0.00000000000E+00 -0.00000000000E+00 -0.45593999997E+02  0.45594000000E+02  0.51100000000E-03 0. -1.
    9900012    2    1    2    0    0 -0.12843867254E+02 -0.10266813145E+02  0.27319352225E+02  0.59301962552E+02  0.50000033783E+02 0.  0.
         12    1    1    2    0    0  0.12843867254E+02  0.10266813145E+02 -0.27319352225E+02  0.31886037448E+02  0.00000000000E+00 0. -1.
         11    1    3    3    0    0  0.23818289218E+01 -0.14071805513E+02  0.35324269131E+01  0.14702614039E+02  0.51100000000E-03 0. -1.
        -11    1    3    3    0    0  0.20995651778E+01 -0.68044809543E+01  0.23207493299E+02  0.24275437802E+02  0.51100000000E-03 0.  1.
        -12    1    3    3    0    0 -0.17325261353E+02  0.10609473323E+02  0.57943201262E+00  0.20323910711E+02  0.00000000000E+00 0.  1.
</event>
<event>
 7    1  0.3449603E-013  0.5930193E+02  0.7816164E-02  0.1266605E+00
        -11   -1    0    0    0    0  0.00000000000E+00  0.00000000000E+00  0.45593999997E+02  0.45594000000E+02  0.51100000000E-03 0.  1.
         11   -1    0    0    0    0 -0.00000000000E+00 -0.00000000000E+00 -0.45593999997E+02  0.45594000000E+02  0.51100000000E-03 0. -1.
    9900012    2    1    2    0    0 -0.19292183048E+02  0.21161569774E+02  0.14025719513E+02  0.59301934549E+02  0.49999982714E+02 0.  0.
         12    1    1    2    0    0  0.19292183048E+02 -0.21161569774E+02 -0.14025719513E+02  0.31886065451E+02  0.00000000000E+00 0. -1.
         11    1    3    3    0    0 -0.14867573597E+01  0.20398630376E+02  0.14153461668E+02  0.24872375160E+02  0.51100000000E-03 0. -1.
        -11    1    3    3    0    0 -0.87211498814E+00 -0.51783419072E+01  0.11776857944E+02  0.12894579976E+02  0.51100000000E-03 0.  1.
         12    1    3    3    0    0 -0.16933310700E+02  0.59412813058E+01 -0.11904600099E+02  0.21534979413E+02  0.00000000000E+00 0. -1.
</event>
<event>
 7    1  0.3449603E-013  0.5930198E+02  0.7816164E-02  0.1266605E+00
        -11   -1    0    0    0    0  0.00000000000E+00  0.00000000000E+00  0.45593999997E+02  0.45594000000E+02  0.51100000000E-03 0.  1.
         11   -1    0    0    0    0 -0.00000000000E+00 -0.00000000000E+00 -0.45593999997E+02  0.45594000000E+02  0.51100000000E-03 0. -1.
    9900012    2    1    2    0    0  0.49278774639E+01  0.29904317405E+02  0.99078957995E+01  0.59301975241E+02  0.50000056926E+02 0.  0.
         12    1    1    2    0    0 -0.49278774639E+01 -0.29904317405E+02 -0.99078957995E+01  0.31886024759E+02  0.00000000000E+00 0. -1.
         11    1    3    3    0    0  0.14219818691E+02  0.24605069079E+02 -0.12012452190E+02  0.30853065907E+02  0.51100000000E-03 0. -1.
        -11    1    3    3    0    0 -0.10184358566E+01 -0.47500888315E+01  0.39601736200E+01  0.62676575260E+01  0.51100000000E-03 0.  1.
        -12    1    3    3    0    0 -0.82735053701E+01  0.10049337157E+02  0.17960174369E+02  0.22181251808E+02  0.00000000000E+00 0.  1.
</event>
<event>
 7    1  0.3449603E-013  0.5930193E+02  0.7816164E-02  0.1266605E+00
        -11   -1    0    0    0    0  0.00000000000E+00  0.00000000000E+00  0.45593999997E+02  0.45594000000E+02  0.51100000000E-03 0.  1.
         11   -1    0    0    0    0 -0.00000000000E+00 -0.00000000000E+00 -0.45593999997E+02  0.45594000000E+02  0.51100000000E-03 0. -1.
    9900012    2    1    2    0    0 -0.19749242224E+02 -0.21469648554E+02  0.12874118295E+02  0.59301932520E+02  0.49999979013E+02 0.  0.
         12    1    1    2    0    0  0.19749242224E+02  0.21469648554E+02 -0.12874118295E+02  0.31886067480E+02  0.00000000000E+00 0. -1.
         11    1    3    3    0    0 -0.28566903510E+01  0.50215332731E+01 -0.26170208976E+01  0.63423398532E+01  0.51100000000E-03 0. -1.
        -11    1    3    3    0    0 -0.15816190971E+02  0.51250689453E+01  0.13224446963E+02  0.21243922102E+02  0.51100000000E-03 0.  1.
        -12    1    3    3    0    0 -0.10763609019E+01 -0.31616250773E+02  0.22666922290E+01  0.31715670565E+02  0.00000000000E+00 0.  1.
</event>
<event>
 7    1  0.3449603E-013  0.5930195E+02  0.7816164E-02  0.1266605E+00
        -11   -1    0    0    0    0  0.00000000000E+00  0.00000000000E+00  0.45593999997E+02  0.45594000000E+02  0.51100000000E-03 0. -1.
         11   -1    0    0    0    0 -0.00000000000E+00 -0.00000000000E+00 -0.45593999997E+02  0.45594000000E+02  0.51100000000E-03 0.  1.
    9900012    2    1    2    0    0  0.61625774601E+01  0.27925317429E+02  0.14103874962E+02  0.59301952842E+02  0.50000016074E+02 0.  0.
         12    1    1    2    0    0 -0.61625774601E+01 -0.27925317429E+02 -0.14103874962E+02  0.31886047158E+02  0.00000000000E+00 0. -1.
         11    1    3    3    0    0 -0.15668055450E+02  0.12703032645E+02  0.17456811287E+02  0.26675742924E+02  0.51100000000E-03 0. -1.
        -11    1    3    3    0    0  0.48422262328E+01  0.45331490903E+01  0.73326443901E+01  0.98875815839E+01  0.51100000000E-03 0.  1.
        -12    1    3    3    0    0  0.16988406677E+02  0.10689135693E+02 -0.10685580715E+02  0.22738628334E+02  0.00000000000E+00 0.  1.
</event>
<event>
 7    1  0.3449603E-013  0.5930194E+02  0.7816164E-02  0.1266605E+00
        -11   -1    0    0    0    0  0.00000000000E+00  0.00000000000E+00  0.45593999997E+02  0.45594000000E+02  0.51100000000E-03 0.  1.
         11   -1    0    0    0    0 -0.00000000000E+00 -0.00000000000E+00 -0.45593999997E+02  0.45594000000E+02  0.51100000000E-03 0. -1.
    9900012    2    1    2    0    0  0.10138489379E+02  0.18925176275E+02  0.23574758910E+02  0.59301944715E+02  0.50000001254E+02 0.  0.
         12    1    1    2    0    0 -0.10138489379E+02 -0.18925176275E+02 -0.23574758910E+02  0.31886055285E+02  0.00000000000E+00 0. -1.
         11    1    3    3    0    0 -0.69346294763E+01  0.40788709185E+01  0.32993869479E+01  0.86955292212E+01  0.51100000000E-03 0.  1.
        -11    1    3    3    0    0  0.54881230953E+01 -0.11644973208E+02  0.17265465331E+02  0.21536508293E+02  0.51100000000E-03 0. -1.
         12    1    3    3    0    0  0.11584995760E+02  0.26491278565E+02  0.30099066317E+01  0.29069907201E+02  0.00000000000E+00 0. -1.
</event>
<event>
 7    1  0.3449603E-013  0.5930196E+02  0.7816164E-02  0.1266605E+00
        -11   -1    0    0    0    0  0.00000000000E+00  0.00000000000E+00  0.45593999997E+02  0.45594000000E+02  0.51100000000E-03 0.  1.
         11   -1    0    0    0    0 -0.00000000000E+00 -0.00000000000E+00 -0.45593999997E+02  0.45594000000E+02  0.51100000000E-03 0. -1.
    9900012    2    1    2    0    0  0.16039180472E+02 -0.53316103708E+01  0.27037722203E+02  0.59301956010E+02  0.50000021853E+02 0.  0.
         12    1    1    2    0    0 -0.16039180472E+02  0.53316103708E+01 -0.27037722203E+02  0.31886043990E+02  0.00000000000E+00 0. -1.
         11    1    3    3    0    0 -0.79493646082E+01 -0.18712511016E+01  0.29714416982E+01  0.86904225666E+01  0.51100000000E-03 0. -1.
        -11    1    3    3    0    0 -0.58502100146E+01 -0.19432752369E+01  0.19420239081E+02  0.20375155511E+02  0.51100000000E-03 0.  1.
        -12    1    3    3    0    0  0.29838755095E+02 -0.15170840323E+01  0.46460414239E+01  0.30236377933E+02  0.00000000000E+00 0.  1.
</event>
<event>
 7    1  0.3449603E-013  0.5930189E+02  0.7816164E-02  0.1266605E+00
        -11   -1    0    0    0    0  0.00000000000E+00  0.00000000000E+00  0.45593999997E+02  0.45594000000E+02  0.51100000000E-03 0.  1.
         11   -1    0    0    0    0 -0.00000000000E+00 -0.00000000000E+00 -0.45593999997E+02  0.45594000000E+02  0.51100000000E-03 0. -1.
    9900012    2    1    2    0    0  0.23631537901E+02  0.21384297863E+02  0.99318724997E+00  0.59301887042E+02  0.49999896071E+02 0.  0.
         12    1    1    2    0    0 -0.23631537901E+02 -0.21384297863E+02 -0.99318724997E+00  0.31886112958E+02  0.00000000000E+00 0. -1.
         11    1    3    3    0    0  0.28725919030E+01  0.12464208277E+02  0.32045481324E+01  0.13186258044E+02  0.51100000000E-03 0.  1.
        -11    1    3    3    0    0  0.13312549893E+02  0.16856661868E+02 -0.17252445023E+02  0.27550279373E+02  0.51100000000E-03 0. -1.
        -12    1    3    3    0    0  0.74463961058E+01 -0.79365722825E+01  0.15041084140E+02  0.18565349625E+02  0.00000000000E+00 0.  1.
</event>
<event>
 7    1  0.3449603E-013  0.5930176E+02  0.7816164E-02  0.1266605E+00
        -11   -1    0    0    0    0  0.00000000000E+00  0.00000000000E+00  0.45593999997E+02  0.45594000000E+02  0.51100000000E-03 0. -1.
         11   -1    0    0    0    0 -0.00000000000E+00 -0.00000000000E+00 -0.45593999997E+02  0.45594000000E+02  0.51100000000E-03 0.  1.
    9900012    2    1    2    0    0  0.20415202646E+02  0.10601520733E+02 -0.22080757669E+02  0.59301755314E+02  0.49999655830E+02 0.  0.
         12    1    1    2    0    0 -0.20415202646E+02 -0.10601520733E+02  0.22080757669E+02  0.31886244686E+02  0.00000000000E+00 0. -1.
         11    1    3    3    0    0  0.81010230244E+01  0.28481456059E+01 -0.10726773490E+01  0.86538514195E+01  0.51100000000E-03 0. -1.
        -11    1    3    3    0    0  0.12673931919E+02  0.21112524057E+02  0.12827972028E+01  0.24657915388E+02  0.51100000000E-03 0.  1.
        -12    1    3    3    0    0 -0.35975229739E+00 -0.13359148930E+02 -0.22290877523E+02  0.25989988507E+02  0.00000000000E+00 0.  1.
</event>
<event>
 7    1  0.3449603E-013  0.5930193E+02  0.7816164E-02  0.1266605E+00
        -11   -1    0    0    0    0  0.00000000000E+00  0.00000000000E+00  0.45593999997E+02  0.45594000000E+02  0.51100000000E-03 0.  1.
         11   -1    0    0    0    0 -0.00000000000E+00 -0.00000000000E+00 -0.45593999997E+02  0.45594000000E+02  0.51100000000E-03 0. -1.
    9900012    2    1    2    0    0  0.28298301384E+02  0.13340930847E+02  0.61601437057E+01  0.59301926746E+02  0.49999968483E+02 0.  0.
         12    1    1    2    0    0 -0.28298301384E+02 -0.13340930847E+02 -0.61601437057E+01  0.31886073254E+02  0.00000000000E+00 0. -1.
         11    1    3    3    0    0 -0.54969251044E+01  0.67839476638E+01 -0.10811496281E+02  0.13896999086E+02  0.51100000000E-03 0. -1.
        -11    1    3    3    0    0  0.24008436500E+02  0.14777789839E+02  0.66233752015E+01  0.28959578640E+02  0.51100000000E-03 0.  1.
        -12    1    3    3    0    0  0.97867899880E+01 -0.82208066554E+01  0.10348264785E+02  0.16445349020E+02  0.00000000000E+00 0.  1.
</event>
<event>
 7    1  0.3449603E-013  0.5930195E+02  0.7816164E-02  0.1266605E+00
        -11   -1    0    0    0    0  0.00000000000E+00  0.00000000000E+00  0.45593999997E+02  0.45594000000E+02  0.51100000000E-03 0.  1.
         11   -1    0    0    0    0 -0.00000000000E+00 -0.00000000000E+00 -0.45593999997E+02  0.45594000000E+02  0.51100000000E-03 0. -1.
    9900012    2    1    2    0    0  0.10473552851E+02 -0.29977127576E+02 -0.28976606025E+01  0.59301954087E+02  0.50000018345E+02 0.  0.
         12    1    1    2    0    0 -0.10473552851E+02  0.29977127576E+02  0.28976606025E+01  0.31886045913E+02  0.00000000000E+00 0. -1.
         11    1    3    3    0    0  0.18491279814E+01 -0.28918077684E+02 -0.11022437017E+02  0.31002719385E+02  0.51100000000E-03 0. -1.
        -11    1    3    3    0    0  0.95214929795E+00 -0.61164820096E+01 -0.77730486804E+01  0.99367110509E+01  0.51100000000E-03 0.  1.
        -12    1    3    3    0    0  0.76722755714E+01  0.50574321179E+01  0.15897825095E+02  0.18362523651E+02  0.00000000000E+00 0.  1.
</event>
<event>
 7    1  0.3449603E-013  0.5930195E+02  0.7816164E-02  0.1266605E+00
        -11   -1    0    0    0    0  0.00000000000E+00  0.00000000000E+00  0.45593999997E+02  0.45594000000E+02  0.51100000000E-03 0. -1.
         11   -1    0    0    0    0 -0.00000000000E+00 -0.00000000000E+00 -0.45593999997E+02  0.45594000000E+02  0.51100000000E-03 0.  1.
    9900012    2    1    2    0    0 -0.21361412893E+02  0.10295876968E+02 -0.21316780469E+02  0.59301950184E+02  0.50000011227E+02 0.  0.
         12    1    1    2    0    0  0.21361412893E+02 -0.10295876968E+02  0.21316780469E+02  0.31886049816E+02  0.00000000000E+00 0. -1.
         11    1    3    3    0    0  0.55273477146E+01 -0.44182050717E+01 -0.10420500288E+02  0.12595988858E+02  0.51100000000E-03 0. -1.
        -11    1    3    3    0    0  0.36876417409E+01  0.13836299676E+02 -0.67730061911E+01  0.15840312606E+02  0.51100000000E-03 0.  1.
         12    1    3    3    0    0 -0.30576402348E+02  0.87778236386E+00 -0.41232739899E+01  0.30865648719E+02  0.00000000000E+00 0. -1.
</event>
<event>
 7    1  0.3449603E-013  0.5930196E+02  0.7816164E-02  0.1266605E+00
        -11   -1    0    0    0    0  0.00000000000E+00  0.00000000000E+00  0.45593999997E+02  0.45594000000E+02  0.51100000000E-03 0. -1.
         11   -1    0    0    0    0 -0.00000000000E+00 -0.00000000000E+00 -0.45593999997E+02  0.45594000000E+02  0.51100000000E-03 0.  1.
    9900012    2    1    2    0    0  0.14488826742E+02 -0.12414067385E+02 -0.25547687272E+02  0.59301960823E+02  0.50000030631E+02 0.  0.
         12    1    1    2    0    0 -0.14488826742E+02  0.12414067385E+02  0.25547687272E+02  0.31886039177E+02  0.00000000000E+00 0. -1.
         11    1    3    3    0    0  0.15654541984E+02  0.22395852849E+00 -0.69667499843E+01  0.17136232018E+02  0.51100000000E-03 0.  1.
        -11    1    3    3    0    0  0.72361261855E+01 -0.65227735447E+01  0.86445459509E+01  0.13024449004E+02  0.51100000000E-03 0. -1.
        -12    1    3    3    0    0 -0.84018414276E+01 -0.61152523686E+01 -0.27225483239E+02  0.29141279802E+02  0.00000000000E+00 0.  1.
</event>
<event>
 7    1  0.3449603E-013  0.5930186E+02  0.7816164E-02  0.1266605E+00
        -11   -1    0    0    0    0  0.00000000000E+00  0.00000000000E+00  0.45593999997E+02  0.45594000000E+02  0.51100000000E-03 0. -1.
         11   -1    0    0    0    0 -0.00000000000E+00 -0.00000000000E+00 -0.45593999997E+02  0.45594000000E+02  0.51100000000E-03 0.  1.
    9900012    2    1    2    0    0 -0.29376529294E+02  0.17971070667E+01  0.12268495108E+02  0.59301858192E+02  0.49999843457E+02 0.  0.
         12    1    1    2    0    0  0.29376529294E+02 -0.17971070667E+01 -0.12268495108E+02  0.31886141808E+02  0.00000000000E+00 0. -1.
         11    1    3    3    0    0  0.58032654241E+01  0.50655603974E+01  0.99771498014E+01  0.12604812975E+02  0.51100000000E-03 0. -1.
        -11    1    3    3    0    0 -0.35963673937E+00  0.89240045617E+01  0.39521284780E+01  0.97666020586E+01  0.51100000000E-03 0.  1.
        -12    1    3    3    0    0 -0.34820157979E+02 -0.12192457892E+02 -0.16607831718E+01  0.36930443158E+02  0.00000000000E+00 0.  1.
</event>
<event>
 7    1  0.3449603E-013  0.5930194E+02  0.7816164E-02  0.1266605E+00
        -11   -1    0    0    0    0  0.00000000000E+00  0.00000000000E+00  0.45593999997E+02  0.45594000000E+02  0.51100000000E-03 0. -1.
         11   -1    0    0    0    0 -0.00000000000E+00 -0.00000000000E+00 -0.45593999997E+02  0.45594000000E+02  0.51100000000E-03 0.  1.
    9900012    2    1    2    0    0 -0.86835977882E+01 -0.23141227038E+02 -0.20144469289E+02  0.59301938746E+02  0.49999990368E+02 0.  0.
         12    1    1    2    0    0  0.86835977882E+01  0.23141227038E+02  0.20144469289E+02  0.31886061254E+02  0.00000000000E+00 0. -1.
         11    1    3    3    0    0 -0.57342450083E+00 -0.16364571295E+02 -0.15002885197E+02  0.22208434745E+02  0.51100000000E-03 0. -1.
        -11    1    3    3    0    0 -0.14362571095E+02 -0.18384951146E+02 -0.52261192078E+01  0.23908203599E+02  0.51100000000E-03 0.  1.
         12    1    3    3    0    0  0.62523978080E+01  0.11608295403E+02  0.84535116026E-01  0.13185300402E+02  0.00000000000E+00 0. -1.
</event>
<event>
 7    1  0.3449603E-013  0.5930200E+02  0.7816164E-02  0.1266605E+00
        -11   -1    0    0    0    0  0.00000000000E+00  0.00000000000E+00  0.45593999997E+02  0.45594000000E+02  0.51100000000E-03 0.  1.
         11   -1    0    0    0    0 -0.00000000000E+00 -0.00000000000E+00 -0.45593999997E+02  0.45594000000E+02  0.51100000000E-03 0. -1.
    9900012    2    1    2    0    0 -0.31804019198E+02  0.18832857090E+01  0.12940590661E+01  0.59302000078E+02  0.50000102221E+02 0.  0.
         12    1    1    2    0    0  0.31804019198E+02 -0.18832857090E+01 -0.12940590661E+01  0.31885999922E+02  0.00000000000E+00 0. -1.
         11    1    3    3    0    0  0.11093208866E+02 -0.19933253010E+01  0.65979061290E+01  0.13060053379E+02  0.51100000000E-03 0. -1.
        -11    1    3    3    0    0 -0.24303389697E+02  0.41963510705E+01  0.47279628974E+01  0.25112103586E+02  0.51100000000E-03 0.  1.
        -12    1    3    3    0    0 -0.18593838367E+02 -0.31974006046E+00 -0.10031809960E+02  0.21129843113E+02  0.00000000000E+00 0.  1.
</event>
<event>
 7    1  0.3449603E-013  0.5930231E+02  0.7816164E-02  0.1266603E+00
        -11   -1    0    0    0    0  0.00000000000E+00  0.00000000000E+00  0.45593999997E+02  0.45594000000E+02  0.51100000000E-03 0. -1.
         11   -1    0    0    0    0 -0.00000000000E+00 -0.00000000000E+00 -0.45593999997E+02  0.45594000000E+02  0.51100000000E-03 0.  1.
    9900012    2    1    2    0    0 -0.24253679505E+02  0.15236987865E+02  0.14010367113E+02  0.59302311120E+02  0.50000669483E+02 0.  0.
         12    1    1    2    0    0  0.24253679505E+02 -0.15236987865E+02 -0.14010367113E+02  0.31885688880E+02  0.00000000000E+00 0. -1.
         11    1    3    3    0    0  0.22879811852E+01 -0.39666655573E+00  0.14272178795E+02  0.14459850970E+02  0.51100000000E-03 0. -1.
        -11    1    3    3    0    0  0.61771554717E+00  0.91608981338E+01 -0.11525761372E+02  0.14735901825E+02  0.51100000000E-03 0.  1.
         12    1    3    3    0    0 -0.27159376237E+02  0.64727562872E+01  0.11263949691E+02  0.30106558325E+02  0.00000000000E+00 0. -1.
</event>
<event>
 7    1  0.3449603E-013  0.5930195E+02  0.7816164E-02  0.1266605E+00
        -11   -1    0    0    0    0  0.00000000000E+00  0.00000000000E+00  0.45593999997E+02  0.45594000000E+02  0.51100000000E-03 0.  1.
         11   -1    0    0    0    0 -0.00000000000E+00 -0.00000000000E+00 -0.45593999997E+02  0.45594000000E+02  0.51100000000E-03 0. -1.
    9900012    2    1    2    0    0 -0.29676966018E+02 -0.10367529367E+02  0.53396786352E+01  0.59301950619E+02  0.50000012021E+02 0.  0.
         12    1    1    2    0    0  0.29676966018E+02  0.10367529367E+02 -0.53396786352E+01  0.31886049381E+02  0.00000000000E+00 0. -1.
         11    1    3    3    0    0  0.48411869584E+01 -0.61687501588E+01 -0.97473763901E+01  0.12510072599E+02  0.51100000000E-03 0. -1.
        -11    1    3    3    0    0  0.27228706566E+01  0.39426392444E+01  0.58618031882E+01  0.75709421939E+01  0.51100000000E-03 0.  1.
        -12    1    3    3    0    0 -0.37241023633E+02 -0.81414184522E+01  0.92252518371E+01  0.39220935826E+02  0.00000000000E+00 0.  1.
</event>
<event>
 7    1  0.3449603E-013  0.5930193E+02  0.7816164E-02  0.1266605E+00
        -11   -1    0    0    0    0  0.00000000000E+00  0.00000000000E+00  0.45593999997E+02  0.45594000000E+02  0.51100000000E-03 0.  1.
         11   -1    0    0    0    0 -0.00000000000E+00 -0.00000000000E+00 -0.45593999997E+02  0.45594000000E+02  0.51100000000E-03 0. -1.
    9900012    2    1    2    0    0  0.15269851243E+02 -0.11806706016E+02  0.25380204695E+02  0.59301930090E+02  0.49999974581E+02 0.  0.
         12    1    1    2    0    0 -0.15269851243E+02  0.11806706016E+02 -0.25380204695E+02  0.31886069910E+02  0.00000000000E+00 0. -1.
         11    1    3    3    0    0  0.73056781715E+01 -0.11087803294E+02 -0.89132806820E+01  0.15992463481E+02  0.51100000000E-03 0. -1.
        -11    1    3    3    0    0 -0.71195142167E+01  0.22679254528E+01  0.23087544099E+01  0.78205700386E+01  0.51100000000E-03 0.  1.
        -12    1    3    3    0    0  0.15083687289E+02 -0.29868281752E+01  0.31984730967E+02  0.35488896570E+02  0.00000000000E+00 0.  1.
</event>
<event>
 7    1  0.3449603E-013  0.5930195E+02  0.7816164E-02  0.1266605E+00
        -11   -1    0    0    0    0  0.00000000000E+00  0.00000000000E+00  0.45593999997E+02  0.45594000000E+02  0.51100000000E-03 0.  1.
         11   -1    0    0    0    0 -0.00000000000E+00 -0.00000000000E+00 -0.45593999997E+02  0.45594000000E+02  0.51100000000E-03 0. -1.
    9900012    2    1    2    0    0 -0.14791491794E+02  0.22775249610E+02  0.16709870550E+02  0.59301952924E+02  0.50000016225E+02 0.  0.
         12    1    1    2    0    0  0.14791491794E+02 -0.22775249610E+02 -0.16709870550E+02  0.31886047076E+02  0.00000000000E+00 0. -1.
         11    1    3    3    0    0 -0.27428309109E+01  0.10689109893E+02 -0.16382675495E+01  0.11156348531E+02  0.51100000000E-03 0. -1.
        -11    1    3    3    0    0 -0.19873956330E+02  0.20831941203E+02  0.31783719980E+01  0.28966290120E+02  0.51100000000E-03 0.  1.
         12    1    3    3    0    0  0.78252954463E+01 -0.87458014856E+01  0.15169766101E+02  0.19179314274E+02  0.00000000000E+00 0. -1.
</event>
<event>
 7    1  0.3449603E-013  0.5930194E+02  0.7816164E-02  0.1266605E+00
        -11   -1    0    0    0    0  0.00000000000E+00  0.00000000000E+00  0.45593999997E+02  0.45594000000E+02  0.51100000000E-03 0.  1.
         11   -1    0    0    0    0 -0.00000000000E+00 -0.00000000000E+00 -0.45593999997E+02  0.45594000000E+02  0.51100000000E-03 0. -1.
    9900012    2    1    2    0    0  0.58814426552E+01  0.30236599389E+02  0.82387876210E+01  0.59301938284E+02  0.49999989524E+02 0.  0.
         12    1    1    2    0    0 -0.58814426552E+01 -0.30236599389E+02 -0.82387876210E+01  0.31886061716E+02  0.00000000000E+00 0. -1.
         11    1    3    3    0    0  0.17202719144E+02  0.13973192890E+01 -0.72435481798E+01  0.18717773308E+02  0.51100000000E-03 0. -1.
        -11    1    3    3    0    0  0.34001004639E+01  0.18754673147E+02  0.43446488837E+01  0.19549281885E+02  0.51100000000E-03 0.  1.
        -12    1    3    3    0    0 -0.14721376952E+02  0.10084606953E+02  0.11137686917E+02  0.21034883090E+02  0.00000000000E+00 0.  1.
</event>
<event>
 7    1  0.3449603E-013  0.5930193E+02  0.7816164E-02  0.1266605E+00
        -11   -1    0    0    0    0  0.00000000000E+00  0.00000000000E+00  0.45593999997E+02  0.45594000000E+02  0.51100000000E-03 0. -1.
         11   -1    0    0    0    0 -0.00000000000E+00 -0.00000000000E+00 -0.45593999997E+02  0.45594000000E+02  0.51100000000E-03 0.  1.
    9900012    2    1    2    0    0  0.40968838019E+01 -0.13835236298E+02 -0.28434543859E+02  0.59301929299E+02  0.49999973138E+02 0.  0.
         12    1    1    2    0    0 -0.40968838019E+01  0.13835236298E+02  0.28434543859E+02  0.31886070701E+02  0.00000000000E+00 0. -1.
         11    1    3    3    0    0 -0.16828632155E+02 -0.46650274037E+01  0.36824800634E+01  0.17847296730E+02  0.51100000000E-03 0. -1.
        -11    1    3    3    0    0  0.11099201688E+02 -0.13767822472E+01 -0.65092416715E+01  0.12940557749E+02  0.51100000000E-03 0.  1.
        -12    1    3    3    0    0  0.98263142693E+01 -0.77934266470E+01 -0.25607782251E+02  0.28514074819E+02  0.00000000000E+00 0.  1.
</event>
<event>
 7    1  0.3449603E-013  0.5930194E+02  0.7816164E-02  0.1266605E+00
        -11   -1    0    0    0    0  0.00000000000E+00  0.00000000000E+00  0.45593999997E+02  0.45594000000E+02  0.51100000000E-03 0.  1.
         11   -1    0    0    0    0 -0.00000000000E+00 -0.00000000000E+00 -0.45593999997E+02  0.45594000000E+02  0.51100000000E-03 0. -1.
    9900012    2    1    2    0    0 -0.17967893909E+02  0.18117964788E+02  0.19121066790E+02  0.59301936355E+02  0.49999986007E+02 0.  0.
         12    1    1    2    0    0  0.17967893909E+02 -0.18117964788E+02 -0.19121066790E+02  0.31886063645E+02  0.00000000000E+00 0. -1.
         11    1    3    3    0    0  0.55440717214E+01  0.55981700969E+01  0.25227238341E+02  0.26428957495E+02  0.51100000000E-03 0. -1.
        -11    1    3    3    0    0 -0.14830573846E+02  0.31187072589E+01  0.49696869962E+01  0.15948982559E+02  0.51100000000E-03 0.  1.
        -12    1    3    3    0    0 -0.86813917842E+01  0.94010874325E+01 -0.11075858548E+02  0.16923996301E+02  0.00000000000E+00 0.  1.
</event>
<event>
 7    1  0.3449603E-013  0.5930216E+02  0.7816164E-02  0.1266604E+00
        -11   -1    0    0    0    0  0.00000000000E+00  0.00000000000E+00  0.45593999997E+02  0.45594000000E+02  0.51100000000E-03 0. -1.
         11   -1    0    0    0    0 -0.00000000000E+00 -0.00000000000E+00 -0.45593999997E+02  0.45594000000E+02  0.51100000000E-03 0.  1.
    9900012    2    1    2    0    0  0.23587933296E+02  0.18787547621E+02 -0.10360714723E+02  0.59302157494E+02  0.50000389309E+02 0.  0.
         12    1    1    2    0    0 -0.23587933296E+02 -0.18787547621E+02  0.10360714723E+02  0.31885842506E+02  0.00000000000E+00 0. -1.
         11    1    3    3    0    0  0.21889808647E+02 -0.61487624690E+01 -0.34546951830E+01  0.22997954726E+02  0.51100000000E-03 0. -1.
        -11    1    3    3    0    0  0.95135956630E+01  0.59732177503E+01  0.53166515869E+01  0.12427977192E+02  0.51100000000E-03 0.  1.
        -12    1    3    3    0    0 -0.78154710147E+01  0.18963092340E+02 -0.12222671127E+02  0.23876225575E+02  0.00000000000E+00 0.  1.
</event>
<event>
 7    1  0.3449603E-013  0.5930199E+02  0.7816164E-02  0.1266605E+00
        -11   -1    0    0    0    0  0.00000000000E+00  0.00000000000E+00  0.45593999997E+02  0.45594000000E+02  0.51100000000E-03 0. -1.
         11   -1    0    0    0    0 -0.00000000000E+00 -0.00000000000E+00 -0.45593999997E+02  0.45594000000E+02  0.51100000000E-03 0.  1.
    9900012    2    1    2    0    0  0.31558209320E+02  0.42325765352E+01 -0.16977286763E+01  0.59301991120E+02  0.50000085885E+02 0.  0.
         12    1    1    2    0    0 -0.31558209320E+02 -0.42325765352E+01  0.16977286763E+01  0.31886008880E+02  0.00000000000E+00 0. -1.
         11    1    3    3    0    0  0.19931988043E+02  0.98489170074E+01 -0.39023901282E+01  0.22572415966E+02  0.51100000000E-03 0. -1.
        -11    1    3    3    0    0  0.19949450729E+02  0.59834476171E+01 -0.39221395505E+01  0.21193522800E+02  0.51100000000E-03 0.  1.
         12    1    3    3    0    0 -0.83232294518E+01 -0.11599788089E+02  0.61268010024E+01  0.15536052354E+02  0.00000000000E+00 0. -1.
</event>
<event>
 7    1  0.3449603E-013  0.5930196E+02  0.7816164E-02  0.1266605E+00
        -11   -1    0    0    0    0  0.00000000000E+00  0.00000000000E+00  0.45593999997E+02  0.45594000000E+02  0.51100000000E-03 0.  1.
         11   -1    0    0    0    0 -0.00000000000E+00 -0.00000000000E+00 -0.45593999997E+02  0.45594000000E+02  0.51100000000E-03 0. -1.
    9900012    2    1    2    0    0 -0.11561982434E+02  0.28219580335E+02  0.93110434890E+01  0.59301957867E+02  0.50000025239E+02 0.  0.
         12    1    1    2    0    0  0.11561982434E+02 -0.28219580335E+02 -0.93110434890E+01  0.31886042133E+02  0.00000000000E+00 0. -1.
         11    1    3    3    0    0 -0.72898265636E+01  0.68857083374E+01  0.13081616712E+02  0.16482816710E+02  0.51100000000E-03 0.  1.
        -11    1    3    3    0    0  0.14938136387E-01  0.31521655875E+02 -0.39244046380E+01  0.31765011636E+02  0.51100000000E-03 0. -1.
         12    1    3    3    0    0 -0.42870940063E+01 -0.10187783877E+02  0.15383141506E+00  0.11054129521E+02  0.00000000000E+00 0. -1.
</event>
<event>
 7    1  0.3449603E-013  0.5930206E+02  0.7816164E-02  0.1266604E+00
        -11   -1    0    0    0    0  0.00000000000E+00  0.00000000000E+00  0.45593999997E+02  0.45594000000E+02  0.51100000000E-03 0.  1.
         11   -1    0    0    0    0 -0.00000000000E+00 -0.00000000000E+00 -0.45593999997E+02  0.45594000000E+02  0.51100000000E-03 0. -1.
    9900012    2    1    2    0    0  0.10892864527E+02 -0.13210401451E+02  0.26898778363E+02  0.59302055110E+02  0.50000202587E+02 0.  0.
         12    1    1    2    0    0 -0.10892864527E+02  0.13210401451E+02 -0.26898778363E+02  0.31885944890E+02  0.00000000000E+00 0. -1.
         11    1    3    3    0    0 -0.14085397125E+02  0.49605075723E+01  0.82938939115E+00  0.14956367693E+02  0.51100000000E-03 0. -1.
        -11    1    3    3    0    0  0.16611823141E+02 -0.55448859903E+01  0.46635548891E+01  0.18123111575E+02  0.51100000000E-03 0.  1.
        -12    1    3    3    0    0  0.83664385114E+01 -0.12626023033E+02  0.21405834083E+02  0.26222575842E+02  0.00000000000E+00 0.  1.
</event>
<event>
 7    1  0.3449603E-013  0.5930195E+02  0.7816164E-02  0.1266605E+00
        -11   -1    0    0    0    0  0.00000000000E+00  0.00000000000E+00  0.45593999997E+02  0.45594000000E+02  0.51100000000E-03 0.  1.
         11   -1    0    0    0    0 -0.00000000000E+00 -0.00000000000E+00 -0.45593999997E+02  0.45594000000E+02  0.51100000000E-03 0. -1.
    9900012    2    1    2    0    0 -0.22764493611E+02 -0.77383523330E+01  0.20943158447E+02  0.59301950512E+02  0.50000011826E+02 0.  0.
         12    1    1    2    0    0  0.22764493611E+02  0.77383523330E+01 -0.20943158447E+02  0.31886049488E+02  0.00000000000E+00 0. -1.
         11    1    3    3    0    0 -0.65049299872E+01 -0.94234391610E+01  0.43355457741E-01  0.11450641891E+02  0.51100000000E-03 0. -1.
        -11    1    3    3    0    0 -0.29151101776E+02  0.34701645496E+01  0.18257766717E+02  0.34571300561E+02  0.51100000000E-03 0.  1.
         12    1    3    3    0    0  0.12891538152E+02 -0.17850777215E+01  0.26420362730E+01  0.13280008060E+02  0.00000000000E+00 0. -1.
</event>
<event>
 7    1  0.3449603E-013  0.5930194E+02  0.7816164E-02  0.1266605E+00
        -11   -1    0    0    0    0  0.00000000000E+00  0.00000000000E+00  0.45593999997E+02  0.45594000000E+02  0.51100000000E-03 0. -1.
         11   -1    0    0    0    0 -0.00000000000E+00 -0.00000000000E+00 -0.45593999997E+02  0.45594000000E+02  0.51100000000E-03 0.  1.
    9900012    2    1    2    0    0  0.29608165491E+02  0.11712590925E+02 -0.17006779308E+01  0.59301944186E+02  0.50000000289E+02 0.  0.
         12    1    1    2    0    0 -0.29608165491E+02 -0.11712590925E+02  0.17006779308E+01  0.31886055814E+02  0.00000000000E+00 0. -1.
         11    1    3    3    0    0 -0.11413638859E+01 -0.17112386749E+01 -0.23164972838E+01  0.30979362888E+01  0.51100000000E-03 0. -1.
        -11    1    3    3    0    0  0.12547340647E+02 -0.15894352218E+02 -0.58851566637E+01  0.21087941079E+02  0.51100000000E-03 0.  1.
         12    1    3    3    0    0  0.18202188730E+02  0.29318181818E+02  0.65009760167E+01  0.35116066819E+02  0.00000000000E+00 0. -1.
</event>
<event>
 7    1  0.3449603E-013  0.5930193E+02  0.7816164E-02  0.1266605E+00
        -11   -1    0    0    0    0  0.00000000000E+00  0.00000000000E+00  0.45593999997E+02  0.45594000000E+02  0.51100000000E-03 0.  1.
         11   -1    0    0    0    0 -0.00000000000E+00 -0.00000000000E+00 -0.45593999997E+02  0.45594000000E+02  0.51100000000E-03 0. -1.
    9900012    2    1    2    0    0 -0.19807635753E+02 -0.22281479666E+02  0.11309931155E+02  0.59301932306E+02  0.49999978623E+02 0.  0.
         12    1    1    2    0    0  0.19807635753E+02  0.22281479666E+02 -0.11309931155E+02  0.31886067694E+02  0.00000000000E+00 0. -1.
         11    1    3    3    0    0  0.57117860387E+01  0.80309324632E+01  0.38983376444E+01  0.10597990971E+02  0.51100000000E-03 0. -1.
        -11    1    3    3    0    0 -0.97556436390E+01  0.82570048629E+00 -0.58075130605E+01  0.11383390194E+02  0.51100000000E-03 0.  1.
        -12    1    3    3    0    0 -0.15763778153E+02 -0.31138112616E+02  0.13219106571E+02  0.37320551141E+02  0.00000000000E+00 0.  1.
</event>
<event>
 7    1  0.3449603E-013  0.5930196E+02  0.7816164E-02  0.1266605E+00
        -11   -1    0    0    0    0  0.00000000000E+00  0.00000000000E+00  0.45593999997E+02  0.45594000000E+02  0.51100000000E-03 0.  1.
         11   -1    0    0    0    0 -0.00000000000E+00 -0.00000000000E+00 -0.45593999997E+02  0.45594000000E+02  0.51100000000E-03 0. -1.
    9900012    2    1    2    0    0  0.28646438345E+02 -0.73776401997E+01  0.11902572932E+02  0.59301964700E+02  0.50000037700E+02 0.  0.
         12    1    1    2    0    0 -0.28646438345E+02  0.73776401997E+01 -0.11902572932E+02  0.31886035300E+02  0.00000000000E+00 0. -1.
         11    1    3    3    0    0  0.14490548369E+02 -0.19241785697E+02  0.83938414391E+01  0.25508408089E+02  0.51100000000E-03 0. -1.
        -11    1    3    3    0    0 -0.49025747411E+01 -0.54429283814E+01 -0.17182322637E+01  0.75241631316E+01  0.51100000000E-03 0.  1.
         12    1    3    3    0    0  0.19058464718E+02  0.17307073879E+02  0.52269637570E+01  0.26269393479E+02  0.00000000000E+00 0. -1.
</event>
<event>
 7    1  0.3449603E-013  0.5930195E+02  0.7816164E-02  0.1266605E+00
        -11   -1    0    0    0    0  0.00000000000E+00  0.00000000000E+00  0.45593999997E+02  0.45594000000E+02  0.51100000000E-03 0.  1.
         11   -1    0    0    0    0 -0.00000000000E+00 -0.00000000000E+00 -0.45593999997E+02  0.45594000000E+02  0.51100000000E-03 0. -1.
    9900012    2    1    2    0    0 -0.22628639699E+02 -0.22335065923E+02  0.24102839557E+01  0.59301953315E+02  0.50000016938E+02 0.  0.
         12    1    1    2    0    0  0.22628639699E+02  0.22335065923E+02 -0.24102839557E+01  0.31886046685E+02  0.00000000000E+00 0. -1.
         11    1    3    3    0    0  0.10226275094E-01 -0.61081464174E+01 -0.10118712378E+02  0.11819386519E+02  0.51100000000E-03 0. -1.
        -11    1    3    3    0    0 -0.18012105631E+02 -0.24781941679E+02 -0.11974396814E+01  0.30659654999E+02  0.51100000000E-03 0.  1.
        -12    1    3    3    0    0 -0.46267603435E+01  0.85550221733E+01  0.13726436015E+02  0.16822911797E+02  0.00000000000E+00 0.  1.
</event>
<event>
 7    1  0.3449603E-013  0.5930182E+02  0.7816164E-02  0.1266605E+00
        -11   -1    0    0    0    0  0.00000000000E+00  0.00000000000E+00  0.45593999997E+02  0.45594000000E+02  0.51100000000E-03 0.  1.
         11   -1    0    0    0    0 -0.00000000000E+00 -0.00000000000E+00 -0.45593999997E+02  0.45594000000E+02  0.51100000000E-03 0. -1.
    9900012    2    1    2    0    0 -0.58267996221E+01 -0.85884146607E+01  0.30149891202E+02  0.59301821180E+02  0.49999775955E+02 0.  0.
         12    1    1    2    0    0  0.58267996221E+01  0.85884146607E+01 -0.30149891202E+02  0.31886178820E+02  0.00000000000E+00 0. -1.
         11    1    3    3    0    0  0.16724882418E+02  0.23361665460E+00  0.27097006843E+02  0.31843744264E+02  0.51100000000E-03 0. -1.
        -11    1    3    3    0    0 -0.50296009144E+01 -0.82386851163E+01  0.22307566614E+01  0.99070224259E+01  0.51100000000E-03 0.  1.
        -12    1    3    3    0    0 -0.17522081126E+02 -0.58334619898E+00  0.82212769783E+00  0.17551054490E+02  0.00000000000E+00 0.  1.
</event>
<event>
 7    1  0.3449603E-013  0.5930195E+02  0.7816164E-02  0.1266605E+00
        -11   -1    0    0    0    0  0.00000000000E+00  0.00000000000E+00  0.45593999997E+02  0.45594000000E+02  0.51100000000E-03 0.  1.
         11   -1    0    0    0    0 -0.00000000000E+00 -0.00000000000E+00 -0.45593999997E+02  0.45594000000E+02  0.51100000000E-03 0. -1.
    9900012    2    1    2    0    0  0.86826695591E+01  0.29493550881E+02  0.84535234475E+01  0.59301947361E+02  0.50000006079E+02 0.  0.
         12    1    1    2    0    0 -0.86826695591E+01 -0.29493550881E+02 -0.84535234475E+01  0.31886052639E+02  0.00000000000E+00 0. -1.
         11    1    3    3    0    0 -0.92894987670E+01  0.87302052606E+01 -0.51458196639E+01  0.13747389989E+02  0.51100000000E-03 0. -1.
        -11    1    3    3    0    0  0.19758569908E+01  0.13939259611E+02  0.22095102501E+02  0.26199246633E+02  0.51100000000E-03 0.  1.
        -12    1    3    3    0    0  0.15996311335E+02  0.68240860089E+01 -0.84957593893E+01  0.19355310739E+02  0.00000000000E+00 0.  1.
</event>
<event>
 7    1  0.3449603E-013  0.5930190E+02  0.7816164E-02  0.1266605E+00
        -11   -1    0    0    0    0  0.00000000000E+00  0.00000000000E+00  0.45593999997E+02  0.45594000000E+02  0.51100000000E-03 0.  1.
         11   -1    0    0    0    0 -0.00000000000E+00 -0.00000000000E+00 -0.45593999997E+02  0.45594000000E+02  0.51100000000E-03 0. -1.
    9900012    2    1    2    0    0  0.14037496493E+02 -0.48016714888E+01  0.28224381769E+02  0.59301904548E+02  0.49999927999E+02 0.  0.
         12    1    1    2    0    0 -0.14037496493E+02  0.48016714888E+01 -0.28224381769E+02  0.31886095452E+02  0.00000000000E+00 0. -1.
         11    1    3    3    0    0  0.11069911260E+02 -0.23670317534E+00  0.20638421178E+02  0.23421003238E+02  0.51100000000E-03 0. -1.
        -11    1    3    3    0    0  0.11228054866E+02 -0.76161944258E+01  0.17808864784E+02  0.22388195523E+02  0.51100000000E-03 0.  1.
         12    1    3    3    0    0 -0.82604696320E+01  0.30512261123E+01 -0.10222904193E+02  0.13492705788E+02  0.00000000000E+00 0. -1.
</event>
<event>
 7    1  0.3449603E-013  0.5930197E+02  0.7816164E-02  0.1266605E+00
        -11   -1    0    0    0    0  0.00000000000E+00  0.00000000000E+00  0.45593999997E+02  0.45594000000E+02  0.51100000000E-03 0. -1.
         11   -1    0    0    0    0 -0.00000000000E+00 -0.00000000000E+00 -0.45593999997E+02  0.45594000000E+02  0.51100000000E-03 0.  1.
    9900012    2    1    2    0    0 -0.51760054414E+01  0.23641077659E+02 -0.20761199422E+02  0.59301968785E+02  0.50000045151E+02 0.  0.
         12    1    1    2    0    0  0.51760054414E+01 -0.23641077659E+02  0.20761199422E+02  0.31886031215E+02  0.00000000000E+00 0. -1.
         11    1    3    3    0    0 -0.83395575720E+01 -0.83494152059E+01 -0.15698452618E+02  0.19639306750E+02  0.51100000000E-03 0. -1.
        -11    1    3    3    0    0  0.72235651074E+01  0.40830840688E+00 -0.27379611953E+01  0.77358283580E+01  0.51100000000E-03 0.  1.
        -12    1    3    3    0    0 -0.40600129768E+01  0.31582184458E+02 -0.23247856095E+01  0.31926833677E+02  0.00000000000E+00 0.  1.
</event>
<event>
 7    1  0.3449603E-013  0.5930233E+02  0.7816164E-02  0.1266603E+00
        -11   -1    0    0    0    0  0.00000000000E+00  0.00000000000E+00  0.45593999997E+02  0.45594000000E+02  0.51100000000E-03 0.  1.
         11   -1    0    0    0    0 -0.00000000000E+00 -0.00000000000E+00 -0.45593999997E+02  0.45594000000E+02  0.51100000000E-03 0. -1.
    9900012    2    1    2    0    0  0.24221553884E+02 -0.63088020266E+01  0.19753769438E+02  0.59302328256E+02  0.50000700735E+02 0.  0.
         12    1    1    2    0    0 -0.24221553884E+02  0.63088020266E+01 -0.19753769438E+02  0.31885671744E+02  0.00000000000E+00 0. -1.
         11    1    3    3    0    0  0.12049923856E+02 -0.19878471197E+02  0.12004897244E+02  0.26162412736E+02  0.51100000000E-03 0. -1.
        -11    1    3    3    0    0  0.20470009644E+01  0.35238651061E+01 -0.97484447549E+01  0.10565983799E+02  0.51100000000E-03 0.  1.
        -12    1    3    3    0    0  0.10124629064E+02  0.10045804064E+02  0.17497316948E+02  0.22573931721E+02  0.00000000000E+00 0.  1.
</event>
<event>
 7    1  0.3449603E-013  0.5930193E+02  0.7816164E-02  0.1266605E+00
        -11   -1    0    0    0    0  0.00000000000E+00  0.00000000000E+00  0.45593999997E+02  0.45594000000E+02  0.51100000000E-03 0.  1.
         11   -1    0    0    0    0 -0.00000000000E+00 -0.00000000000E+00 -0.45593999997E+02  0.45594000000E+02  0.51100000000E-03 0. -1.
    9900012    2    1    2    0    0  0.26300331120E+02  0.11311547080E+02 -0.14037905332E+02  0.59301932503E+02  0.49999978981E+02 0.  0.
         12    1    1    2    0    0 -0.26300331120E+02 -0.11311547080E+02  0.14037905332E+02  0.31886067497E+02  0.00000000000E+00 0. -1.
         11    1    3    3    0    0  0.12104701966E+02 -0.15486236060E+02 -0.61287887933E+01  0.20589059457E+02  0.51100000000E-03 0. -1.
        -11    1    3    3    0    0  0.22267533524E+01 -0.32586296283E+01  0.25658088509E+01  0.47074911436E+01  0.51100000000E-03 0.  1.
         12    1    3    3    0    0  0.11968875801E+02  0.30056412768E+02 -0.10474925389E+02  0.34005381902E+02  0.00000000000E+00 0. -1.
</event>
<event>
 7    1  0.3449603E-013  0.5930194E+02  0.7816164E-02  0.1266605E+00
        -11   -1    0    0    0    0  0.00000000000E+00  0.00000000000E+00  0.45593999997E+02  0.45594000000E+02  0.51100000000E-03 0. -1.
         11   -1    0    0    0    0 -0.00000000000E+00 -0.00000000000E+00 -0.45593999997E+02  0.45594000000E+02  0.51100000000E-03 0.  1.
    9900012    2    1    2    0    0 -0.24500330801E+01  0.26195439936E+02 -0.18014353539E+02  0.59301942405E+02  0.49999997041E+02 0.  0.
         12    1    1    2    0    0  0.24500330801E+01 -0.26195439936E+02  0.18014353539E+02  0.31886057595E+02  0.00000000000E+00 0. -1.
         11    1    3    3    0    0  0.23145702825E+01  0.11400485779E+02  0.10719125202E+02  0.15818595290E+02  0.51100000000E-03 0. -1.
        -11    1    3    3    0    0 -0.49182577425E+01 -0.77103960186E+01 -0.13501963607E+02  0.16307743176E+02  0.51100000000E-03 0.  1.
         12    1    3    3    0    0  0.15365437989E+00  0.22505350175E+02 -0.15231515134E+02  0.27175603939E+02  0.00000000000E+00 0. -1.
</event>
<event>
 7    1  0.3449603E-013  0.5930194E+02  0.7816164E-02  0.1266605E+00
        -11   -1    0    0    0    0  0.00000000000E+00  0.00000000000E+00  0.45593999997E+02  0.45594000000E+02  0.51100000000E-03 0. -1.
         11   -1    0    0    0    0 -0.00000000000E+00 -0.00000000000E+00 -0.45593999997E+02  0.45594000000E+02  0.51100000000E-03 0.  1.
    9900012    2    1    2    0    0  0.13612523462E+02  0.25132120597E+02  0.14134940377E+02  0.59301940034E+02  0.49999992716E+02 0.  0.
         12    1    1    2    0    0 -0.13612523462E+02 -0.25132120597E+02 -0.14134940377E+02  0.31886059966E+02  0.00000000000E+00 0. -1.
         11    1    3    3    0    0  0.12286937346E+02  0.12802680248E+02 -0.49349772153E+01  0.18418236920E+02  0.51100000000E-03 0. -1.
        -11    1    3    3    0    0  0.39816655568E+01 -0.11494985654E+02  0.56824634736E+01  0.13426792141E+02  0.51100000000E-03 0.  1.
        -12    1    3    3    0    0 -0.26560794408E+01  0.23824426004E+02  0.13387454118E+02  0.27456910973E+02  0.00000000000E+00 0.  1.
</event>
<event>
 7    1  0.3449603E-013  0.5930178E+02  0.7816164E-02  0.1266605E+00
        -11   -1    0    0    0    0  0.00000000000E+00  0.00000000000E+00  0.45593999997E+02  0.45594000000E+02  0.51100000000E-03 0.  1.
         11   -1    0    0    0    0 -0.00000000000E+00 -0.00000000000E+00 -0.45593999997E+02  0.45594000000E+02  0.51100000000E-03 0. -1.
    9900012    2    1    2    0    0  0.61006772053E+01  0.13521328001E+02  0.28225630260E+02  0.59301783905E+02  0.49999707974E+02 0.  0.
         12    1    1    2    0    0 -0.61006772053E+01 -0.13521328001E+02 -0.28225630260E+02  0.31886216095E+02  0.00000000000E+00 0. -1.
         11    1    3    3    0    0 -0.94534331918E+00 -0.16852889381E+01 -0.29462874054E+01  0.35234191537E+01  0.51100000000E-03 0. -1.
        -11    1    3    3    0    0 -0.65802267474E+00 -0.45556167779E+01 -0.91361611313E+01  0.10230155353E+02  0.51100000000E-03 0.  1.
        -12    1    3    3    0    0  0.77040431993E+01  0.19762233717E+02  0.40308078797E+02  0.45548209398E+02  0.00000000000E+00 0.  1.
</event>
<event>
 7    1  0.3449603E-013  0.5930201E+02  0.7816164E-02  0.1266605E+00
        -11   -1    0    0    0    0  0.00000000000E+00  0.00000000000E+00  0.45593999997E+02  0.45594000000E+02  0.51100000000E-03 0. -1.
         11   -1    0    0    0    0 -0.00000000000E+00 -0.00000000000E+00 -0.45593999997E+02  0.45594000000E+02  0.51100000000E-03 0.  1.
    9900012    2    1    2    0    0 -0.11626111505E+02  0.17456732264E+02 -0.24016916344E+02  0.59302011843E+02  0.50000123679E+02 0.  0.
         12    1    1    2    0    0  0.11626111505E+02 -0.17456732264E+02  0.24016916344E+02  0.31885988157E+02  0.00000000000E+00 0. -1.
         11    1    3    3    0    0  0.37785630993E+01  0.45645961781E+01 -0.15453797138E+02  0.16550919117E+02  0.51100000000E-03 0.  1.
        -11    1    3    3    0    0 -0.11790575619E+02  0.78457693717E+01  0.13660480365E+02  0.19676953385E+02  0.51100000000E-03 0. -1.
         12    1    3    3    0    0 -0.36140989853E+01  0.50463667145E+01 -0.22223599570E+02  0.23074139341E+02  0.00000000000E+00 0. -1.
</event>
<event>
 7    1  0.3449603E-013  0.5930196E+02  0.7816164E-02  0.1266605E+00
        -11   -1    0    0    0    0  0.00000000000E+00  0.00000000000E+00  0.45593999997E+02  0.45594000000E+02  0.51100000000E-03 0. -1.
         11   -1    0    0    0    0 -0.00000000000E+00 -0.00000000000E+00 -0.45593999997E+02  0.45594000000E+02  0.51100000000E-03 0.  1.
    9900012    2    1    2    0    0 -0.81330884390E+01  0.15187518808E+02 -0.26831167208E+02  0.59301962478E+02  0.50000033649E+02 0.  0.
         12    1    1    2    0    0  0.81330884390E+01 -0.15187518808E+02  0.26831167208E+02  0.31886037522E+02  0.00000000000E+00 0. -1.
         11    1    3    3    0    0  0.84508295356E+01  0.10599693120E+02  0.49329332632E+01  0.14425804827E+02  0.51100000000E-03 0. -1.
        -11    1    3    3    0    0  0.43107038422E+01  0.20320390273E+01  0.19343583475E+01  0.51432570130E+01  0.51100000000E-03 0.  1.
        -12    1    3    3    0    0 -0.20894621817E+02  0.25557866607E+01 -0.33698458819E+02  0.39732900638E+02  0.00000000000E+00 0.  1.
</event>
<event>
 7    1  0.4519719E-013  0.5930194E+02  0.7816164E-02  0.1266605E+00
        -11   -1    0    0    0    0  0.00000000000E+00  0.00000000000E+00  0.45593999997E+02  0.45594000000E+02  0.51100000000E-03 0. -1.
         11   -1    0    0    0    0 -0.00000000000E+00 -0.00000000000E+00 -0.45593999997E+02  0.45594000000E+02  0.51100000000E-03 0.  1.
    9900012    2    1    2    0    0 -0.27550392139E+00  0.28536658010E+02 -0.14223362631E+02  0.59301940392E+02  0.49999993370E+02 0.  0.
         12    1    1    2    0    0  0.27550392139E+00 -0.28536658010E+02  0.14223362631E+02  0.31886059608E+02  0.00000000000E+00 0. -1.
         11    1    3    3    0    0  0.30042411771E+01  0.14040181288E+02  0.85011856745E+01  0.16685991543E+02  0.51100000000E-03 0. -1.
        -11    1    3    3    0    0 -0.10531749100E+02  0.22686142124E+02 -0.14317989055E+02  0.28819847231E+02  0.51100000000E-03 0.  1.
         12    1    3    3    0    0  0.72520040016E+01 -0.81896654017E+01 -0.84065592500E+01  0.13796101618E+02  0.00000000000E+00 0. -1.
</event>
<event>
 7    1  0.3449603E-013  0.5930199E+02  0.7816164E-02  0.1266605E+00
        -11   -1    0    0    0    0  0.00000000000E+00  0.00000000000E+00  0.45593999997E+02  0.45594000000E+02  0.51100000000E-03 0.  1.
         11   -1    0    0    0    0 -0.00000000000E+00 -0.00000000000E+00 -0.45593999997E+02  0.45594000000E+02  0.51100000000E-03 0. -1.
    9900012    2    1    2    0    0 -0.12907264196E+02 -0.92387928711E+00  0.29142180434E+02  0.59301988923E+02  0.50000081878E+02 0.  0.
         12    1    1    2    0    0  0.12907264196E+02  0.92387928711E+00 -0.29142180434E+02  0.31886011077E+02  0.00000000000E+00 0. -1.
         11    1    3    3    0    0  0.59707502164E+01  0.69214260013E+01 -0.26556356717E+00  0.91447537040E+01  0.51100000000E-03 0. -1.
        -11    1    3    3    0    0  0.68801825393E+01  0.72371980691E+01  0.33449455575E+01  0.10531030752E+02  0.51100000000E-03 0.  1.
         12    1    3    3    0    0 -0.25758196952E+02 -0.15082503357E+02  0.26062798443E+02  0.39626204467E+02  0.00000000000E+00 0. -1.
</event>
<event>
 7    1  0.3449603E-013  0.5930193E+02  0.7816164E-02  0.1266605E+00
        -11   -1    0    0    0    0  0.00000000000E+00  0.00000000000E+00  0.45593999997E+02  0.45594000000E+02  0.51100000000E-03 0.  1.
         11   -1    0    0    0    0 -0.00000000000E+00 -0.00000000000E+00 -0.45593999997E+02  0.45594000000E+02  0.51100000000E-03 0. -1.
    9900012    2    1    2    0    0  0.26771445563E+02 -0.16346532261E+02  0.57273020210E+01  0.59301930895E+02  0.49999976049E+02 0.  0.
         12    1    1    2    0    0 -0.26771445563E+02  0.16346532261E+02 -0.57273020210E+01  0.31886069105E+02  0.00000000000E+00 0. -1.
         11    1    3    3    0    0  0.26759748510E+02 -0.44023646043E+01 -0.12847911913E+02  0.30008895268E+02  0.51100000000E-03 0. -1.
        -11    1    3    3    0    0 -0.57009495267E+01 -0.12799641566E+02  0.55987435788E+01  0.15088988688E+02  0.51100000000E-03 0.  1.
        -12    1    3    3    0    0  0.57126465803E+01  0.85547390838E+00  0.12976470356E+02  0.14204046939E+02  0.00000000000E+00 0.  1.
</event>
<event>
 7    1  0.3449603E-013  0.5930193E+02  0.7816164E-02  0.1266605E+00
        -11   -1    0    0    0    0  0.00000000000E+00  0.00000000000E+00  0.45593999997E+02  0.45594000000E+02  0.51100000000E-03 0.  1.
         11   -1    0    0    0    0 -0.00000000000E+00 -0.00000000000E+00 -0.45593999997E+02  0.45594000000E+02  0.51100000000E-03 0. -1.
    9900012    2    1    2    0    0 -0.30007469765E+02 -0.51688371301E+01  0.94634054173E+01  0.59301934688E+02  0.49999982967E+02 0.  0.
         12    1    1    2    0    0  0.30007469765E+02  0.51688371301E+01 -0.94634054173E+01  0.31886065312E+02  0.00000000000E+00 0. -1.
         11    1    3    3    0    0 -0.60983675226E+01 -0.25612196076E+01  0.13772881098E+02  0.15278814952E+02  0.51100000000E-03 0. -1.
        -11    1    3    3    0    0 -0.22742007070E+02 -0.46246027609E+01  0.12970934658E+02  0.26586293131E+02  0.51100000000E-03 0.  1.
         12    1    3    3    0    0 -0.11670951717E+01  0.20169852383E+01 -0.17280410339E+02  0.17436826606E+02  0.00000000000E+00 0. -1.
</event>
<event>
 7    1  0.3449603E-013  0.5930194E+02  0.7816164E-02  0.1266605E+00
        -11   -1    0    0    0    0  0.00000000000E+00  0.00000000000E+00  0.45593999997E+02  0.45594000000E+02  0.51100000000E-03 0. -1.
         11   -1    0    0    0    0 -0.00000000000E+00 -0.00000000000E+00 -0.45593999997E+02  0.45594000000E+02  0.51100000000E-03 0.  1.
    9900012    2    1    2    0    0  0.11774972905E+02 -0.25865930595E+02 -0.14457678348E+02  0.59301940104E+02  0.49999992844E+02 0.  0.
         12    1    1    2    0    0 -0.11774972905E+02  0.25865930595E+02  0.14457678348E+02  0.31886059896E+02  0.00000000000E+00 0. -1.
         11    1    3    3    0    0  0.19240636071E+01  0.85984023371E+01 -0.12677617835E+02  0.15438799751E+02  0.51100000000E-03 0. -1.
        -11    1    3    3    0    0 -0.14597026949E+01  0.13046751520E+00 -0.69483187613E+01  0.71011891680E+01  0.51100000000E-03 0.  1.
         12    1    3    3    0    0  0.11310611993E+02 -0.34594800447E+02  0.51682582479E+01  0.36761951185E+02  0.00000000000E+00 0. -1.
</event>
<event>
 7    1  0.3449603E-013  0.5930195E+02  0.7816164E-02  0.1266605E+00
        -11   -1    0    0    0    0  0.00000000000E+00  0.00000000000E+00  0.45593999997E+02  0.45594000000E+02  0.51100000000E-03 0. -1.
         11   -1    0    0    0    0 -0.00000000000E+00 -0.00000000000E+00 -0.45593999997E+02  0.45594000000E+02  0.51100000000E-03 0.  1.
    9900012    2    1    2    0    0  0.19994625575E+02 -0.19251014765E+02 -0.15695010476E+02  0.59301953283E+02  0.50000016880E+02 0.  0.
         12    1    1    2    0    0 -0.19994625575E+02  0.19251014765E+02  0.15695010476E+02  0.31886046717E+02  0.00000000000E+00 0. -1.
         11    1    3    3    0    0  0.10192215547E+02 -0.46512757065E+01  0.24669370206E+00  0.11206091267E+02  0.51100000000E-03 0. -1.
        -11    1    3    3    0    0  0.88157807938E+00  0.22667683832E+01  0.13112737366E+02  0.13336390078E+02  0.51100000000E-03 0.  1.
        -12    1    3    3    0    0  0.89208319488E+01 -0.16866507442E+02 -0.29054441544E+02  0.34759471938E+02  0.00000000000E+00 0.  1.
</event>
<event>
 7    1  0.3449603E-013  0.5930197E+02  0.7816164E-02  0.1266605E+00
        -11   -1    0    0    0    0  0.00000000000E+00  0.00000000000E+00  0.45593999997E+02  0.45594000000E+02  0.51100000000E-03 0. -1.
         11   -1    0    0    0    0 -0.00000000000E+00 -0.00000000000E+00 -0.45593999997E+02  0.45594000000E+02  0.51100000000E-03 0.  1.
    9900012    2    1    2    0    0  0.17444089872E+02 -0.22825834833E+02  0.13834891228E+02  0.59301965085E+02  0.50000038404E+02 0.  0.
         12    1    1    2    0    0 -0.17444089872E+02  0.22825834833E+02 -0.13834891228E+02  0.31886034915E+02  0.00000000000E+00 0. -1.
         11    1    3    3    0    0 -0.90400327647E+01  0.17720344423E+01 -0.42257047369E+01  0.10135032276E+02  0.51100000000E-03 0. -1.
        -11    1    3    3    0    0  0.33777940441E+01 -0.22221319990E+02  0.80715386906E+01  0.23881923955E+02  0.51100000000E-03 0.  1.
         12    1    3    3    0    0  0.23106328593E+02 -0.23765492855E+01  0.99890572746E+01  0.25285008855E+02  0.00000000000E+00 0. -1.
</event>
<event>
 7    1  0.3449603E-013  0.5930194E+02  0.7816164E-02  0.1266605E+00
        -11   -1    0    0    0    0  0.00000000000E+00  0.00000000000E+00  0.45593999997E+02  0.45594000000E+02  0.51100000000E-03 0.  1.
         11   -1    0    0    0    0 -0.00000000000E+00 -0.00000000000E+00 -0.45593999997E+02  0.45594000000E+02  0.51100000000E-03 0. -1.
    9900012    2    1    2    0    0  0.25663292264E+02  0.10941917726E+02  0.15439909151E+02  0.59301938344E+02  0.49999989634E+02 0.  0.
         12    1    1    2    0    0 -0.25663292264E+02 -0.10941917726E+02 -0.15439909151E+02  0.31886061656E+02  0.00000000000E+00 0. -1.
         11    1    3    3    0    0  0.13435617335E+02  0.16264656096E+01  0.19634300249E+02  0.23846738772E+02  0.51100000000E-03 0.  1.
        -11    1    3    3    0    0  0.71197430332E+01 -0.11630656388E+02 -0.12246121900E+01  0.13691697636E+02  0.51100000000E-03 0. -1.
        -12    1    3    3    0    0  0.51079318960E+01  0.20946108504E+02 -0.29697789076E+01  0.21763501935E+02  0.00000000000E+00 0.  1.
</event>
<event>
 7    1  0.3449603E-013  0.5930193E+02  0.7816164E-02  0.1266605E+00
        -11   -1    0    0    0    0  0.00000000000E+00  0.00000000000E+00  0.45593999997E+02  0.45594000000E+02  0.51100000000E-03 0.  1.
         11   -1    0    0    0    0 -0.00000000000E+00 -0.00000000000E+00 -0.45593999997E+02  0.45594000000E+02  0.51100000000E-03 0. -1.
    9900012    2    1    2    0    0  0.24839316736E+02 -0.84074019599E+01  0.18139611648E+02  0.59301928207E+02  0.49999971147E+02 0.  0.
         12    1    1    2    0    0 -0.24839316736E+02  0.84074019599E+01 -0.18139611648E+02  0.31886071793E+02  0.00000000000E+00 0. -1.
         11    1    3    3    0    0 -0.66805207247E+00  0.10956399756E+01  0.39847859725E+00  0.13436911778E+01  0.51100000000E-03 0. -1.
        -11    1    3    3    0    0  0.99191030169E+01 -0.61726543923E+01  0.33539213234E+02  0.35515758355E+02  0.51100000000E-03 0.  1.
        -12    1    3    3    0    0  0.15588265792E+02 -0.33303875432E+01 -0.15798080183E+02  0.22442478675E+02  0.00000000000E+00 0.  1.
</event>
<event>
 7    1  0.3689579E-013  0.5930195E+02  0.7816164E-02  0.1266605E+00
        -11   -1    0    0    0    0  0.00000000000E+00  0.00000000000E+00  0.45593999997E+02  0.45594000000E+02  0.51100000000E-03 0. -1.
         11   -1    0    0    0    0 -0.00000000000E+00 -0.00000000000E+00 -0.45593999997E+02  0.45594000000E+02  0.51100000000E-03 0.  1.
    9900012    2    1    2    0    0 -0.11959971006E+02  0.29387967219E+02 -0.31664880964E+01  0.59301950220E+02  0.50000011294E+02 0.  0.
         12    1    1    2    0    0  0.11959971006E+02 -0.29387967219E+02  0.31664880964E+01  0.31886049780E+02  0.00000000000E+00 0. -1.
         11    1    3    3    0    0 -0.99842056874E+01  0.31914633707E+00  0.85775804873E+01  0.13166666430E+02  0.51100000000E-03 0. -1.
        -11    1    3    3    0    0 -0.10660059247E+02  0.17794259644E+02 -0.20712681713E+02  0.29313609867E+02  0.51100000000E-03 0.  1.
         12    1    3    3    0    0  0.86842939291E+01  0.11274561238E+02  0.89686131288E+01  0.16821673924E+02  0.00000000000E+00 0. -1.
</event>
<event>
 7    1  0.3449603E-013  0.5930195E+02  0.7816164E-02  0.1266605E+00
        -11   -1    0    0    0    0  0.00000000000E+00  0.00000000000E+00  0.45593999997E+02  0.45594000000E+02  0.51100000000E-03 0.  1.
         11   -1    0    0    0    0 -0.00000000000E+00 -0.00000000000E+00 -0.45593999997E+02  0.45594000000E+02  0.51100000000E-03 0. -1.
    9900012    2    1    2    0    0 -0.10825665212E+02 -0.14152055963E+02  0.26443225823E+02  0.59301954351E+02  0.50000018827E+02 0.  0.
         12    1    1    2    0    0  0.10825665212E+02  0.14152055963E+02 -0.26443225823E+02  0.31886045649E+02  0.00000000000E+00 0. -1.
         11    1    3    3    0    0 -0.57697814117E+00  0.28646688617E+01  0.92475358906E+00  0.30650286988E+01  0.51100000000E-03 0. -1.
        -11    1    3    3    0    0 -0.18081193755E+02 -0.27804499750E+01  0.33472885977E+02  0.38145701797E+02  0.51100000000E-03 0.  1.
         12    1    3    3    0    0  0.78325066845E+01 -0.14236274849E+02 -0.79544137440E+01  0.18091223855E+02  0.00000000000E+00 0. -1.
</event>
<event>
 7    1  0.3449603E-013  0.5930194E+02  0.7816164E-02  0.1266605E+00
        -11   -1    0    0    0    0  0.00000000000E+00  0.00000000000E+00  0.45593999997E+02  0.45594000000E+02  0.51100000000E-03 0.  1.
         11   -1    0    0    0    0 -0.00000000000E+00 -0.00000000000E+00 -0.45593999997E+02  0.45594000000E+02  0.51100000000E-03 0. -1.
    9900012    2    1    2    0    0  0.16647413038E+02 -0.27171035973E+02 -0.11484722857E+01  0.59301944344E+02  0.50000000577E+02 0.  0.
         12    1    1    2    0    0 -0.16647413038E+02  0.27171035973E+02  0.11484722857E+01  0.31886055656E+02  0.00000000000E+00 0. -1.
         11    1    3    3    0    0  0.26339701009E+02 -0.20873672829E+02  0.33700612713E+00  0.33609576611E+02  0.51100000000E-03 0.  1.
        -11    1    3    3    0    0 -0.10996823029E+02 -0.12895735475E+02  0.35182482366E+01  0.17309193542E+02  0.51100000000E-03 0. -1.
        -12    1    3    3    0    0  0.13045350577E+01  0.65983723305E+01 -0.50037266494E+01  0.83831741907E+01  0.00000000000E+00 0.  1.
</event>
<event>
 7    1  0.3449603E-013  0.5930191E+02  0.7816164E-02  0.1266605E+00
        -11   -1    0    0    0    0  0.00000000000E+00  0.00000000000E+00  0.45593999997E+02  0.45594000000E+02  0.51100000000E-03 0. -1.
         11   -1    0    0    0    0 -0.00000000000E+00 -0.00000000000E+00 -0.45593999997E+02  0.45594000000E+02  0.51100000000E-03 0.  1.
    9900012    2    1    2    0    0  0.26208893813E+02 -0.12704436567E+01 -0.18116356818E+02  0.59301913279E+02  0.49999943922E+02 0.  0.
         12    1    1    2    0    0 -0.26208893813E+02  0.12704436567E+01  0.18116356818E+02  0.31886086721E+02  0.00000000000E+00 0. -1.
         11    1    3    3    0    0  0.84286565159E+00  0.90118457889E+01  0.66712542371E+01  0.11244083795E+02  0.51100000000E-03 0. -1.
        -11    1    3    3    0    0 -0.44058743334E+01  0.38035454760E+01 -0.10812507815E+02  0.12279617760E+02  0.51100000000E-03 0.  1.
         12    1    3    3    0    0  0.29771902495E+02 -0.14085834922E+02 -0.13975103240E+02  0.35778211724E+02  0.00000000000E+00 0. -1.
</event>
<event>
 7    1  0.3449603E-013  0.5930193E+02  0.7816164E-02  0.1266605E+00
        -11   -1    0    0    0    0  0.00000000000E+00  0.00000000000E+00  0.45593999997E+02  0.45594000000E+02  0.51100000000E-03 0. -1.
         11   -1    0    0    0    0 -0.00000000000E+00 -0.00000000000E+00 -0.45593999997E+02  0.45594000000E+02  0.51100000000E-03 0.  1.
    9900012    2    1    2    0    0  0.11698022788E+02  0.13695747259E+02 -0.26311680106E+02  0.59301925608E+02  0.49999966407E+02 0.  0.
         12    1    1    2    0    0 -0.11698022788E+02 -0.13695747259E+02  0.26311680106E+02  0.31886074392E+02  0.00000000000E+00 0. -1.
         11    1    3    3    0    0  0.68640044830E-01 -0.61523408899E+01  0.33476275261E+01  0.70044714430E+01  0.51100000000E-03 0. -1.
        -11    1    3    3    0    0 -0.39047792754E+01 -0.92102418257E+01 -0.53005558032E+01  0.11321296205E+02  0.51100000000E-03 0.  1.
        -12    1    3    3    0    0  0.15534162018E+02  0.29058329974E+02 -0.24358751829E+02  0.40976157960E+02  0.00000000000E+00 0.  1.
</event>
<event>
 7    1  0.3449603E-013  0.5930194E+02  0.7816164E-02  0.1266605E+00
        -11   -1    0    0    0    0  0.00000000000E+00  0.00000000000E+00  0.45593999997E+02  0.45594000000E+02  0.51100000000E-03 0.  1.
         11   -1    0    0    0    0 -0.00000000000E+00 -0.00000000000E+00 -0.45593999997E+02  0.45594000000E+02  0.51100000000E-03 0. -1.
    9900012    2    1    2    0    0 -0.27815030388E+02  0.59285684162E+01  0.14418632314E+02  0.59301940401E+02  0.49999993386E+02 0.  0.
         12    1    1    2    0    0  0.27815030388E+02 -0.59285684162E+01 -0.14418632314E+02  0.31886059599E+02  0.00000000000E+00 0. -1.
         11    1    3    3    0    0  0.28690489141E+01  0.42317046096E+00 -0.40869899804E+01  0.50113872602E+01  0.51100000000E-03 0. -1.
        -11    1    3    3    0    0 -0.38392519267E+02  0.12302189469E+02  0.11752888861E+02  0.41993568534E+02  0.51100000000E-03 0.  1.
         12    1    3    3    0    0  0.77084399654E+01 -0.67967915143E+01  0.67527334335E+01  0.12296984606E+02  0.00000000000E+00 0. -1.
</event>
<event>
 7    1  0.3449603E-013  0.5930186E+02  0.7816164E-02  0.1266605E+00
        -11   -1    0    0    0    0  0.00000000000E+00  0.00000000000E+00  0.45593999997E+02  0.45594000000E+02  0.51100000000E-03 0. -1.
         11   -1    0    0    0    0 -0.00000000000E+00 -0.00000000000E+00 -0.45593999997E+02  0.45594000000E+02  0.51100000000E-03 0.  1.
    9900012    2    1    2    0    0 -0.20338121023E+02  0.22301582068E+02 -0.10282330931E+02  0.59301857887E+02  0.49999842900E+02 0.  0.
         12    1    1    2    0    0  0.20338121023E+02 -0.22301582068E+02  0.10282330931E+02  0.31886142113E+02  0.00000000000E+00 0. -1.
         11    1    3    3    0    0 -0.95790891716E+01  0.10651047498E+02  0.94508674041E+01  0.17161662423E+02  0.51100000000E-03 0. -1.
        -11    1    3    3    0    0 -0.15454314279E+02  0.13389354155E+02  0.13291499531E+01  0.20490907115E+02  0.51100000000E-03 0.  1.
        -12    1    3    3    0    0  0.46952824273E+01 -0.17388195850E+01 -0.21062348289E+02  0.21649288350E+02  0.00000000000E+00 0.  1.
</event>
<event>
 7    1  0.3449603E-013  0.5930194E+02  0.7816164E-02  0.1266605E+00
        -11   -1    0    0    0    0  0.00000000000E+00  0.00000000000E+00  0.45593999997E+02  0.45594000000E+02  0.51100000000E-03 0. -1.
         11   -1    0    0    0    0 -0.00000000000E+00 -0.00000000000E+00 -0.45593999997E+02  0.45594000000E+02  0.51100000000E-03 0.  1.
    9900012    2    1    2    0    0  0.28286390196E+02  0.10589246827E+02 -0.10221002824E+02  0.59301938509E+02  0.49999989936E+02 0.  0.
         12    1    1    2    0    0 -0.28286390196E+02 -0.10589246827E+02  0.10221002824E+02  0.31886061491E+02  0.00000000000E+00 0. -1.
         11    1    3    3    0    0 -0.14452673169E+01 -0.77375344999E+00  0.27700085626E+01  0.32187636938E+01  0.51100000000E-03 0. -1.
        -11    1    3    3    0    0 -0.56922661189E+01 -0.10817613311E+02  0.29414899020E+00  0.12227394457E+02  0.51100000000E-03 0.  1.
        -12    1    3    3    0    0  0.35423923632E+02  0.22180613588E+02 -0.13285160377E+02  0.43855780358E+02  0.00000000000E+00 0.  1.
</event>
<event>
 7    1  0.3449603E-013  0.5930191E+02  0.7816164E-02  0.1266605E+00
        -11   -1    0    0    0    0  0.00000000000E+00  0.00000000000E+00  0.45593999997E+02  0.45594000000E+02  0.51100000000E-03 0.  1.
         11   -1    0    0    0    0 -0.00000000000E+00 -0.00000000000E+00 -0.45593999997E+02  0.45594000000E+02  0.51100000000E-03 0. -1.
    9900012    2    1    2    0    0 -0.95517594710E+01 -0.29905367836E+02  0.55817146701E+01  0.59301910979E+02  0.49999939726E+02 0.  0.
         12    1    1    2    0    0  0.95517594710E+01  0.29905367836E+02 -0.55817146701E+01  0.31886089021E+02  0.00000000000E+00 0. -1.
         11    1    3    3    0    0  0.51475287733E+01  0.49163396320E+01 -0.33228969137E+01  0.78555134784E+01  0.51100000000E-03 0. -1.
        -11    1    3    3    0    0 -0.25155803078E+02 -0.29695972515E+02  0.54425147837E+01  0.39297406779E+02  0.51100000000E-03 0.  1.
         12    1    3    3    0    0  0.10456514834E+02 -0.51257349538E+01  0.34620968001E+01  0.12148990721E+02  0.00000000000E+00 0. -1.
</event>
<event>
 7    1  0.3449603E-013  0.5930194E+02  0.7816164E-02  0.1266605E+00
        -11   -1    0    0    0    0  0.00000000000E+00  0.00000000000E+00  0.45593999997E+02  0.45594000000E+02  0.51100000000E-03 0.  1.
         11   -1    0    0    0    0 -0.00000000000E+00 -0.00000000000E+00 -0.45593999997E+02  0.45594000000E+02  0.51100000000E-03 0. -1.
    9900012    2    1    2    0    0  0.27009021409E+02  0.11852673198E+02  0.12113951378E+02  0.59301938509E+02  0.49999989936E+02 0.  0.
         12    1    1    2    0    0 -0.27009021409E+02 -0.11852673198E+02 -0.12113951378E+02  0.31886061491E+02  0.00000000000E+00 0. -1.
         11    1    3    3    0    0 -0.87400217228E+01  0.10867908559E+01  0.77391668823E+01  0.11724495655E+02  0.51100000000E-03 0. -1.
        -11    1    3    3    0    0  0.16425341234E+01 -0.19929114147E+01 -0.85541690313E+01  0.89355146651E+01  0.51100000000E-03 0.  1.
        -12    1    3    3    0    0  0.34106509008E+02  0.12758793757E+02  0.12928953527E+02  0.38641928189E+02  0.00000000000E+00 0.  1.
</event>
<event>
 7    1  0.3449603E-013  0.5930197E+02  0.7816164E-02  0.1266605E+00
        -11   -1    0    0    0    0  0.00000000000E+00  0.00000000000E+00  0.45593999997E+02  0.45594000000E+02  0.51100000000E-03 0.  1.
         11   -1    0    0    0    0 -0.00000000000E+00 -0.00000000000E+00 -0.45593999997E+02  0.45594000000E+02  0.51100000000E-03 0. -1.
    9900012    2    1    2    0    0  0.22082340135E+02 -0.45376965785E+01  0.22549912609E+02  0.59301968657E+02  0.50000044919E+02 0.  0.
         12    1    1    2    0    0 -0.22082340135E+02  0.45376965785E+01 -0.22549912609E+02  0.31886031343E+02  0.00000000000E+00 0. -1.
         11    1    3    3    0    0 -0.57847284487E+01  0.71408221857E+01  0.15039448668E+02  0.17624966417E+02  0.51100000000E-03 0. -1.
        -11    1    3    3    0    0  0.47548760847E+01 -0.10483061403E+02  0.13529753894E+02  0.17763942796E+02  0.51100000000E-03 0.  1.
        -12    1    3    3    0    0  0.23112192499E+02 -0.11954573614E+01 -0.60192899531E+01  0.23913059444E+02  0.00000000000E+00 0.  1.
</event>
<event>
 7    1  0.3449603E-013  0.5930195E+02  0.7816164E-02  0.1266605E+00
        -11   -1    0    0    0    0  0.00000000000E+00  0.00000000000E+00  0.45593999997E+02  0.45594000000E+02  0.51100000000E-03 0.  1.
         11   -1    0    0    0    0 -0.00000000000E+00 -0.00000000000E+00 -0.45593999997E+02  0.45594000000E+02  0.51100000000E-03 0. -1.
    9900012    2    1    2    0    0  0.26502332587E+02 -0.14743097946E+02 -0.98482165181E+01  0.59301953865E+02  0.50000017940E+02 0.  0.
         12    1    1    2    0    0 -0.26502332587E+02  0.14743097946E+02  0.98482165181E+01  0.31886046135E+02  0.00000000000E+00 0. -1.
         11    1    3    3    0    0  0.79021640697E+01  0.26054991912E+01 -0.83926354052E+01  0.11818170431E+02  0.51100000000E-03 0. -1.
        -11    1    3    3    0    0  0.14201291245E+02 -0.22883251363E+01 -0.19075337467E+02  0.23891036074E+02  0.51100000000E-03 0.  1.
        -12    1    3    3    0    0  0.43988772723E+01 -0.15060272000E+02  0.17619756355E+02  0.23592747360E+02  0.00000000000E+00 0.  1.
</event>
<event>
 7    1  0.3449603E-013  0.5930193E+02  0.7816164E-02  0.1266605E+00
        -11   -1    0    0    0    0  0.00000000000E+00  0.00000000000E+00  0.45593999997E+02  0.45594000000E+02  0.51100000000E-03 0.  1.
         11   -1    0    0    0    0 -0.00000000000E+00 -0.00000000000E+00 -0.45593999997E+02  0.45594000000E+02  0.51100000000E-03 0. -1.
    9900012    2    1    2    0    0  0.30827423462E+02 -0.70376315064E+01 -0.41064498095E+01  0.59301933693E+02  0.49999981151E+02 0.  0.
         12    1    1    2    0    0 -0.30827423462E+02  0.70376315064E+01  0.41064498095E+01  0.31886066307E+02  0.00000000000E+00 0. -1.
         11    1    3    3    0    0  0.16546843838E+02 -0.66080827229E+01 -0.12480815046E+02  0.21753977630E+02  0.51100000000E-03 0. -1.
        -11    1    3    3    0    0  0.14860479305E+02 -0.15525004444E+02  0.46223701667E+01  0.21982400105E+02  0.51100000000E-03 0.  1.
        -12    1    3    3    0    0 -0.57989968086E+00  0.15095455661E+02  0.37519950702E+01  0.15565555957E+02  0.00000000000E+00 0.  1.
</event>
<event>
 7    1  0.3449603E-013  0.5930195E+02  0.7816164E-02  0.1266605E+00
        -11   -1    0    0    0    0  0.00000000000E+00  0.00000000000E+00  0.45593999997E+02  0.45594000000E+02  0.51100000000E-03 0.  1.
         11   -1    0    0    0    0 -0.00000000000E+00 -0.00000000000E+00 -0.45593999997E+02  0.45594000000E+02  0.51100000000E-03 0. -1.
    9900012    2    1    2    0    0  0.27832170096E+01 -0.24661634602E+02  0.20019437638E+02  0.59301946598E+02  0.50000004688E+02 0.  0.
         12    1    1    2    0    0 -0.27832170096E+01  0.24661634602E+02 -0.20019437638E+02  0.31886053402E+02  0.00000000000E+00 0. -1.
         11    1    3    3    0    0 -0.48890133193E+01 -0.11805228379E+02  0.27849478215E+02  0.30640811109E+02  0.51100000000E-03 0. -1.
        -11    1    3    3    0    0  0.20828347354E+01 -0.39394752873E+01  0.82889212839E+01  0.94108385591E+01  0.51100000000E-03 0.  1.
         12    1    3    3    0    0  0.55893955934E+01 -0.89169309362E+01 -0.16118961861E+02  0.19250296930E+02  0.00000000000E+00 0. -1.
</event>
<event>
 7    1  0.3449603E-013  0.5930195E+02  0.7816164E-02  0.1266605E+00
        -11   -1    0    0    0    0  0.00000000000E+00  0.00000000000E+00  0.45593999997E+02  0.45594000000E+02  0.51100000000E-03 0. -1.
         11   -1    0    0    0    0 -0.00000000000E+00 -0.00000000000E+00 -0.45593999997E+02  0.45594000000E+02  0.51100000000E-03 0.  1.
    9900012    2    1    2    0    0  0.24289113049E+01  0.15950114108E+02 -0.27502986988E+02  0.59301952214E+02  0.50000014929E+02 0.  0.
         12    1    1    2    0    0 -0.24289113049E+01 -0.15950114108E+02  0.27502986988E+02  0.31886047786E+02  0.00000000000E+00 0. -1.
         11    1    3    3    0    0  0.16551842392E+02  0.24639576468E+02 -0.20470531174E+02  0.36057105567E+02  0.51100000000E-03 0.  1.
        -11    1    3    3    0    0 -0.34111576368E+01  0.41251658162E+01 -0.77270993381E+00  0.54083334159E+01  0.51100000000E-03 0. -1.
        -12    1    3    3    0    0 -0.10711773450E+02 -0.12814628176E+02 -0.62597458802E+01  0.17836513231E+02  0.00000000000E+00 0.  1.
</event>
<event>
 7    1  0.3449603E-013  0.5930195E+02  0.7816164E-02  0.1266605E+00
        -11   -1    0    0    0    0  0.00000000000E+00  0.00000000000E+00  0.45593999997E+02  0.45594000000E+02  0.51100000000E-03 0.  1.
         11   -1    0    0    0    0 -0.00000000000E+00 -0.00000000000E+00 -0.45593999997E+02  0.45594000000E+02  0.51100000000E-03 0. -1.
    9900012    2    1    2    0    0  0.67152405846E+01  0.28542667116E+02  0.12527633658E+02  0.59301954348E+02  0.50000018823E+02 0.  0.
         12    1    1    2    0    0 -0.67152405846E+01 -0.28542667116E+02 -0.12527633658E+02  0.31886045652E+02  0.00000000000E+00 0. -1.
         11    1    3    3    0    0  0.59401909632E+01  0.37606181170E+01  0.88509262217E+01  0.11303407121E+02  0.51100000000E-03 0.  1.
        -11    1    3    3    0    0 -0.54534897890E+01  0.26761614919E+02 -0.12881668989E+02  0.30197052508E+02  0.51100000000E-03 0. -1.
         12    1    3    3    0    0  0.62285394105E+01 -0.19795659200E+01  0.16558376425E+02  0.17801494719E+02  0.00000000000E+00 0. -1.
</event>
<event>
 7    1  0.3449603E-013  0.5930194E+02  0.7816164E-02  0.1266605E+00
        -11   -1    0    0    0    0  0.00000000000E+00  0.00000000000E+00  0.45593999997E+02  0.45594000000E+02  0.51100000000E-03 0.  1.
         11   -1    0    0    0    0 -0.00000000000E+00 -0.00000000000E+00 -0.45593999997E+02  0.45594000000E+02  0.51100000000E-03 0. -1.
    9900012    2    1    2    0    0  0.18729019941E+02 -0.23687435731E+02  0.10239621171E+02  0.59301942840E+02  0.49999997835E+02 0.  0.
         12    1    1    2    0    0 -0.18729019941E+02  0.23687435731E+02 -0.10239621171E+02  0.31886057160E+02  0.00000000000E+00 0. -1.
         11    1    3    3    0    0  0.12011939012E+02 -0.20600034186E+02  0.55570685944E+00  0.23852817395E+02  0.51100000000E-03 0.  1.
        -11    1    3    3    0    0  0.15548680671E+02 -0.10791700768E+02 -0.18359557784E+01  0.19015599122E+02  0.51100000000E-03 0. -1.
         12    1    3    3    0    0 -0.88315997426E+01  0.77042992235E+01  0.11519870090E+02  0.16433526324E+02  0.00000000000E+00 0. -1.
</event>
<event>
 7    1  0.3449603E-013  0.5930193E+02  0.7816164E-02  0.1266605E+00
        -11   -1    0    0    0    0  0.00000000000E+00  0.00000000000E+00  0.45593999997E+02  0.45594000000E+02  0.51100000000E-03 0. -1.
         11   -1    0    0    0    0 -0.00000000000E+00 -0.00000000000E+00 -0.45593999997E+02  0.45594000000E+02  0.51100000000E-03 0.  1.
    9900012    2    1    2    0    0  0.21197361257E+02 -0.50015542378E+01 -0.23289011804E+02  0.59301925612E+02  0.49999966415E+02 0.  0.
         12    1    1    2    0    0 -0.21197361257E+02  0.50015542378E+01  0.23289011804E+02  0.31886074388E+02  0.00000000000E+00 0. -1.
         11    1    3    3    0    0  0.42332880993E+01 -0.10552775004E+02  0.20106716286E+01  0.11546626740E+02  0.51100000000E-03 0. -1.
        -11    1    3    3    0    0  0.24860325035E+02 -0.64031551540E+00 -0.53694662773E+01  0.25441637785E+02  0.51100000000E-03 0.  1.
         12    1    3    3    0    0 -0.78962518775E+01  0.61915362819E+01 -0.19930217156E+02  0.22313661087E+02  0.00000000000E+00 0. -1.
</event>
<event>
 7    1  0.3449603E-013  0.5930169E+02  0.7816164E-02  0.1266606E+00
        -11   -1    0    0    0    0  0.00000000000E+00  0.00000000000E+00  0.45593999997E+02  0.45594000000E+02  0.51100000000E-03 0.  1.
         11   -1    0    0    0    0 -0.00000000000E+00 -0.00000000000E+00 -0.45593999997E+02  0.45594000000E+02  0.51100000000E-03 0. -1.
    9900012    2    1    2    0    0 -0.69540343678E+01 -0.24045994721E+02  0.19752684333E+02  0.59301686408E+02  0.49999530161E+02 0.  0.
         12    1    1    2    0    0  0.69540343678E+01  0.24045994721E+02 -0.19752684333E+02  0.31886313592E+02  0.00000000000E+00 0. -1.
         11    1    3    3    0    0  0.13028465224E+02 -0.18492244010E+02  0.25543269273E+02  0.34119827081E+02  0.51100000000E-03 0.  1.
        -11    1    3    3    0    0 -0.15566853476E+02 -0.21695259509E+01  0.17463471793E+01  0.15814028542E+02  0.51100000000E-03 0. -1.
        -12    1    3    3    0    0 -0.44156461160E+01 -0.33842247608E+01 -0.75369321191E+01  0.93678307853E+01  0.00000000000E+00 0.  1.
</event>
<event>
 7    1  0.3449603E-013  0.5930193E+02  0.7816164E-02  0.1266605E+00
        -11   -1    0    0    0    0  0.00000000000E+00  0.00000000000E+00  0.45593999997E+02  0.45594000000E+02  0.51100000000E-03 0.  1.
         11   -1    0    0    0    0 -0.00000000000E+00 -0.00000000000E+00 -0.45593999997E+02  0.45594000000E+02  0.51100000000E-03 0. -1.
    9900012    2    1    2    0    0 -0.15967648991E+02 -0.14363010679E+02  0.23568192336E+02  0.59301928118E+02  0.49999970984E+02 0.  0.
         12    1    1    2    0    0  0.15967648991E+02  0.14363010679E+02 -0.23568192336E+02  0.31886071882E+02  0.00000000000E+00 0. -1.
         11    1    3    3    0    0 -0.15217368174E+02  0.75173785934E+01  0.19168066583E+01  0.17080791056E+02  0.51100000000E-03 0. -1.
        -11    1    3    3    0    0 -0.72652530730E+01 -0.40651523309E+00 -0.38662270832E+01  0.82399556413E+01  0.51100000000E-03 0.  1.
        -12    1    3    3    0    0  0.65149722556E+01 -0.21473874039E+02  0.25517612761E+02  0.33981181421E+02  0.00000000000E+00 0.  1.
</event>
<event>
 7    1  0.3449603E-013  0.5930195E+02  0.7816164E-02  0.1266605E+00
        -11   -1    0    0    0    0  0.00000000000E+00  0.00000000000E+00  0.45593999997E+02  0.45594000000E+02  0.51100000000E-03 0.  1.
         11   -1    0    0    0    0 -0.00000000000E+00 -0.00000000000E+00 -0.45593999997E+02  0.45594000000E+02  0.51100000000E-03 0. -1.
    9900012    2    1    2    0    0  0.19263539256E+02  0.19501307053E+02  0.16289121286E+02  0.59301946721E+02  0.50000004912E+02 0.  0.
         12    1    1    2    0    0 -0.19263539256E+02 -0.19501307053E+02 -0.16289121286E+02  0.31886053279E+02  0.00000000000E+00 0. -1.
         11    1    3    3    0    0 -0.13426402731E+02  0.13434421674E+02  0.35286689679E+01  0.19318475120E+02  0.51100000000E-03 0. -1.
        -11    1    3    3    0    0  0.18229870829E+02  0.90705927799E+01 -0.15733832700E+00  0.20362431079E+02  0.51100000000E-03 0.  1.
        -12    1    3    3    0    0  0.14460071158E+02 -0.30037074007E+01  0.12917790645E+02  0.19621040522E+02  0.00000000000E+00 0.  1.
</event>
<event>
 7    1  0.3449603E-013  0.5930193E+02  0.7816164E-02  0.1266605E+00
        -11   -1    0    0    0    0  0.00000000000E+00  0.00000000000E+00  0.45593999997E+02  0.45594000000E+02  0.51100000000E-03 0. -1.
         11   -1    0    0    0    0 -0.00000000000E+00 -0.00000000000E+00 -0.45593999997E+02  0.45594000000E+02  0.51100000000E-03 0.  1.
    9900012    2    1    2    0    0 -0.82723434770E+01  0.86437613033E+01 -0.29556300349E+02  0.59301934605E+02  0.49999982815E+02 0.  0.
         12    1    1    2    0    0  0.82723434770E+01 -0.86437613033E+01  0.29556300349E+02  0.31886065395E+02  0.00000000000E+00 0. -1.
         11    1    3    3    0    0 -0.11530571819E+02  0.16889697903E+02 -0.13258480331E+02  0.24372182559E+02  0.51100000000E-03 0. -1.
        -11    1    3    3    0    0 -0.58748521788E+01  0.70964741812E+01 -0.14234788782E+02  0.16955914775E+02  0.51100000000E-03 0.  1.
         12    1    3    3    0    0  0.91330805212E+01 -0.15342410781E+02 -0.20630312352E+01  0.17973837271E+02  0.00000000000E+00 0. -1.
</event>
<event>
 7    1  0.3449603E-013  0.5930195E+02  0.7816164E-02  0.1266605E+00
        -11   -1    0    0    0    0  0.00000000000E+00  0.00000000000E+00  0.45593999997E+02  0.45594000000E+02  0.51100000000E-03 0. -1.
         11   -1    0    0    0    0 -0.00000000000E+00 -0.00000000000E+00 -0.45593999997E+02  0.45594000000E+02  0.51100000000E-03 0.  1.
    9900012    2    1    2    0    0 -0.15161746016E+02  0.26636654820E+02 -0.87937608286E+01  0.59301950515E+02  0.50000011832E+02 0.  0.
         12    1    1    2    0    0  0.15161746016E+02 -0.26636654820E+02  0.87937608286E+01  0.31886049485E+02  0.00000000000E+00 0. -1.
         11    1    3    3    0    0 -0.12690004368E+02 -0.33428331564E+01 -0.92565127456E+01  0.16059071357E+02  0.51100000000E-03 0. -1.
        -11    1    3    3    0    0 -0.10354979520E+02  0.10531175866E+01  0.70178869086E+01  0.12553302133E+02  0.51100000000E-03 0.  1.
        -12    1    3    3    0    0  0.78832378723E+01  0.28926370390E+02 -0.65551349917E+01  0.30689577026E+02  0.00000000000E+00 0.  1.
</event>
<event>
 7    1  0.3449603E-013  0.5930194E+02  0.7816164E-02  0.1266605E+00
        -11   -1    0    0    0    0  0.00000000000E+00  0.00000000000E+00  0.45593999997E+02  0.45594000000E+02  0.51100000000E-03 0. -1.
         11   -1    0    0    0    0 -0.00000000000E+00 -0.00000000000E+00 -0.45593999997E+02  0.45594000000E+02  0.51100000000E-03 0.  1.
    9900012    2    1    2    0    0  0.20565088585E+01  0.89855568666E+01 -0.30524602344E+02  0.59301940206E+02  0.49999993031E+02 0.  0.
         12    1    1    2    0    0 -0.20565088585E+01 -0.89855568666E+01  0.30524602344E+02  0.31886059794E+02  0.00000000000E+00 0. -1.
         11    1    3    3    0    0  0.17017158177E+02  0.53198334939E+01 -0.14792295968E+02  0.23166707170E+02  0.51100000000E-03 0. -1.
        -11    1    3    3    0    0  0.15532002931E+01 -0.72440917978E+01 -0.14526056903E+02  0.16306306343E+02  0.51100000000E-03 0.  1.
        -12    1    3    3    0    0 -0.16513849612E+02  0.10909815170E+02 -0.12062494733E+01  0.19828926694E+02  0.00000000000E+00 0.  1.
</event>
<event>
 7    1  0.3449603E-013  0.5930191E+02  0.7816164E-02  0.1266605E+00
        -11   -1    0    0    0    0  0.00000000000E+00  0.00000000000E+00  0.45593999997E+02  0.45594000000E+02  0.51100000000E-03 0.  1.
         11   -1    0    0    0    0 -0.00000000000E+00 -0.00000000000E+00 -0.45593999997E+02  0.45594000000E+02  0.51100000000E-03 0. -1.
    9900012    2    1    2    0    0  0.25137411894E+02 -0.17240669730E+02  0.93590829505E+01  0.59301912076E+02  0.49999941727E+02 0.  0.
         12    1    1    2    0    0 -0.25137411894E+02  0.17240669730E+02 -0.93590829505E+01  0.31886087924E+02  0.00000000000E+00 0. -1.
         11    1    3    3    0    0  0.20515829396E+02  0.51841571660E+01 -0.70659738740E+00  0.21172482648E+02  0.51100000000E-03 0. -1.
        -11    1    3    3    0    0 -0.64354280595E+00  0.67329986243E+01  0.40878620352E+01  0.79030395480E+01  0.51100000000E-03 0.  1.
        -12    1    3    3    0    0  0.52651253032E+01 -0.29157825520E+02  0.59778183027E+01  0.30226389880E+02  0.00000000000E+00 0.  1.
</event>
<event>
 7    1  0.3449603E-013  0.5930192E+02  0.7816164E-02  0.1266605E+00
        -11   -1    0    0    0    0  0.00000000000E+00  0.00000000000E+00  0.45593999997E+02  0.45594000000E+02  0.51100000000E-03 0. -1.
         11   -1    0    0    0    0 -0.00000000000E+00 -0.00000000000E+00 -0.45593999997E+02  0.45594000000E+02  0.51100000000E-03 0.  1.
    9900012    2    1    2    0    0  0.24525291525E+02  0.85279097465E+01  0.18506949797E+02  0.59301915891E+02  0.49999948685E+02 0.  0.
         12    1    1    2    0    0 -0.24525291525E+02 -0.85279097465E+01 -0.18506949797E+02  0.31886084109E+02  0.00000000000E+00 0. -1.
         11    1    3    3    0    0 -0.42943164006E+01 -0.10390965253E+01  0.96997935851E+01  0.10658652391E+02  0.51100000000E-03 0. -1.
        -11    1    3    3    0    0 -0.33492381856E+01 -0.27803895063E+01  0.13207482204E+02  0.13906313267E+02  0.51100000000E-03 0.  1.
        -12    1    3    3    0    0  0.32168846112E+02  0.12347395778E+02 -0.44003259927E+01  0.34736950233E+02  0.00000000000E+00 0.  1.
</event>
<event>
 7    1  0.3449603E-013  0.5930197E+02  0.7816164E-02  0.1266605E+00
        -11   -1    0    0    0    0  0.00000000000E+00  0.00000000000E+00  0.45593999997E+02  0.45594000000E+02  0.51100000000E-03 0.  1.
         11   -1    0    0    0    0 -0.00000000000E+00 -0.00000000000E+00 -0.45593999997E+02  0.45594000000E+02  0.51100000000E-03 0. -1.
    9900012    2    1    2    0    0 -0.33412912871E+01 -0.21254340354E+02  0.23533122739E+02  0.59301967365E+02  0.50000042562E+02 0.  0.
         12    1    1    2    0    0  0.33412912871E+01  0.21254340354E+02 -0.23533122739E+02  0.31886032635E+02  0.00000000000E+00 0. -1.
         11    1    3    3    0    0  0.18303955058E+01 -0.11367125453E+02 -0.72694497573E+01  0.13616416151E+02  0.51100000000E-03 0. -1.
        -11    1    3    3    0    0 -0.11684514194E+02 -0.58590947108E+01 -0.87021080556E+00  0.13100157628E+02  0.51100000000E-03 0.  1.
         12    1    3    3    0    0  0.65128274012E+01 -0.40281201904E+01  0.31672783302E+02  0.32585393585E+02  0.00000000000E+00 0. -1.
</event>
<event>
 7    1  0.3449603E-013  0.5930193E+02  0.7816164E-02  0.1266605E+00
        -11   -1    0    0    0    0  0.00000000000E+00  0.00000000000E+00  0.45593999997E+02  0.45594000000E+02  0.51100000000E-03 0. -1.
         11   -1    0    0    0    0 -0.00000000000E+00 -0.00000000000E+00 -0.45593999997E+02  0.45594000000E+02  0.51100000000E-03 0.  1.
    9900012    2    1    2    0    0  0.29931169907E+02  0.66154476245E+01 -0.87796493742E+01  0.59301932158E+02  0.49999978353E+02 0.  0.
         12    1    1    2    0    0 -0.29931169907E+02 -0.66154476245E+01  0.87796493742E+01  0.31886067842E+02  0.00000000000E+00 0. -1.
         11    1    3    3    0    0  0.26895881035E+01  0.84034627393E+01  0.37615360819E+01  0.95917268588E+01  0.51100000000E-03 0. -1.
        -11    1    3    3    0    0 -0.48360854419E+01  0.10802260922E+02  0.25231381061E+01  0.12101354866E+02  0.51100000000E-03 0.  1.
        -12    1    3    3    0    0  0.32077667245E+02 -0.12590276037E+02 -0.15064323562E+02  0.37608850434E+02  0.00000000000E+00 0.  1.
</event>
<event>
 7    1  0.3449603E-013  0.5930192E+02  0.7816164E-02  0.1266605E+00
        -11   -1    0    0    0    0  0.00000000000E+00  0.00000000000E+00  0.45593999997E+02  0.45594000000E+02  0.51100000000E-03 0. -1.
         11   -1    0    0    0    0 -0.00000000000E+00 -0.00000000000E+00 -0.45593999997E+02  0.45594000000E+02  0.51100000000E-03 0.  1.
    9900012    2    1    2    0    0  0.12701569238E+02  0.28901348662E+01 -0.29103935190E+02  0.59301924917E+02  0.49999965147E+02 0.  0.
         12    1    1    2    0    0 -0.12701569238E+02 -0.28901348662E+01  0.29103935190E+02  0.31886075083E+02  0.00000000000E+00 0. -1.
         11    1    3    3    0    0 -0.45105537902E+01 -0.55058622453E-01  0.45554874572E+01  0.64109744329E+01  0.51100000000E-03 0. -1.
        -11    1    3    3    0    0 -0.85915236471E+01 -0.59146600862E+01 -0.12162487408E+01  0.10501273436E+02  0.51100000000E-03 0.  1.
         12    1    3    3    0    0  0.25803646676E+02  0.88598535748E+01 -0.32443173906E+02  0.42389677048E+02  0.00000000000E+00 0. -1.
</event>
<event>
 7    1  0.3449603E-013  0.5930195E+02  0.7816164E-02  0.1266605E+00
        -11   -1    0    0    0    0  0.00000000000E+00  0.00000000000E+00  0.45593999997E+02  0.45594000000E+02  0.51100000000E-03 0. -1.
         11   -1    0    0    0    0 -0.00000000000E+00 -0.00000000000E+00 -0.45593999997E+02  0.45594000000E+02  0.51100000000E-03 0.  1.
    9900012    2    1    2    0    0 -0.11890534933E+02 -0.21113172224E+02 -0.20726058476E+02  0.59301947214E+02  0.50000005810E+02 0.  0.
         12    1    1    2    0    0  0.11890534933E+02  0.21113172224E+02  0.20726058476E+02  0.31886052786E+02  0.00000000000E+00 0. -1.
         11    1    3    3    0    0  0.80543320807E+01  0.46793110578E+01 -0.11565926855E+02  0.14850551556E+02  0.51100000000E-03 0. -1.
        -11    1    3    3    0    0 -0.11273865870E+01  0.24480088921E+01 -0.10149663705E+02  0.10501400937E+02  0.51100000000E-03 0.  1.
         12    1    3    3    0    0 -0.18817480427E+02 -0.28240492173E+02  0.98953208329E+00  0.33949994721E+02  0.00000000000E+00 0. -1.
</event>
<event>
 7    1  0.3449603E-013  0.5930163E+02  0.7816164E-02  0.1266606E+00
        -11   -1    0    0    0    0  0.00000000000E+00  0.00000000000E+00  0.45593999997E+02  0.45594000000E+02  0.51100000000E-03 0. -1.
         11   -1    0    0    0    0 -0.00000000000E+00 -0.00000000000E+00 -0.45593999997E+02  0.45594000000E+02  0.51100000000E-03 0.  1.
    9900012    2    1    2    0    0  0.20151362782E+02  0.10463096922E+02 -0.22387203764E+02  0.59301628122E+02  0.49999423860E+02 0.  0.
         12    1    1    2    0    0 -0.20151362782E+02 -0.10463096922E+02  0.22387203764E+02  0.31886371878E+02  0.00000000000E+00 0. -1.
         11    1    3    3    0    0  0.20904724488E+02  0.19018918708E+02  0.11427139228E+01  0.28284847005E+02  0.51100000000E-03 0. -1.
        -11    1    3    3    0    0  0.80557550699E+01 -0.32434589451E+01 -0.55625425948E+01  0.10312957677E+02  0.51100000000E-03 0.  1.
        -12    1    3    3    0    0 -0.88091167754E+01 -0.53123628407E+01 -0.17967375092E+02  0.20703823440E+02  0.00000000000E+00 0.  1.
</event>
<event>
 7    1  0.3449603E-013  0.5930193E+02  0.7816164E-02  0.1266605E+00
        -11   -1    0    0    0    0  0.00000000000E+00  0.00000000000E+00  0.45593999997E+02  0.45594000000E+02  0.51100000000E-03 0.  1.
         11   -1    0    0    0    0 -0.00000000000E+00 -0.00000000000E+00 -0.45593999997E+02  0.45594000000E+02  0.51100000000E-03 0. -1.
    9900012    2    1    2    0    0 -0.79839312221E+01 -0.18982704815E+02  0.24344103811E+02  0.59301927332E+02  0.49999969550E+02 0.  0.
         12    1    1    2    0    0  0.79839312221E+01  0.18982704815E+02 -0.24344103811E+02  0.31886072668E+02  0.00000000000E+00 0. -1.
         11    1    3    3    0    0  0.72506343993E+01 -0.13531441038E+01 -0.43216439031E+00  0.73884683446E+01  0.51100000000E-03 0. -1.
        -11    1    3    3    0    0  0.11417591838E+02  0.14480529709E+01  0.12689954843E+01  0.11578800049E+02  0.51100000000E-03 0.  1.
        -12    1    3    3    0    0 -0.26652157459E+02 -0.19077613682E+02  0.23507272717E+02  0.40334658938E+02  0.00000000000E+00 0.  1.
</event>
<event>
 7    1  0.3449603E-013  0.5930196E+02  0.7816164E-02  0.1266605E+00
        -11   -1    0    0    0    0  0.00000000000E+00  0.00000000000E+00  0.45593999997E+02  0.45594000000E+02  0.51100000000E-03 0.  1.
         11   -1    0    0    0    0 -0.00000000000E+00 -0.00000000000E+00 -0.45593999997E+02  0.45594000000E+02  0.51100000000E-03 0. -1.
    9900012    2    1    2    0    0 -0.57147616369E+01  0.31274047187E+02  0.24484289854E+01  0.59301963362E+02  0.50000035260E+02 0.  0.
         12    1    1    2    0    0  0.57147616369E+01 -0.31274047187E+02 -0.24484289854E+01  0.31886036638E+02  0.00000000000E+00 0. -1.
         11    1    3    3    0    0 -0.13328184142E+02  0.97112788394E+01  0.51539148320E+01  0.17277507563E+02  0.51100000000E-03 0. -1.
        -11    1    3    3    0    0 -0.10738519749E+02  0.16317642579E+02  0.68230458823E+01  0.20691428687E+02  0.51100000000E-03 0.  1.
        -12    1    3    3    0    0  0.18351942255E+02  0.52451257687E+01 -0.95285317289E+01  0.21333027112E+02  0.00000000000E+00 0.  1.
</event>
<event>
 7    1  0.3449603E-013  0.5930195E+02  0.7816164E-02  0.1266605E+00
        -11   -1    0    0    0    0  0.00000000000E+00  0.00000000000E+00  0.45593999997E+02  0.45594000000E+02  0.51100000000E-03 0.  1.
         11   -1    0    0    0    0 -0.00000000000E+00 -0.00000000000E+00 -0.45593999997E+02  0.45594000000E+02  0.51100000000E-03 0. -1.
    9900012    2    1    2    0    0 -0.13774758153E+02 -0.11080720255E+02  0.26536649896E+02  0.59301951150E+02  0.50000012990E+02 0.  0.
         12    1    1    2    0    0  0.13774758153E+02  0.11080720255E+02 -0.26536649896E+02  0.31886048850E+02  0.00000000000E+00 0. -1.
         11    1    3    3    0    0 -0.21037709268E+01 -0.21776403457E+01  0.27792441372E+01  0.41100082509E+01  0.51100000000E-03 0. -1.
        -11    1    3    3    0    0 -0.17103017166E+02 -0.19051417786E+00  0.35613649753E+02  0.39507993379E+02  0.51100000000E-03 0.  1.
         12    1    3    3    0    0  0.54320299397E+01 -0.87125657317E+01 -0.11856243995E+02  0.15683949520E+02  0.00000000000E+00 0. -1.
</event>
<event>
 7    1  0.3449603E-013  0.5930194E+02  0.7816164E-02  0.1266605E+00
        -11   -1    0    0    0    0  0.00000000000E+00  0.00000000000E+00  0.45593999997E+02  0.45594000000E+02  0.51100000000E-03 0.  1.
         11   -1    0    0    0    0 -0.00000000000E+00 -0.00000000000E+00 -0.45593999997E+02  0.45594000000E+02  0.51100000000E-03 0. -1.
    9900012    2    1    2    0    0  0.13716917314E+02  0.25765643923E+02  0.12833500766E+02  0.59301937696E+02  0.49999988452E+02 0.  0.
         12    1    1    2    0    0 -0.13716917314E+02 -0.25765643923E+02 -0.12833500766E+02  0.31886062304E+02  0.00000000000E+00 0. -1.
         11    1    3    3    0    0 -0.11708922677E+02  0.17681316579E+02  0.48444833051E+01  0.21753088171E+02  0.51100000000E-03 0. -1.
        -11    1    3    3    0    0  0.65594097753E-01 -0.25644608104E+01  0.96581234014E+01  0.99930030388E+01  0.51100000000E-03 0.  1.
        -12    1    3    3    0    0  0.25360245893E+02  0.10648788155E+02 -0.16691059406E+01  0.27555846486E+02  0.00000000000E+00 0.  1.
</event>
<event>
 7    1  0.3449603E-013  0.5930194E+02  0.7816164E-02  0.1266605E+00
        -11   -1    0    0    0    0  0.00000000000E+00  0.00000000000E+00  0.45593999997E+02  0.45594000000E+02  0.51100000000E-03 0.  1.
         11   -1    0    0    0    0 -0.00000000000E+00 -0.00000000000E+00 -0.45593999997E+02  0.45594000000E+02  0.51100000000E-03 0. -1.
    9900012    2    1    2    0    0  0.25204833916E+02 -0.19529968429E+02  0.13238561229E+00  0.59301939636E+02  0.49999991991E+02 0.  0.
         12    1    1    2    0    0 -0.25204833916E+02  0.19529968429E+02 -0.13238561229E+00  0.31886060364E+02  0.00000000000E+00 0. -1.
         11    1    3    3    0    0 -0.79382659402E+01 -0.45352478263E+01 -0.44190774633E+01  0.10154446557E+02  0.51100000000E-03 0. -1.
        -11    1    3    3    0    0  0.45905149722E+00  0.34227364475E+01  0.10598812640E+02  0.11147227580E+02  0.51100000000E-03 0.  1.
        -12    1    3    3    0    0  0.32684048359E+02 -0.18417457050E+02 -0.60473495648E+01  0.38000265500E+02  0.00000000000E+00 0.  1.
</event>
<event>
 7    1  0.3449603E-013  0.5930197E+02  0.7816164E-02  0.1266605E+00
        -11   -1    0    0    0    0  0.00000000000E+00  0.00000000000E+00  0.45593999997E+02  0.45594000000E+02  0.51100000000E-03 0. -1.
         11   -1    0    0    0    0 -0.00000000000E+00 -0.00000000000E+00 -0.45593999997E+02  0.45594000000E+02  0.51100000000E-03 0.  1.
    9900012    2    1    2    0    0  0.25231519325E+02 -0.18667953021E+02  0.56211032218E+01  0.59301971102E+02  0.50000049377E+02 0.  0.
         12    1    1    2    0    0 -0.25231519325E+02  0.18667953021E+02 -0.56211032218E+01  0.31886028898E+02  0.00000000000E+00 0. -1.
         11    1    3    3    0    0  0.99209031112E+01 -0.63838954172E+01 -0.12896493564E+02  0.17478500673E+02  0.51100000000E-03 0.  1.
        -11    1    3    3    0    0  0.11361115374E+02 -0.19080246878E+02  0.55185241441E+00  0.22213403719E+02  0.51100000000E-03 0. -1.
         12    1    3    3    0    0  0.39495008403E+01  0.67961892740E+01  0.17965744372E+02  0.19610066710E+02  0.00000000000E+00 0. -1.
</event>
<event>
 7    1  0.3449603E-013  0.5930198E+02  0.7816164E-02  0.1266605E+00
        -11   -1    0    0    0    0  0.00000000000E+00  0.00000000000E+00  0.45593999997E+02  0.45594000000E+02  0.51100000000E-03 0.  1.
         11   -1    0    0    0    0 -0.00000000000E+00 -0.00000000000E+00 -0.45593999997E+02  0.45594000000E+02  0.51100000000E-03 0. -1.
    9900012    2    1    2    0    0  0.15817745350E+02  0.12215607588E+02  0.24845440257E+02  0.59301983657E+02  0.50000072273E+02 0.  0.
         12    1    1    2    0    0 -0.15817745350E+02 -0.12215607588E+02 -0.24845440257E+02  0.31886016343E+02  0.00000000000E+00 0. -1.
         11    1    3    3    0    0 -0.11819634346E+02 -0.11171297893E+02  0.11905472855E+02  0.20155444348E+02  0.51100000000E-03 0.  1.
        -11    1    3    3    0    0  0.10523060535E+01  0.36831919702E+01  0.91300249545E+00  0.39378706095E+01  0.51100000000E-03 0. -1.
        -12    1    3    3    0    0  0.26585073643E+02  0.19703713511E+02  0.12026964906E+02  0.35208668699E+02  0.00000000000E+00 0.  1.
</event>
<event>
 7    1  0.3449603E-013  0.5930195E+02  0.7816164E-02  0.1266605E+00
        -11   -1    0    0    0    0  0.00000000000E+00  0.00000000000E+00  0.45593999997E+02  0.45594000000E+02  0.51100000000E-03 0. -1.
         11   -1    0    0    0    0 -0.00000000000E+00 -0.00000000000E+00 -0.45593999997E+02  0.45594000000E+02  0.51100000000E-03 0.  1.
    9900012    2    1    2    0    0  0.28881568197E+02  0.13028486708E+02 -0.35824454992E+01  0.59301947200E+02  0.50000005785E+02 0.  0.
         12    1    1    2    0    0 -0.28881568197E+02 -0.13028486708E+02  0.35824454992E+01  0.31886052800E+02  0.00000000000E+00 0. -1.
         11    1    3    3    0    0  0.15302719454E+01 -0.42800400740E+01 -0.99854342978E+01  0.10971297719E+02  0.51100000000E-03 0.  1.
        -11    1    3    3    0    0  0.23917106680E-01  0.65049359217E+01 -0.12006073053E+02  0.13655055979E+02  0.51100000000E-03 0. -1.
         12    1    3    3    0    0  0.27327379145E+02  0.10803590860E+02  0.18409061852E+02  0.34675593502E+02  0.00000000000E+00 0. -1.
</event>
<event>
 7    1  0.3449603E-013  0.5930167E+02  0.7816164E-02  0.1266606E+00
        -11   -1    0    0    0    0  0.00000000000E+00  0.00000000000E+00  0.45593999997E+02  0.45594000000E+02  0.51100000000E-03 0. -1.
         11   -1    0    0    0    0 -0.00000000000E+00 -0.00000000000E+00 -0.45593999997E+02  0.45594000000E+02  0.51100000000E-03 0.  1.
    9900012    2    1    2    0    0 -0.31097468265E+02 -0.44789270978E+01 -0.54428797745E+01  0.59301666553E+02  0.49999493950E+02 0.  0.
         12    1    1    2    0    0  0.31097468265E+02  0.44789270978E+01  0.54428797745E+01  0.31886333447E+02  0.00000000000E+00 0. -1.
         11    1    3    3    0    0 -0.12520840039E+02  0.67924425809E+01 -0.85271250416E+01  0.16601824395E+02  0.51100000000E-03 0. -1.
        -11    1    3    3    0    0  0.98726931512E+01  0.41864880116E+00  0.63863297054E+01  0.11765651034E+02  0.51100000000E-03 0.  1.
        -12    1    3    3    0    0 -0.28449321378E+02 -0.11690018480E+02 -0.33020844383E+01  0.30934191125E+02  0.00000000000E+00 0.  1.
</event>
<event>
 7    1  0.3449603E-013  0.5930194E+02  0.7816164E-02  0.1266605E+00
        -11   -1    0    0    0    0  0.00000000000E+00  0.00000000000E+00  0.45593999997E+02  0.45594000000E+02  0.51100000000E-03 0. -1.
         11   -1    0    0    0    0 -0.00000000000E+00 -0.00000000000E+00 -0.45593999997E+02  0.45594000000E+02  0.51100000000E-03 0.  1.
    9900012    2    1    2    0    0 -0.31334959491E+02 -0.44630942852E+01 -0.38628886018E+01  0.59301940267E+02  0.49999993142E+02 0.  0.
         12    1    1    2    0    0  0.31334959491E+02  0.44630942852E+01  0.38628886018E+01  0.31886059733E+02  0.00000000000E+00 0. -1.
         11    1    3    3    0    0 -0.21352279188E+02  0.14175304296E+02  0.28725966118E+00  0.25630871947E+02  0.51100000000E-03 0. -1.
        -11    1    3    3    0    0 -0.97093287207E+01  0.41967274335E+01 -0.12842948517E+01  0.10655186478E+02  0.51100000000E-03 0.  1.
         12    1    3    3    0    0 -0.27335158238E+00 -0.22835126014E+02 -0.28658534112E+01  0.23015881842E+02  0.00000000000E+00 0. -1.
</event>
<event>
 7    1  0.3449603E-013  0.5930194E+02  0.7816164E-02  0.1266605E+00
        -11   -1    0    0    0    0  0.00000000000E+00  0.00000000000E+00  0.45593999997E+02  0.45594000000E+02  0.51100000000E-03 0.  1.
         11   -1    0    0    0    0 -0.00000000000E+00 -0.00000000000E+00 -0.45593999997E+02  0.45594000000E+02  0.51100000000E-03 0. -1.
    9900012    2    1    2    0    0 -0.13322706193E+02 -0.55452574605E+01  0.28433723371E+02  0.59301937131E+02  0.49999987421E+02 0.  0.
         12    1    1    2    0    0  0.13322706193E+02  0.55452574605E+01 -0.28433723371E+02  0.31886062869E+02  0.00000000000E+00 0. -1.
         11    1    3    3    0    0 -0.11255023833E+02 -0.33539479220E+01  0.49163547966E+01  0.12731656329E+02  0.51100000000E-03 0. -1.
        -11    1    3    3    0    0 -0.20969416067E+02  0.80645521704E+00  0.10895037415E+02  0.23644631965E+02  0.51100000000E-03 0.  1.
         12    1    3    3    0    0  0.18901733707E+02 -0.29977647556E+01  0.12622331159E+02  0.22925648836E+02  0.00000000000E+00 0. -1.
</event>
<event>
 7    1  0.3449603E-013  0.5930195E+02  0.7816164E-02  0.1266605E+00
        -11   -1    0    0    0    0  0.00000000000E+00  0.00000000000E+00  0.45593999997E+02  0.45594000000E+02  0.51100000000E-03 0. -1.
         11   -1    0    0    0    0 -0.00000000000E+00 -0.00000000000E+00 -0.45593999997E+02  0.45594000000E+02  0.51100000000E-03 0.  1.
    9900012    2    1    2    0    0  0.13937479281E+02  0.49200275740E+01 -0.28253502255E+02  0.59301946783E+02  0.50000005026E+02 0.  0.
         12    1    1    2    0    0 -0.13937479281E+02 -0.49200275740E+01  0.28253502255E+02  0.31886053217E+02  0.00000000000E+00 0. -1.
         11    1    3    3    0    0  0.12142941883E+02 -0.12367940757E+02  0.58008999086E+01  0.18277511761E+02  0.51100000000E-03 0. -1.
        -11    1    3    3    0    0  0.58561452389E+01  0.11265667244E+01 -0.64849480380E+01  0.88101158312E+01  0.51100000000E-03 0.  1.
        -12    1    3    3    0    0 -0.40616078412E+01  0.16161401607E+02 -0.27569454126E+02  0.32214319191E+02  0.00000000000E+00 0.  1.
</event>
<event>
 7    1  0.3449603E-013  0.5930194E+02  0.7816164E-02  0.1266605E+00
        -11   -1    0    0    0    0  0.00000000000E+00  0.00000000000E+00  0.45593999997E+02  0.45594000000E+02  0.51100000000E-03 0. -1.
         11   -1    0    0    0    0 -0.00000000000E+00 -0.00000000000E+00 -0.45593999997E+02  0.45594000000E+02  0.51100000000E-03 0.  1.
    9900012    2    1    2    0    0 -0.28919946780E+02 -0.11501165507E+02 -0.69340046457E+01  0.59301944267E+02  0.50000000437E+02 0.  0.
         12    1    1    2    0    0  0.28919946780E+02  0.11501165507E+02  0.69340046457E+01  0.31886055733E+02  0.00000000000E+00 0. -1.
         11    1    3    3    0    0 -0.10435510065E+02  0.12961331581E+02  0.56881821300E+00  0.16649911143E+02  0.51100000000E-03 0. -1.
        -11    1    3    3    0    0 -0.80412428062E+01  0.53925629168E+01 -0.50715492185E+01  0.10929864245E+02  0.51100000000E-03 0.  1.
         12    1    3    3    0    0 -0.10443193909E+02 -0.29855060004E+02 -0.24312736402E+01  0.31722168879E+02  0.00000000000E+00 0. -1.
</event>
<event>
 7    1  0.3449603E-013  0.5930194E+02  0.7816164E-02  0.1266605E+00
        -11   -1    0    0    0    0  0.00000000000E+00  0.00000000000E+00  0.45593999997E+02  0.45594000000E+02  0.51100000000E-03 0.  1.
         11   -1    0    0    0    0 -0.00000000000E+00 -0.00000000000E+00 -0.45593999997E+02  0.45594000000E+02  0.51100000000E-03 0. -1.
    9900012    2    1    2    0    0 -0.13741991137E+02 -0.25251004397E+02  0.13793671541E+02  0.59301938499E+02  0.49999989916E+02 0.  0.
         12    1    1    2    0    0  0.13741991137E+02  0.25251004397E+02 -0.13793671541E+02  0.31886061501E+02  0.00000000000E+00 0. -1.
         11    1    3    3    0    0 -0.14534375754E+02  0.29745799943E+01 -0.61442851496E+01  0.16057660009E+02  0.51100000000E-03 0. -1.
        -11    1    3    3    0    0 -0.56983343806E+01 -0.14164939835E+02 -0.30076546916E+01  0.15561571972E+02  0.51100000000E-03 0.  1.
        -12    1    3    3    0    0  0.64907189975E+01 -0.14060644557E+02  0.22945611382E+02  0.27682706518E+02  0.00000000000E+00 0.  1.
</event>
<event>
 7    1  0.3449603E-013  0.5930193E+02  0.7816164E-02  0.1266605E+00
        -11   -1    0    0    0    0  0.00000000000E+00  0.00000000000E+00  0.45593999997E+02  0.45594000000E+02  0.51100000000E-03 0. -1.
         11   -1    0    0    0    0 -0.00000000000E+00 -0.00000000000E+00 -0.45593999997E+02  0.45594000000E+02  0.51100000000E-03 0.  1.
    9900012    2    1    2    0    0  0.29286561397E+02  0.10189686473E+02 -0.74289193177E+01  0.59301933590E+02  0.49999980965E+02 0.  0.
         12    1    1    2    0    0 -0.29286561397E+02 -0.10189686473E+02  0.74289193177E+01  0.31886066410E+02  0.00000000000E+00 0. -1.
         11    1    3    3    0    0  0.17801414569E+02 -0.40204323905E+01  0.11882478859E+02  0.21777225291E+02  0.51100000000E-03 0. -1.
        -11    1    3    3    0    0 -0.32450633314E+01  0.13020318493E+02 -0.26990815549E+00  0.13421325581E+02  0.51100000000E-03 0.  1.
        -12    1    3    3    0    0  0.14730210159E+02  0.11898003705E+01 -0.19041490021E+02  0.24103382718E+02  0.00000000000E+00 0.  1.
</event>
<event>
 7    1  0.4277681E-013  0.5930220E+02  0.7816164E-02  0.1266604E+00
        -11   -1    0    0    0    0  0.00000000000E+00  0.00000000000E+00  0.45593999997E+02  0.45594000000E+02  0.51100000000E-03 0. -1.
         11   -1    0    0    0    0 -0.00000000000E+00 -0.00000000000E+00 -0.45593999997E+02  0.45594000000E+02  0.51100000000E-03 0.  1.
    9900012    2    1    2    0    0  0.11858934966E+02  0.15867155417E+02 -0.24986067920E+02  0.59302195170E+02  0.50000458020E+02 0.  0.
         12    1    1    2    0    0 -0.11858934966E+02 -0.15867155417E+02  0.24986067920E+02  0.31885804830E+02  0.00000000000E+00 0. -1.
         11    1    3    3    0    0  0.18867708542E+02  0.87670461298E+01  0.18499462351E+01  0.20887168904E+02  0.51100000000E-03 0. -1.
        -11    1    3    3    0    0  0.28468134753E+00  0.15771596252E+02 -0.18706294448E+02  0.24469363376E+02  0.51100000000E-03 0.  1.
         12    1    3    3    0    0 -0.72934549242E+01 -0.86714869644E+01 -0.81297197074E+01  0.13945662889E+02  0.00000000000E+00 0. -1.
</event>
<event>
 7    1  0.3449603E-013  0.5930200E+02  0.7816164E-02  0.1266605E+00
        -11   -1    0    0    0    0  0.00000000000E+00  0.00000000000E+00  0.45593999997E+02  0.45594000000E+02  0.51100000000E-03 0. -1.
         11   -1    0    0    0    0 -0.00000000000E+00 -0.00000000000E+00 -0.45593999997E+02  0.45594000000E+02  0.51100000000E-03 0.  1.
    9900012    2    1    2    0    0 -0.19361878560E+02 -0.48305863323E+00 -0.25329845118E+02  0.59302004003E+02  0.50000109381E+02 0.  0.
         12    1    1    2    0    0  0.19361878560E+02  0.48305863323E+00  0.25329845118E+02  0.31885995997E+02  0.00000000000E+00 0. -1.
         11    1    3    3    0    0 -0.25449513580E+02 -0.18522099637E+01 -0.13976372885E+02  0.29093769479E+02  0.51100000000E-03 0. -1.
        -11    1    3    3    0    0 -0.40043696259E+01  0.12406815540E+02 -0.51900475098E+01  0.14032128896E+02  0.51100000000E-03 0.  1.
         12    1    3    3    0    0  0.10092004646E+02 -0.11037664209E+02 -0.61634247228E+01  0.16176105628E+02  0.00000000000E+00 0. -1.
</event>
<event>
 7    1  0.3449603E-013  0.5930191E+02  0.7816164E-02  0.1266605E+00
        -11   -1    0    0    0    0  0.00000000000E+00  0.00000000000E+00  0.45593999997E+02  0.45594000000E+02  0.51100000000E-03 0. -1.
         11   -1    0    0    0    0 -0.00000000000E+00 -0.00000000000E+00 -0.45593999997E+02  0.45594000000E+02  0.51100000000E-03 0.  1.
    9900012    2    1    2    0    0  0.23763147032E+02  0.20899127983E+02 -0.39066240373E+01  0.59301914968E+02  0.49999947002E+02 0.  0.
         12    1    1    2    0    0 -0.23763147032E+02 -0.20899127983E+02  0.39066240373E+01  0.31886085032E+02  0.00000000000E+00 0. -1.
         11    1    3    3    0    0 -0.14292276022E+01 -0.31320329460E+01 -0.13867055713E+02  0.14288021427E+02  0.51100000000E-03 0. -1.
        -11    1    3    3    0    0  0.22940567685E+02  0.12730328284E+02 -0.43994086819E+01  0.26602362695E+02  0.51100000000E-03 0.  1.
         12    1    3    3    0    0  0.22518069492E+01  0.11300832645E+02  0.14359840357E+02  0.18411530846E+02  0.00000000000E+00 0. -1.
</event>
<event>
 7    1  0.3449603E-013  0.5930194E+02  0.7816164E-02  0.1266605E+00
        -11   -1    0    0    0    0  0.00000000000E+00  0.00000000000E+00  0.45593999997E+02  0.45594000000E+02  0.51100000000E-03 0. -1.
         11   -1    0    0    0    0 -0.00000000000E+00 -0.00000000000E+00 -0.45593999997E+02  0.45594000000E+02  0.51100000000E-03 0.  1.
    9900012    2    1    2    0    0  0.10438764093E+02  0.16939809681E+02 -0.24915771448E+02  0.59301943256E+02  0.49999998593E+02 0.  0.
         12    1    1    2    0    0 -0.10438764093E+02 -0.16939809681E+02  0.24915771448E+02  0.31886056744E+02  0.00000000000E+00 0. -1.
         11    1    3    3    0    0  0.13102402053E+02 -0.79910880701E+01 -0.73678305911E+01  0.17023964168E+02  0.51100000000E-03 0.  1.
        -11    1    3    3    0    0  0.13070614419E+02  0.14607046981E+02 -0.99651779151E+01  0.21988896151E+02  0.51100000000E-03 0. -1.
        -12    1    3    3    0    0 -0.15734252379E+02  0.10323850770E+02 -0.75827629421E+01  0.20289082938E+02  0.00000000000E+00 0.  1.
</event>
<event>
 7    1  0.3449603E-013  0.5930195E+02  0.7816164E-02  0.1266605E+00
        -11   -1    0    0    0    0  0.00000000000E+00  0.00000000000E+00  0.45593999997E+02  0.45594000000E+02  0.51100000000E-03 0. -1.
         11   -1    0    0    0    0 -0.00000000000E+00 -0.00000000000E+00 -0.45593999997E+02  0.45594000000E+02  0.51100000000E-03 0.  1.
    9900012    2    1    2    0    0  0.92882571306E+01 -0.30028475301E+02 -0.53609047142E+01  0.59301947426E+02  0.50000006198E+02 0.  0.
         12    1    1    2    0    0 -0.92882571306E+01  0.30028475301E+02  0.53609047142E+01  0.31886052574E+02  0.00000000000E+00 0. -1.
         11    1    3    3    0    0 -0.45460263816E+01 -0.20781408649E+02 -0.91409029668E+00  0.21292460229E+02  0.51100000000E-03 0. -1.
        -11    1    3    3    0    0  0.15519657566E+02 -0.17441271505E+02 -0.12427109135E+02  0.26447887711E+02  0.51100000000E-03 0.  1.
        -12    1    3    3    0    0 -0.16853740535E+01  0.81942048534E+01  0.79802947175E+01  0.11561599485E+02  0.00000000000E+00 0.  1.
</event>
<event>
 7    1  0.3449603E-013  0.5930198E+02  0.7816164E-02  0.1266605E+00
        -11   -1    0    0    0    0  0.00000000000E+00  0.00000000000E+00  0.45593999997E+02  0.45594000000E+02  0.51100000000E-03 0. -1.
         11   -1    0    0    0    0 -0.00000000000E+00 -0.00000000000E+00 -0.45593999997E+02  0.45594000000E+02  0.51100000000E-03 0.  1.
    9900012    2    1    2    0    0 -0.20941959349E+01  0.72181305965E+01 -0.30987598414E+02  0.59301979217E+02  0.50000064176E+02 0.  0.
         12    1    1    2    0    0  0.20941959349E+01 -0.72181305965E+01  0.30987598414E+02  0.31886020783E+02  0.00000000000E+00 0. -1.
         11    1    3    3    0    0 -0.87638906784E+01  0.10865833610E+02  0.45036486973E+01  0.14668161838E+02  0.51100000000E-03 0. -1.
        -11    1    3    3    0    0 -0.71655384548E+01 -0.39064476722E+00 -0.89516097267E+00  0.72317949438E+01  0.51100000000E-03 0.  1.
         12    1    3    3    0    0  0.13835233198E+02 -0.32570582467E+01 -0.34596086139E+02  0.37402022434E+02  0.00000000000E+00 0. -1.
</event>
<event>
 7    1  0.3449603E-013  0.5930193E+02  0.7816164E-02  0.1266605E+00
        -11   -1    0    0    0    0  0.00000000000E+00  0.00000000000E+00  0.45593999997E+02  0.45594000000E+02  0.51100000000E-03 0.  1.
         11   -1    0    0    0    0 -0.00000000000E+00 -0.00000000000E+00 -0.45593999997E+02  0.45594000000E+02  0.51100000000E-03 0. -1.
    9900012    2    1    2    0    0 -0.22766181595E+01 -0.28026805156E+02  0.15034520290E+02  0.59301927839E+02  0.49999970476E+02 0.  0.
         12    1    1    2    0    0  0.22766181595E+01  0.28026805156E+02 -0.15034520290E+02  0.31886072161E+02  0.00000000000E+00 0. -1.
         11    1    3    3    0    0  0.11963769997E+02 -0.18636566358E+02  0.24993152794E+02  0.33393279039E+02  0.51100000000E-03 0.  1.
        -11    1    3    3    0    0 -0.35593889631E+01  0.39760279522E+01 -0.65741648573E+01  0.84674489605E+01  0.51100000000E-03 0. -1.
        -12    1    3    3    0    0 -0.10680999193E+02 -0.13366266750E+02 -0.33844676465E+01  0.17441199839E+02  0.00000000000E+00 0.  1.
</event>
<event>
 7    1  0.3449603E-013  0.5930194E+02  0.7816164E-02  0.1266605E+00
        -11   -1    0    0    0    0  0.00000000000E+00  0.00000000000E+00  0.45593999997E+02  0.45594000000E+02  0.51100000000E-03 0.  1.
         11   -1    0    0    0    0 -0.00000000000E+00 -0.00000000000E+00 -0.45593999997E+02  0.45594000000E+02  0.51100000000E-03 0. -1.
    9900012    2    1    2    0    0 -0.22894762085E+02 -0.21588205948E+02  0.51477952736E+01  0.59301944063E+02  0.50000000065E+02 0.  0.
         12    1    1    2    0    0  0.22894762085E+02  0.21588205948E+02 -0.51477952736E+01  0.31886055937E+02  0.00000000000E+00 0. -1.
         11    1    3    3    0    0 -0.95031557165E+00 -0.73698053994E+00  0.77788130196E+01  0.78712243175E+01  0.51100000000E-03 0. -1.
        -11    1    3    3    0    0  0.43880298150E+01 -0.98327211109E+01  0.14560096623E+02  0.18108937684E+02  0.51100000000E-03 0.  1.
         12    1    3    3    0    0 -0.26332476329E+02 -0.11018504297E+02 -0.17191114369E+02  0.33321782062E+02  0.00000000000E+00 0. -1.
</event>
<event>
 7    1  0.3449603E-013  0.5930184E+02  0.7816164E-02  0.1266605E+00
        -11   -1    0    0    0    0  0.00000000000E+00  0.00000000000E+00  0.45593999997E+02  0.45594000000E+02  0.51100000000E-03 0. -1.
         11   -1    0    0    0    0 -0.00000000000E+00 -0.00000000000E+00 -0.45593999997E+02  0.45594000000E+02  0.51100000000E-03 0.  1.
    9900012    2    1    2    0    0 -0.25203662827E+02 -0.13188019755E+02 -0.14407599310E+02  0.59301836812E+02  0.49999804464E+02 0.  0.
         12    1    1    2    0    0  0.25203662827E+02  0.13188019755E+02  0.14407599310E+02  0.31886163188E+02  0.00000000000E+00 0. -1.
         11    1    3    3    0    0 -0.62341003402E+01 -0.69274997384E+01  0.26735060696E+01  0.96954574231E+01  0.51100000000E-03 0. -1.
        -11    1    3    3    0    0  0.38639576882E+01  0.42826647404E+01  0.10685463671E+02  0.12142920589E+02  0.51100000000E-03 0.  1.
         12    1    3    3    0    0 -0.22833520175E+02 -0.10543184757E+02 -0.27766569051E+02  0.37463458800E+02  0.00000000000E+00 0. -1.
</event>
<event>
 7    1  0.3449603E-013  0.5930194E+02  0.7816164E-02  0.1266605E+00
        -11   -1    0    0    0    0  0.00000000000E+00  0.00000000000E+00  0.45593999997E+02  0.45594000000E+02  0.51100000000E-03 0.  1.
         11   -1    0    0    0    0 -0.00000000000E+00 -0.00000000000E+00 -0.45593999997E+02  0.45594000000E+02  0.51100000000E-03 0. -1.
    9900012    2    1    2    0    0 -0.24971508844E+02  0.37649717623E+01  0.19467142486E+02  0.59301938737E+02  0.49999990350E+02 0.  0.
         12    1    1    2    0    0  0.24971508844E+02 -0.37649717623E+01 -0.19467142486E+02  0.31886061263E+02  0.00000000000E+00 0. -1.
         11    1    3    3    0    0 -0.60381973612E+01  0.73886288047E+01  0.11538205787E+02  0.14972703698E+02  0.51100000000E-03 0. -1.
        -11    1    3    3    0    0 -0.28413119380E+02  0.44854903816E+01 -0.13268388853E+01  0.28795580885E+02  0.51100000000E-03 0.  1.
        -12    1    3    3    0    0  0.94798078962E+01 -0.81091474239E+01  0.92557755843E+01  0.15533654153E+02  0.00000000000E+00 0.  1.
</event>
<event>
 7    1  0.3449603E-013  0.5930194E+02  0.7816164E-02  0.1266605E+00
        -11   -1    0    0    0    0  0.00000000000E+00  0.00000000000E+00  0.45593999997E+02  0.45594000000E+02  0.51100000000E-03 0. -1.
         11   -1    0    0    0    0 -0.00000000000E+00 -0.00000000000E+00 -0.45593999997E+02  0.45594000000E+02  0.51100000000E-03 0.  1.
    9900012    2    1    2    0    0  0.43573950082E+01  0.19780154860E+01 -0.31524934881E+02  0.59301937908E+02  0.49999988839E+02 0.  0.
         12    1    1    2    0    0 -0.43573950082E+01 -0.19780154860E+01  0.31524934881E+02  0.31886062092E+02  0.00000000000E+00 0. -1.
         11    1    3    3    0    0  0.32218485019E+01 -0.20188695204E+02 -0.98610952916E+01  0.22698125967E+02  0.51100000000E-03 0. -1.
        -11    1    3    3    0    0 -0.29750598109E+01 -0.26433222895E+00  0.21129732220E+01  0.36586211205E+01  0.51100000000E-03 0.  1.
        -12    1    3    3    0    0  0.41106063171E+01  0.22431042919E+02 -0.23776812811E+02  0.32945190820E+02  0.00000000000E+00 0.  1.
</event>
<event>
 7    1  0.3449603E-013  0.5930194E+02  0.7816164E-02  0.1266605E+00
        -11   -1    0    0    0    0  0.00000000000E+00  0.00000000000E+00  0.45593999997E+02  0.45594000000E+02  0.51100000000E-03 0.  1.
         11   -1    0    0    0    0 -0.00000000000E+00 -0.00000000000E+00 -0.45593999997E+02  0.45594000000E+02  0.51100000000E-03 0. -1.
    9900012    2    1    2    0    0 -0.87607918021E+00 -0.29197345518E+02  0.12785466864E+02  0.59301942499E+02  0.49999997211E+02 0.  0.
         12    1    1    2    0    0  0.87607918021E+00  0.29197345518E+02 -0.12785466864E+02  0.31886057501E+02  0.00000000000E+00 0. -1.
         11    1    3    3    0    0 -0.41243917295E+00 -0.10722462026E+02  0.36263291027E+01  0.11326586467E+02  0.51100000000E-03 0.  1.
        -11    1    3    3    0    0 -0.43250346771E+01 -0.32160532040E+02  0.92939589165E+01  0.33754754016E+02  0.51100000000E-03 0. -1.
         12    1    3    3    0    0  0.38613946699E+01  0.13685648548E+02 -0.13482115488E+00  0.14220602016E+02  0.00000000000E+00 0. -1.
</event>
<event>
 7    1  0.3449603E-013  0.5930195E+02  0.7816164E-02  0.1266605E+00
        -11   -1    0    0    0    0  0.00000000000E+00  0.00000000000E+00  0.45593999997E+02  0.45594000000E+02  0.51100000000E-03 0.  1.
         11   -1    0    0    0    0 -0.00000000000E+00 -0.00000000000E+00 -0.45593999997E+02  0.45594000000E+02  0.51100000000E-03 0. -1.
    9900012    2    1    2    0    0  0.25926541660E+02  0.11031913692E+02  0.14927536392E+02  0.59301952504E+02  0.50000015459E+02 0.  0.
         12    1    1    2    0    0 -0.25926541660E+02 -0.11031913692E+02 -0.14927536392E+02  0.31886047496E+02  0.00000000000E+00 0. -1.
         11    1    3    3    0    0 -0.32233475910E+01  0.14977347884E+02  0.69873628384E+01  0.16838472586E+02  0.51100000000E-03 0. -1.
        -11    1    3    3    0    0 -0.57532365967E+01  0.23207713115E+01  0.19272319097E+01  0.64961476210E+01  0.51100000000E-03 0.  1.
         12    1    3    3    0    0  0.34903125848E+02 -0.62662055035E+01  0.60129416444E+01  0.35967332297E+02  0.00000000000E+00 0. -1.
</event>
<event>
 7    1  0.3449603E-013  0.5930194E+02  0.7816164E-02  0.1266605E+00
        -11   -1    0    0    0    0  0.00000000000E+00  0.00000000000E+00  0.45593999997E+02  0.45594000000E+02  0.51100000000E-03 0.  1.
         11   -1    0    0    0    0 -0.00000000000E+00 -0.00000000000E+00 -0.45593999997E+02  0.45594000000E+02  0.51100000000E-03 0. -1.
    9900012    2    1    2    0    0  0.34308031754E+01 -0.14467487674E+02  0.28207134511E+02  0.59301936472E+02  0.49999986220E+02 0.  0.
         12    1    1    2    0    0 -0.34308031754E+01  0.14467487674E+02 -0.28207134511E+02  0.31886063528E+02  0.00000000000E+00 0. -1.
         11    1    3    3    0    0 -0.20384289609E+01 -0.16626627207E+02  0.43235646339E+01  0.17300090645E+02  0.51100000000E-03 0. -1.
        -11    1    3    3    0    0 -0.14262241389E+02 -0.15331726963E+01  0.11777761435E+02  0.18560113487E+02  0.51100000000E-03 0.  1.
         12    1    3    3    0    0  0.19731473526E+02  0.36923122289E+01  0.12105808442E+02  0.23441732340E+02  0.00000000000E+00 0. -1.
</event>
<event>
 7    1  0.3449603E-013  0.5930197E+02  0.7816164E-02  0.1266605E+00
        -11   -1    0    0    0    0  0.00000000000E+00  0.00000000000E+00  0.45593999997E+02  0.45594000000E+02  0.51100000000E-03 0. -1.
         11   -1    0    0    0    0 -0.00000000000E+00 -0.00000000000E+00 -0.45593999997E+02  0.45594000000E+02  0.51100000000E-03 0.  1.
    9900012    2    1    2    0    0 -0.18556866422E+02 -0.18721620710E+02 -0.17940528994E+02  0.59301969297E+02  0.50000046085E+02 0.  0.
         12    1    1    2    0    0  0.18556866422E+02  0.18721620710E+02  0.17940528994E+02  0.31886030703E+02  0.00000000000E+00 0. -1.
         11    1    3    3    0    0 -0.58791346637E+00  0.49743515333E+01 -0.13191893926E+02  0.14110842677E+02  0.51100000000E-03 0. -1.
        -11    1    3    3    0    0  0.82243820738E+00  0.78415297892E+01 -0.30066871297E+01  0.84383743575E+01  0.51100000000E-03 0.  1.
         12    1    3    3    0    0 -0.18791391163E+02 -0.31537502032E+02 -0.17419479376E+01  0.36752752263E+02  0.00000000000E+00 0. -1.
</event>
<event>
 7    1  0.3449603E-013  0.5930194E+02  0.7816164E-02  0.1266605E+00
        -11   -1    0    0    0    0  0.00000000000E+00  0.00000000000E+00  0.45593999997E+02  0.45594000000E+02  0.51100000000E-03 0.  1.
         11   -1    0    0    0    0 -0.00000000000E+00 -0.00000000000E+00 -0.45593999997E+02  0.45594000000E+02  0.51100000000E-03 0. -1.
    9900012    2    1    2    0    0 -0.54779295555E+01 -0.27129445262E+02  0.15833711170E+02  0.59301938439E+02  0.49999989808E+02 0.  0.
         12    1    1    2    0    0  0.54779295555E+01  0.27129445262E+02 -0.15833711170E+02  0.31886061561E+02  0.00000000000E+00 0. -1.
         11    1    3    3    0    0  0.10957514067E+02 -0.12006347139E+01 -0.26396234694E+01  0.11334736458E+02  0.51100000000E-03 0. -1.
        -11    1    3    3    0    0 -0.73874537179E+01 -0.28287627710E+01 -0.83005341879E+01  0.11466265273E+02  0.51100000000E-03 0.  1.
        -12    1    3    3    0    0 -0.90479899046E+01 -0.23100047777E+02  0.26773868827E+02  0.36500936708E+02  0.00000000000E+00 0.  1.
</event>
<event>
 7    1  0.3449603E-013  0.5930193E+02  0.7816164E-02  0.1266605E+00
        -11   -1    0    0    0    0  0.00000000000E+00  0.00000000000E+00  0.45593999997E+02  0.45594000000E+02  0.51100000000E-03 0.  1.
         11   -1    0    0    0    0 -0.00000000000E+00 -0.00000000000E+00 -0.45593999997E+02  0.45594000000E+02  0.51100000000E-03 0. -1.
    9900012    2    1    2    0    0 -0.52786181748E+01 -0.25991063156E+02  0.17700911721E+02  0.59301930164E+02  0.49999974717E+02 0.  0.
         12    1    1    2    0    0  0.52786181748E+01  0.25991063156E+02 -0.17700911721E+02  0.31886069836E+02  0.00000000000E+00 0. -1.
         11    1    3    3    0    0  0.29338246847E+01 -0.36679496237E+02  0.18435735948E+02  0.41156641404E+02  0.51100000000E-03 0. -1.
        -11    1    3    3    0    0 -0.36649106283E+00  0.49722533551E+01  0.48419894365E+01  0.69499986396E+01  0.51100000000E-03 0.  1.
        -12    1    3    3    0    0 -0.78459517967E+01  0.57161797258E+01 -0.55768136632E+01  0.11195290121E+02  0.00000000000E+00 0.  1.
</event>
<event>
 7    1  0.3449603E-013  0.5930184E+02  0.7816164E-02  0.1266605E+00
        -11   -1    0    0    0    0  0.00000000000E+00  0.00000000000E+00  0.45593999997E+02  0.45594000000E+02  0.51100000000E-03 0. -1.
         11   -1    0    0    0    0 -0.00000000000E+00 -0.00000000000E+00 -0.45593999997E+02  0.45594000000E+02  0.51100000000E-03 0.  1.
    9900012    2    1    2    0    0  0.21058916773E+02 -0.14294366555E+02  0.19207291483E+02  0.59301844118E+02  0.49999817788E+02 0.  0.
         12    1    1    2    0    0 -0.21058916773E+02  0.14294366555E+02 -0.19207291483E+02  0.31886155882E+02  0.00000000000E+00 0. -1.
         11    1    3    3    0    0  0.24126471458E+02 -0.10253982526E+02  0.30256783773E+02  0.40033782574E+02  0.51100000000E-03 0. -1.
        -11    1    3    3    0    0 -0.34764476553E+01  0.46655676702E+01 -0.89598138528E+00  0.58869340823E+01  0.51100000000E-03 0.  1.
        -12    1    3    3    0    0  0.40889296980E+00 -0.87059516986E+01 -0.10153510905E+02  0.13381127461E+02  0.00000000000E+00 0.  1.
</event>
<event>
 7    1  0.3449603E-013  0.5930194E+02  0.7816164E-02  0.1266605E+00
        -11   -1    0    0    0    0  0.00000000000E+00  0.00000000000E+00  0.45593999997E+02  0.45594000000E+02  0.51100000000E-03 0.  1.
         11   -1    0    0    0    0 -0.00000000000E+00 -0.00000000000E+00 -0.45593999997E+02  0.45594000000E+02  0.51100000000E-03 0. -1.
    9900012    2    1    2    0    0  0.22712809679E+02  0.12404576728E+02 -0.18627279219E+02  0.59301940688E+02  0.49999993910E+02 0.  0.
         12    1    1    2    0    0 -0.22712809679E+02 -0.12404576728E+02  0.18627279219E+02  0.31886059312E+02  0.00000000000E+00 0. -1.
         11    1    3    3    0    0  0.22748195474E+02  0.30294969437E+01 -0.55039725697E+01  0.23599829732E+02  0.51100000000E-03 0. -1.
        -11    1    3    3    0    0  0.94196139613E+01  0.11844848329E+02 -0.19006484902E+02  0.24295596879E+02  0.51100000000E-03 0.  1.
        -12    1    3    3    0    0 -0.94549997566E+01 -0.24697685452E+01  0.58831782520E+01  0.11406514078E+02  0.00000000000E+00 0.  1.
</event>
<event>
 7    1  0.3449603E-013  0.5930211E+02  0.7816164E-02  0.1266604E+00
        -11   -1    0    0    0    0  0.00000000000E+00  0.00000000000E+00  0.45593999997E+02  0.45594000000E+02  0.51100000000E-03 0.  1.
         11   -1    0    0    0    0 -0.00000000000E+00 -0.00000000000E+00 -0.45593999997E+02  0.45594000000E+02  0.51100000000E-03 0. -1.
    9900012    2    1    2    0    0 -0.10327374983E+02 -0.15293147386E+02  0.26003364531E+02  0.59302109736E+02  0.50000302210E+02 0.  0.
         12    1    1    2    0    0  0.10327374983E+02  0.15293147386E+02 -0.26003364531E+02  0.31885890264E+02  0.00000000000E+00 0. -1.
         11    1    3    3    0    0 -0.17775021208E+01 -0.54770393599E+01  0.19786599408E+02  0.20607449875E+02  0.51100000000E-03 0. -1.
        -11    1    3    3    0    0 -0.26549836489E+00 -0.16037641748E+02  0.17253121304E+02  0.23557305389E+02  0.51100000000E-03 0.  1.
         12    1    3    3    0    0 -0.82843744976E+01  0.62215337215E+01 -0.11036356181E+02  0.15137354472E+02  0.00000000000E+00 0. -1.
</event>
<event>
 7    1  0.3449603E-013  0.5930194E+02  0.7816164E-02  0.1266605E+00
        -11   -1    0    0    0    0  0.00000000000E+00  0.00000000000E+00  0.45593999997E+02  0.45594000000E+02  0.51100000000E-03 0.  1.
         11   -1    0    0    0    0 -0.00000000000E+00 -0.00000000000E+00 -0.45593999997E+02  0.45594000000E+02  0.51100000000E-03 0. -1.
    9900012    2    1    2    0    0 -0.31098161270E+02  0.77781770956E+00  0.70014469455E+01  0.59301938875E+02  0.49999990602E+02 0.  0.
         12    1    1    2    0    0  0.31098161270E+02 -0.77781770956E+00 -0.70014469455E+01  0.31886061125E+02  0.00000000000E+00 0. -1.
         11    1    3    3    0    0 -0.13394646642E+02 -0.12725226445E+01 -0.37108803643E+01  0.13957310124E+02  0.51100000000E-03 0. -1.
        -11    1    3    3    0    0 -0.30179361286E+01 -0.14319672013E+01  0.24605314870E+02  0.24831028747E+02  0.51100000000E-03 0.  1.
         12    1    3    3    0    0 -0.14685578499E+02  0.34823075554E+01 -0.13892987560E+02  0.20513600003E+02  0.00000000000E+00 0. -1.
</event>
<event>
 7    1  0.3449603E-013  0.5930194E+02  0.7816164E-02  0.1266605E+00
        -11   -1    0    0    0    0  0.00000000000E+00  0.00000000000E+00  0.45593999997E+02  0.45594000000E+02  0.51100000000E-03 0.  1.
         11   -1    0    0    0    0 -0.00000000000E+00 -0.00000000000E+00 -0.45593999997E+02  0.45594000000E+02  0.51100000000E-03 0. -1.
    9900012    2    1    2    0    0  0.17108945683E+02 -0.30056597946E+01  0.26738938437E+02  0.59301939693E+02  0.49999992095E+02 0.  0.
         12    1    1    2    0    0 -0.17108945683E+02  0.30056597946E+01 -0.26738938437E+02  0.31886060307E+02  0.00000000000E+00 0. -1.
         11    1    3    3    0    0  0.71015515548E+01  0.37543273808E+01 -0.71997780496E+01  0.10787205977E+02  0.51100000000E-03 0. -1.
        -11    1    3    3    0    0  0.18611897248E+02 -0.13095847692E+02  0.16679388980E+02  0.28215349775E+02  0.51100000000E-03 0.  1.
         12    1    3    3    0    0 -0.86045031196E+01  0.63358605167E+01  0.17259327506E+02  0.20299383941E+02  0.00000000000E+00 0. -1.
</event>
<event>
 7    1  0.3449603E-013  0.5930194E+02  0.7816164E-02  0.1266605E+00
        -11   -1    0    0    0    0  0.00000000000E+00  0.00000000000E+00  0.45593999997E+02  0.45594000000E+02  0.51100000000E-03 0.  1.
         11   -1    0    0    0    0 -0.00000000000E+00 -0.00000000000E+00 -0.45593999997E+02  0.45594000000E+02  0.51100000000E-03 0. -1.
    9900012    2    1    2    0    0  0.44467221259E+01 -0.87334365102E+01  0.30342618436E+02  0.59301941221E+02  0.49999994881E+02 0.  0.
         12    1    1    2    0    0 -0.44467221259E+01  0.87334365102E+01 -0.30342618436E+02  0.31886058779E+02  0.00000000000E+00 0. -1.
         11    1    3    3    0    0  0.10883158544E+02 -0.15980769634E+02  0.37971608045E+00  0.19338364009E+02  0.51100000000E-03 0. -1.
        -11    1    3    3    0    0  0.16126133577E+01 -0.80671725090E+01  0.51197542547E+01  0.96897718250E+01  0.51100000000E-03 0.  1.
        -12    1    3    3    0    0 -0.80490497759E+01  0.15314505632E+02  0.24843148101E+02  0.30273805387E+02  0.00000000000E+00 0.  1.
</event>
<event>
 7    1  0.3449603E-013  0.5930194E+02  0.7816164E-02  0.1266605E+00
        -11   -1    0    0    0    0  0.00000000000E+00  0.00000000000E+00  0.45593999997E+02  0.45594000000E+02  0.51100000000E-03 0. -1.
         11   -1    0    0    0    0 -0.00000000000E+00 -0.00000000000E+00 -0.45593999997E+02  0.45594000000E+02  0.51100000000E-03 0.  1.
    9900012    2    1    2    0    0  0.22695082492E+01  0.30175680118E+02  0.10049815452E+02  0.59301935193E+02  0.49999983888E+02 0.  0.
         12    1    1    2    0    0 -0.22695082492E+01 -0.30175680118E+02 -0.10049815452E+02  0.31886064807E+02  0.00000000000E+00 0. -1.
         11    1    3    3    0    0 -0.15870577937E+01  0.10288943487E+02  0.84750011430E+01  0.13424110963E+02  0.51100000000E-03 0. -1.
        -11    1    3    3    0    0 -0.12562888095E+02  0.17764832723E+02 -0.11656898178E+02  0.24683976875E+02  0.51100000000E-03 0.  1.
        -12    1    3    3    0    0  0.16419454138E+02  0.21219039071E+01  0.13231712487E+02  0.21193847355E+02  0.00000000000E+00 0.  1.
</event>
<event>
 7    1  0.3449603E-013  0.5930201E+02  0.7816164E-02  0.1266605E+00
        -11   -1    0    0    0    0  0.00000000000E+00  0.00000000000E+00  0.45593999997E+02  0.45594000000E+02  0.51100000000E-03 0. -1.
         11   -1    0    0    0    0 -0.00000000000E+00 -0.00000000000E+00 -0.45593999997E+02  0.45594000000E+02  0.51100000000E-03 0.  1.
    9900012    2    1    2    0    0  0.27278537441E+02 -0.16439713366E+02  0.15275847579E+01  0.59302010982E+02  0.50000122108E+02 0.  0.
         12    1    1    2    0    0 -0.27278537441E+02  0.16439713366E+02 -0.15275847579E+01  0.31885989018E+02  0.00000000000E+00 0. -1.
         11    1    3    3    0    0  0.22456157061E+02  0.82618133317E+01  0.28260397091E+01  0.24094045949E+02  0.51100000000E-03 0. -1.
        -11    1    3    3    0    0  0.10492414457E+02 -0.32148948415E+01 -0.59808093449E+01  0.12497855443E+02  0.51100000000E-03 0.  1.
        -12    1    3    3    0    0 -0.56700340772E+01 -0.21486631856E+02  0.46823543936E+01  0.22710109591E+02  0.00000000000E+00 0.  1.
</event>
<event>
 7    1  0.3449603E-013  0.5930192E+02  0.7816164E-02  0.1266605E+00
        -11   -1    0    0    0    0  0.00000000000E+00  0.00000000000E+00  0.45593999997E+02  0.45594000000E+02  0.51100000000E-03 0. -1.
         11   -1    0    0    0    0 -0.00000000000E+00 -0.00000000000E+00 -0.45593999997E+02  0.45594000000E+02  0.51100000000E-03 0.  1.
    9900012    2    1    2    0    0  0.13006118208E+02 -0.12521647043E+02 -0.26282525144E+02  0.59301923361E+02  0.49999962309E+02 0.  0.
         12    1    1    2    0    0 -0.13006118208E+02  0.12521647043E+02  0.26282525144E+02  0.31886076639E+02  0.00000000000E+00 0. -1.
         11    1    3    3    0    0  0.87102720526E+01 -0.50628785232E+01 -0.76753218639E+00  0.10103993472E+02  0.51100000000E-03 0. -1.
        -11    1    3    3    0    0  0.19766880757E+02 -0.14970139499E+02 -0.16458716954E+02  0.29761115831E+02  0.51100000000E-03 0.  1.
        -12    1    3    3    0    0 -0.15471034602E+02  0.75113709800E+01 -0.90562760034E+01  0.19436814057E+02  0.00000000000E+00 0.  1.
</event>
<event>
 7    1  0.3449603E-013  0.5930193E+02  0.7816164E-02  0.1266605E+00
        -11   -1    0    0    0    0  0.00000000000E+00  0.00000000000E+00  0.45593999997E+02  0.45594000000E+02  0.51100000000E-03 0.  1.
         11   -1    0    0    0    0 -0.00000000000E+00 -0.00000000000E+00 -0.45593999997E+02  0.45594000000E+02  0.51100000000E-03 0. -1.
    9900012    2    1    2    0    0  0.25948485953E+02 -0.12756322968E+02  0.13441500177E+02  0.59301927399E+02  0.49999969672E+02 0.  0.
         12    1    1    2    0    0 -0.25948485953E+02  0.12756322968E+02 -0.13441500177E+02  0.31886072601E+02  0.00000000000E+00 0. -1.
         11    1    3    3    0    0 -0.24244391010E+01 -0.74601305202E+01 -0.14812761882E+02  0.16761544295E+02  0.51100000000E-03 0. -1.
        -11    1    3    3    0    0  0.10987351944E+01  0.29980781528E+01  0.39466124613E+01  0.50765580681E+01  0.51100000000E-03 0.  1.
        -12    1    3    3    0    0  0.27274189860E+02 -0.82942706010E+01  0.24307649597E+02  0.37463825035E+02  0.00000000000E+00 0.  1.
</event>
<event>
 7    1  0.3449603E-013  0.5930196E+02  0.7816164E-02  0.1266605E+00
        -11   -1    0    0    0    0  0.00000000000E+00  0.00000000000E+00  0.45593999997E+02  0.45594000000E+02  0.51100000000E-03 0.  1.
         11   -1    0    0    0    0 -0.00000000000E+00 -0.00000000000E+00 -0.45593999997E+02  0.45594000000E+02  0.51100000000E-03 0. -1.
    9900012    2    1    2    0    0 -0.16505593749E+02 -0.10653372683E+02  0.25115542747E+02  0.59301961331E+02  0.50000031556E+02 0.  0.
         12    1    1    2    0    0  0.16505593749E+02  0.10653372683E+02 -0.25115542747E+02  0.31886038669E+02  0.00000000000E+00 0. -1.
         11    1    3    3    0    0 -0.17301866212E+02 -0.24176663653E+02  0.90003649895E+00  0.29743498546E+02  0.51100000000E-03 0. -1.
        -11    1    3    3    0    0 -0.25893507284E+01  0.30898755995E+01  0.14001506946E+02  0.14570321391E+02  0.51100000000E-03 0.  1.
        -12    1    3    3    0    0  0.33856231917E+01  0.10433415370E+02  0.10213999303E+02  0.14988141394E+02  0.00000000000E+00 0.  1.
</event>
<event>
 7    1  0.3449603E-013  0.5930199E+02  0.7816164E-02  0.1266605E+00
        -11   -1    0    0    0    0  0.00000000000E+00  0.00000000000E+00  0.45593999997E+02  0.45594000000E+02  0.51100000000E-03 0.  1.
         11   -1    0    0    0    0 -0.00000000000E+00 -0.00000000000E+00 -0.45593999997E+02  0.45594000000E+02  0.51100000000E-03 0. -1.
    9900012    2    1    2    0    0  0.34252488388E+01  0.19750747716E+02  0.24797045259E+02  0.59301987102E+02  0.50000078558E+02 0.  0.
         12    1    1    2    0    0 -0.34252488388E+01 -0.19750747716E+02 -0.24797045259E+02  0.31886012898E+02  0.00000000000E+00 0. -1.
         11    1    3    3    0    0 -0.89591376182E+01  0.14842293515E+02  0.54180414994E+01  0.18163562359E+02  0.51100000000E-03 0. -1.
        -11    1    3    3    0    0 -0.15170082086E+01  0.17456325456E+02  0.10321319674E+02  0.20336033350E+02  0.51100000000E-03 0.  1.
         12    1    3    3    0    0  0.13901394666E+02 -0.12547871255E+02  0.90576840853E+01  0.20802391393E+02  0.00000000000E+00 0. -1.
</event>
<event>
 7    1  0.3449603E-013  0.5930195E+02  0.7816164E-02  0.1266605E+00
        -11   -1    0    0    0    0  0.00000000000E+00  0.00000000000E+00  0.45593999997E+02  0.45594000000E+02  0.51100000000E-03 0. -1.
         11   -1    0    0    0    0 -0.00000000000E+00 -0.00000000000E+00 -0.45593999997E+02  0.45594000000E+02  0.51100000000E-03 0.  1.
    9900012    2    1    2    0    0  0.22718528470E+02 -0.17274906258E+02  0.14218512622E+02  0.59301952530E+02  0.50000015506E+02 0.  0.
         12    1    1    2    0    0 -0.22718528470E+02  0.17274906258E+02 -0.14218512622E+02  0.31886047470E+02  0.00000000000E+00 0. -1.
         11    1    3    3    0    0  0.15282484259E+02 -0.12399702607E+02  0.18760285222E+01  0.19769330620E+02  0.51100000000E-03 0. -1.
        -11    1    3    3    0    0  0.35022630321E+01 -0.79018579701E+01 -0.11944482650E+02  0.14743672262E+02  0.51100000000E-03 0.  1.
        -12    1    3    3    0    0  0.39337811788E+01  0.30266543191E+01  0.24286966751E+02  0.24788949648E+02  0.00000000000E+00 0.  1.
</event>
<event>
 7    1  0.3449603E-013  0.5930193E+02  0.7816164E-02  0.1266605E+00
        -11   -1    0    0    0    0  0.00000000000E+00  0.00000000000E+00  0.45593999997E+02  0.45594000000E+02  0.51100000000E-03 0. -1.
         11   -1    0    0    0    0 -0.00000000000E+00 -0.00000000000E+00 -0.45593999997E+02  0.45594000000E+02  0.51100000000E-03 0.  1.
    9900012    2    1    2    0    0 -0.22008750692E+02  0.78334955065E+01 -0.21701903004E+02  0.59301931680E+02  0.49999977481E+02 0.  0.
         12    1    1    2    0    0  0.22008750692E+02 -0.78334955065E+01  0.21701903004E+02  0.31886068320E+02  0.00000000000E+00 0. -1.
         11    1    3    3    0    0 -0.12960593674E+02  0.37666184087E+01 -0.41280657101E+01  0.14114011810E+02  0.51100000000E-03 0. -1.
        -11    1    3    3    0    0 -0.78839170722E+01  0.25922518129E+01 -0.30764435569E+02  0.31864187013E+02  0.51100000000E-03 0.  1.
        -12    1    3    3    0    0 -0.11642399462E+01  0.14746252850E+01  0.13190598275E+02  0.13323732857E+02  0.00000000000E+00 0.  1.
</event>
<event>
 7    1  0.3449603E-013  0.5930193E+02  0.7816164E-02  0.1266605E+00
        -11   -1    0    0    0    0  0.00000000000E+00  0.00000000000E+00  0.45593999997E+02  0.45594000000E+02  0.51100000000E-03 0.  1.
         11   -1    0    0    0    0 -0.00000000000E+00 -0.00000000000E+00 -0.45593999997E+02  0.45594000000E+02  0.51100000000E-03 0. -1.
    9900012    2    1    2    0    0  0.81086990932E+01  0.12072856918E+02  0.28376341998E+02  0.59301926860E+02  0.49999968690E+02 0.  0.
         12    1    1    2    0    0 -0.81086990932E+01 -0.12072856918E+02 -0.28376341998E+02  0.31886073140E+02  0.00000000000E+00 0. -1.
         11    1    3    3    0    0 -0.52073556433E+01  0.29942601308E+01  0.40578768687E+01  0.72490352096E+01  0.51100000000E-03 0. -1.
        -11    1    3    3    0    0 -0.12916581558E+02 -0.72848561095E+01  0.52682584004E+01  0.15737272779E+02  0.51100000000E-03 0.  1.
        -12    1    3    3    0    0  0.26232636294E+02  0.16363452896E+02  0.19050206728E+02  0.36315618872E+02  0.00000000000E+00 0.  1.
</event>
<event>
 7    1  0.3449603E-013  0.5930196E+02  0.7816164E-02  0.1266605E+00
        -11   -1    0    0    0    0  0.00000000000E+00  0.00000000000E+00  0.45593999997E+02  0.45594000000E+02  0.51100000000E-03 0.  1.
         11   -1    0    0    0    0 -0.00000000000E+00 -0.00000000000E+00 -0.45593999997E+02  0.45594000000E+02  0.51100000000E-03 0. -1.
    9900012    2    1    2    0    0 -0.59394572238E+01  0.30351405151E+02 -0.77611084743E+01  0.59301956791E+02  0.50000023277E+02 0.  0.
         12    1    1    2    0    0  0.59394572238E+01 -0.30351405151E+02  0.77611084743E+01  0.31886043209E+02  0.00000000000E+00 0. -1.
         11    1    3    3    0    0  0.81672049306E+01  0.72926401281E+01  0.48064617346E+01  0.11957755269E+02  0.51100000000E-03 0.  1.
        -11    1    3    3    0    0 -0.23820397448E+02  0.50719494612E+01 -0.22842730990E+01  0.24461273674E+02  0.51100000000E-03 0. -1.
         12    1    3    3    0    0  0.97137352935E+01  0.17986815562E+02 -0.10283297110E+02  0.22882927847E+02  0.00000000000E+00 0. -1.
</event>
<event>
 7    1  0.3449603E-013  0.5930197E+02  0.7816164E-02  0.1266605E+00
        -11   -1    0    0    0    0  0.00000000000E+00  0.00000000000E+00  0.45593999997E+02  0.45594000000E+02  0.51100000000E-03 0.  1.
         11   -1    0    0    0    0 -0.00000000000E+00 -0.00000000000E+00 -0.45593999997E+02  0.45594000000E+02  0.51100000000E-03 0. -1.
    9900012    2    1    2    0    0 -0.23983458747E+02  0.61856415269E+01  0.20081097777E+02  0.59301969477E+02  0.50000046414E+02 0.  0.
         12    1    1    2    0    0  0.23983458747E+02 -0.61856415269E+01 -0.20081097777E+02  0.31886030523E+02  0.00000000000E+00 0. -1.
         11    1    3    3    0    0  0.17521363306E+01  0.72962656582E+01 -0.11793501781E+01  0.75958107783E+01  0.51100000000E-03 0.  1.
        -11    1    3    3    0    0  0.26864562836E+01  0.12218311928E+02 -0.19552708521E+01  0.12662040835E+02  0.51100000000E-03 0. -1.
        -12    1    3    3    0    0 -0.28422051361E+02 -0.13328936060E+02  0.23215718807E+02  0.39044117864E+02  0.00000000000E+00 0.  1.
</event>
<event>
 7    1  0.3449603E-013  0.5930197E+02  0.7816164E-02  0.1266605E+00
        -11   -1    0    0    0    0  0.00000000000E+00  0.00000000000E+00  0.45593999997E+02  0.45594000000E+02  0.51100000000E-03 0. -1.
         11   -1    0    0    0    0 -0.00000000000E+00 -0.00000000000E+00 -0.45593999997E+02  0.45594000000E+02  0.51100000000E-03 0.  1.
    9900012    2    1    2    0    0 -0.20164498402E+02 -0.52191716106E+01 -0.24142747448E+02  0.59301968538E+02  0.50000044700E+02 0.  0.
         12    1    1    2    0    0  0.20164498402E+02  0.52191716106E+01  0.24142747448E+02  0.31886031462E+02  0.00000000000E+00 0. -1.
         11    1    3    3    0    0 -0.21829112960E+01 -0.89663854390E+01  0.69936622204E+01  0.11578967185E+02  0.51100000000E-03 0. -1.
        -11    1    3    3    0    0  0.54666370765E+01  0.10040171416E+02 -0.65755275694E+01  0.13188128224E+02  0.51100000000E-03 0.  1.
        -12    1    3    3    0    0 -0.23448224182E+02 -0.62929575875E+01 -0.24560882099E+02  0.34534873128E+02  0.00000000000E+00 0.  1.
</event>
<event>
 7    1  0.3449603E-013  0.5930196E+02  0.7816164E-02  0.1266605E+00
        -11   -1    0    0    0    0  0.00000000000E+00  0.00000000000E+00  0.45593999997E+02  0.45594000000E+02  0.51100000000E-03 0.  1.
         11   -1    0    0    0    0 -0.00000000000E+00 -0.00000000000E+00 -0.45593999997E+02  0.45594000000E+02  0.51100000000E-03 0. -1.
    9900012    2    1    2    0    0  0.35873046353E+00  0.19931604916E+02  0.24886176473E+02  0.59301963220E+02  0.50000035003E+02 0.  0.
         12    1    1    2    0    0 -0.35873046353E+00 -0.19931604916E+02 -0.24886176473E+02  0.31886036780E+02  0.00000000000E+00 0. -1.
         11    1    3    3    0    0 -0.19234067945E+02  0.18799450459E+02  0.21714434852E+02  0.34567114263E+02  0.51100000000E-03 0.  1.
        -11    1    3    3    0    0  0.68896614292E+01 -0.55989872698E+01 -0.25884679340E+01  0.92475001791E+01  0.51100000000E-03 0. -1.
        -12    1    3    3    0    0  0.12703136979E+02  0.67311417259E+01  0.57602095550E+01  0.15487348778E+02  0.00000000000E+00 0.  1.
</event>
<event>
 7    1  0.4806019E-013  0.5930193E+02  0.7816164E-02  0.1266605E+00
        -11   -1    0    0    0    0  0.00000000000E+00  0.00000000000E+00  0.45593999997E+02  0.45594000000E+02  0.51100000000E-03 0. -1.
         11   -1    0    0    0    0 -0.00000000000E+00 -0.00000000000E+00 -0.45593999997E+02  0.45594000000E+02  0.51100000000E-03 0.  1.
    9900012    2    1    2    0    0  0.10291488209E+02 -0.19506454740E+02 -0.23028348021E+02  0.59301932217E+02  0.49999978460E+02 0.  0.
         12    1    1    2    0    0 -0.10291488209E+02  0.19506454740E+02  0.23028348021E+02  0.31886067783E+02  0.00000000000E+00 0. -1.
         11    1    3    3    0    0 -0.87778195461E+01 -0.12094471053E+02 -0.65731537683E+01  0.16325829129E+02  0.51100000000E-03 0. -1.
        -11    1    3    3    0    0  0.14837584915E+02 -0.12621106872E+02 -0.25264164144E+02  0.31901790780E+02  0.51100000000E-03 0.  1.
         12    1    3    3    0    0  0.42317228399E+01  0.52091231839E+01  0.88089698919E+01  0.11074312308E+02  0.00000000000E+00 0. -1.
</event>
<event>
 7    1  0.3449603E-013  0.5930193E+02  0.7816164E-02  0.1266605E+00
        -11   -1    0    0    0    0  0.00000000000E+00  0.00000000000E+00  0.45593999997E+02  0.45594000000E+02  0.51100000000E-03 0.  1.
         11   -1    0    0    0    0 -0.00000000000E+00 -0.00000000000E+00 -0.45593999997E+02  0.45594000000E+02  0.51100000000E-03 0. -1.
    9900012    2    1    2    0    0 -0.23763842396E+01 -0.13542291101E+02  0.28769437927E+02  0.59301930801E+02  0.49999975877E+02 0.  0.
         12    1    1    2    0    0  0.23763842396E+01  0.13542291101E+02 -0.28769437927E+02  0.31886069199E+02  0.00000000000E+00 0. -1.
         11    1    3    3    0    0  0.33529133687E+01  0.54955364397E+00  0.10814343443E+02  0.11335522116E+02  0.51100000000E-03 0. -1.
        -11    1    3    3    0    0  0.16056203826E+02 -0.90641825719E+01  0.17770321886E+02  0.25607526768E+02  0.51100000000E-03 0.  1.
         12    1    3    3    0    0 -0.21785501434E+02 -0.50276621732E+01  0.18477259804E+00  0.22358881917E+02  0.00000000000E+00 0. -1.
</event>
<event>
 7    1  0.3449603E-013  0.5930195E+02  0.7816164E-02  0.1266605E+00
        -11   -1    0    0    0    0  0.00000000000E+00  0.00000000000E+00  0.45593999997E+02  0.45594000000E+02  0.51100000000E-03 0. -1.
         11   -1    0    0    0    0 -0.00000000000E+00 -0.00000000000E+00 -0.45593999997E+02  0.45594000000E+02  0.51100000000E-03 0.  1.
    9900012    2    1    2    0    0  0.28020080055E+01 -0.10108870451E+02 -0.30111123096E+02  0.59301949057E+02  0.50000009172E+02 0.  0.
         12    1    1    2    0    0 -0.28020080055E+01  0.10108870451E+02  0.30111123096E+02  0.31886050943E+02  0.00000000000E+00 0. -1.
         11    1    3    3    0    0  0.21774004615E+01 -0.25289504094E+01  0.69288216610E+01  0.76905937881E+01  0.51100000000E-03 0. -1.
        -11    1    3    3    0    0 -0.33998384910E+01 -0.76750888541E+01  0.47384676094E+01  0.96394484401E+01  0.51100000000E-03 0.  1.
        -12    1    3    3    0    0  0.40244460349E+01  0.95168812796E-01 -0.41778412366E+02  0.41971906829E+02  0.00000000000E+00 0.  1.
</event>
<event>
 7    1  0.3449603E-013  0.5930156E+02  0.7816164E-02  0.1266606E+00
        -11   -1    0    0    0    0  0.00000000000E+00  0.00000000000E+00  0.45593999997E+02  0.45594000000E+02  0.51100000000E-03 0. -1.
         11   -1    0    0    0    0 -0.00000000000E+00 -0.00000000000E+00 -0.45593999997E+02  0.45594000000E+02  0.51100000000E-03 0.  1.
    9900012    2    1    2    0    0  0.30986121858E+02  0.53352682784E+00  0.75046900395E+01  0.59301564463E+02  0.49999307761E+02 0.  0.
         12    1    1    2    0    0 -0.30986121858E+02 -0.53352682784E+00 -0.75046900395E+01  0.31886435537E+02  0.00000000000E+00 0. -1.
         11    1    3    3    0    0  0.66851097807E+01  0.55846860081E+01  0.53109359485E+01  0.10202227771E+02  0.51100000000E-03 0.  1.
        -11    1    3    3    0    0 -0.10013926299E+02 -0.28228791297E+01  0.93352914796E+01  0.13978377366E+02  0.51100000000E-03 0. -1.
         12    1    3    3    0    0  0.34314938376E+02 -0.22282800506E+01 -0.71415373886E+01  0.35120959326E+02  0.00000000000E+00 0. -1.
</event>
<event>
 7    1  0.3449603E-013  0.5930195E+02  0.7816164E-02  0.1266605E+00
        -11   -1    0    0    0    0  0.00000000000E+00  0.00000000000E+00  0.45593999997E+02  0.45594000000E+02  0.51100000000E-03 0. -1.
         11   -1    0    0    0    0 -0.00000000000E+00 -0.00000000000E+00 -0.45593999997E+02  0.45594000000E+02  0.51100000000E-03 0.  1.
    9900012    2    1    2    0    0 -0.25364447512E+02  0.19261203689E+02 -0.15399137725E+01  0.59301945061E+02  0.50000001885E+02 0.  0.
         12    1    1    2    0    0  0.25364447512E+02 -0.19261203689E+02  0.15399137725E+01  0.31886054939E+02  0.00000000000E+00 0. -1.
         11    1    3    3    0    0  0.89947357181E+01 -0.19224572449E+01 -0.80805609042E+01  0.12243225771E+02  0.51100000000E-03 0. -1.
        -11    1    3    3    0    0 -0.15697387259E+02  0.12077308033E+01 -0.61722520293E+01  0.16910448717E+02  0.51100000000E-03 0.  1.
         12    1    3    3    0    0 -0.18661795971E+02  0.19975930130E+02  0.12712899161E+02  0.30148270573E+02  0.00000000000E+00 0. -1.
</event>
<event>
 7    1  0.3449603E-013  0.5930183E+02  0.7816164E-02  0.1266605E+00
        -11   -1    0    0    0    0  0.00000000000E+00  0.00000000000E+00  0.45593999997E+02  0.45594000000E+02  0.51100000000E-03 0.  1.
         11   -1    0    0    0    0 -0.00000000000E+00 -0.00000000000E+00 -0.45593999997E+02  0.45594000000E+02  0.51100000000E-03 0. -1.
    9900012    2    1    2    0    0  0.28251599766E+02  0.14473698639E+02 -0.30144957039E+01  0.59301827041E+02  0.49999786644E+02 0.  0.
         12    1    1    2    0    0 -0.28251599766E+02 -0.14473698639E+02  0.30144957039E+01  0.31886172959E+02  0.00000000000E+00 0. -1.
         11    1    3    3    0    0  0.95047626721E+01  0.48562174634E+01 -0.71449160164E+01  0.12844188828E+02  0.51100000000E-03 0. -1.
        -11    1    3    3    0    0  0.17529896947E+02 -0.26693843500E+01 -0.15310544848E+02  0.23427242339E+02  0.51100000000E-03 0.  1.
         12    1    3    3    0    0  0.12169401463E+01  0.12286865526E+02  0.19440965160E+02  0.23030395874E+02  0.00000000000E+00 0. -1.
</event>
<event>
 7    1  0.3449603E-013  0.5930195E+02  0.7816164E-02  0.1266605E+00
        -11   -1    0    0    0    0  0.00000000000E+00  0.00000000000E+00  0.45593999997E+02  0.45594000000E+02  0.51100000000E-03 0.  1.
         11   -1    0    0    0    0 -0.00000000000E+00 -0.00000000000E+00 -0.45593999997E+02  0.45594000000E+02  0.51100000000E-03 0. -1.
    9900012    2    1    2    0    0 -0.19324506569E+02 -0.23178311595E+02 -0.10298021689E+02  0.59301953942E+02  0.50000018081E+02 0.  0.
         12    1    1    2    0    0  0.19324506569E+02  0.23178311595E+02  0.10298021689E+02  0.31886046058E+02  0.00000000000E+00 0. -1.
         11    1    3    3    0    0  0.17000859211E+01 -0.78699988379E+01  0.15780509405E+02  0.17715858748E+02  0.51100000000E-03 0. -1.
        -11    1    3    3    0    0  0.29279394684E+01 -0.55266247027E+01 -0.30912250261E+01  0.69765380067E+01  0.51100000000E-03 0.  1.
        -12    1    3    3    0    0 -0.23952531958E+02 -0.97816880541E+01 -0.22987306068E+02  0.34609557187E+02  0.00000000000E+00 0.  1.
</event>
<event>
 7    1  0.3449603E-013  0.5930188E+02  0.7816164E-02  0.1266605E+00
        -11   -1    0    0    0    0  0.00000000000E+00  0.00000000000E+00  0.45593999997E+02  0.45594000000E+02  0.51100000000E-03 0.  1.
         11   -1    0    0    0    0 -0.00000000000E+00 -0.00000000000E+00 -0.45593999997E+02  0.45594000000E+02  0.51100000000E-03 0. -1.
    9900012    2    1    2    0    0  0.22054414766E+02 -0.21752591792E+02  0.75598855769E+01  0.59301884992E+02  0.49999892333E+02 0.  0.
         12    1    1    2    0    0 -0.22054414766E+02  0.21752591792E+02 -0.75598855769E+01  0.31886115008E+02  0.00000000000E+00 0. -1.
         11    1    3    3    0    0 -0.31083758522E+01  0.21722813279E+01 -0.10342271887E+02  0.11015597789E+02  0.51100000000E-03 0. -1.
        -11    1    3    3    0    0  0.43298451481E-01 -0.84644410556E+01  0.16750594193E+02  0.18767819352E+02  0.51100000000E-03 0.  1.
        -12    1    3    3    0    0  0.25119492167E+02 -0.15460432064E+02  0.11515632708E+01  0.29518467852E+02  0.00000000000E+00 0.  1.
</event>
<event>
 7    1  0.3449603E-013  0.5930196E+02  0.7816164E-02  0.1266605E+00
        -11   -1    0    0    0    0  0.00000000000E+00  0.00000000000E+00  0.45593999997E+02  0.45594000000E+02  0.51100000000E-03 0. -1.
         11   -1    0    0    0    0 -0.00000000000E+00 -0.00000000000E+00 -0.45593999997E+02  0.45594000000E+02  0.51100000000E-03 0.  1.
    9900012    2    1    2    0    0  0.75219292858E+01  0.25884192125E+01 -0.30877829868E+02  0.59301957418E+02  0.50000024421E+02 0.  0.
         12    1    1    2    0    0 -0.75219292858E+01 -0.25884192125E+01  0.30877829868E+02  0.31886042582E+02  0.00000000000E+00 0. -1.
         11    1    3    3    0    0  0.60562299959E+01  0.15823842357E+01 -0.23297054509E+02  0.24123320888E+02  0.51100000000E-03 0. -1.
        -11    1    3    3    0    0  0.92401255221E+01  0.39991761481E+01 -0.18727706215E+02  0.21262650585E+02  0.51100000000E-03 0.  1.
         12    1    3    3    0    0 -0.77744262322E+01 -0.29931411713E+01  0.11146930857E+02  0.13915985945E+02  0.00000000000E+00 0. -1.
</event>
<event>
 7    1  0.3449603E-013  0.5930195E+02  0.7816164E-02  0.1266605E+00
        -11   -1    0    0    0    0  0.00000000000E+00  0.00000000000E+00  0.45593999997E+02  0.45594000000E+02  0.51100000000E-03 0.  1.
         11   -1    0    0    0    0 -0.00000000000E+00 -0.00000000000E+00 -0.45593999997E+02  0.45594000000E+02  0.51100000000E-03 0. -1.
    9900012    2    1    2    0    0 -0.33973481040E+01 -0.25134571834E+02  0.19324377019E+02  0.59301949404E+02  0.50000009805E+02 0.  0.
         12    1    1    2    0    0  0.33973481040E+01  0.25134571834E+02 -0.19324377019E+02  0.31886050596E+02  0.00000000000E+00 0. -1.
         11    1    3    3    0    0  0.34033735961E+01  0.72565839283E+01 -0.58394248346E+01  0.99166448360E+01  0.51100000000E-03 0. -1.
        -11    1    3    3    0    0  0.76528706735E+01 -0.85220710581E+01  0.16653754839E+02  0.20212364413E+02  0.51100000000E-03 0.  1.
        -12    1    3    3    0    0 -0.14453592374E+02 -0.23869084704E+02  0.85100470150E+01  0.29172940156E+02  0.00000000000E+00 0.  1.
</event>
<event>
 7    1  0.3449603E-013  0.5930194E+02  0.7816164E-02  0.1266605E+00
        -11   -1    0    0    0    0  0.00000000000E+00  0.00000000000E+00  0.45593999997E+02  0.45594000000E+02  0.51100000000E-03 0. -1.
         11   -1    0    0    0    0 -0.00000000000E+00 -0.00000000000E+00 -0.45593999997E+02  0.45594000000E+02  0.51100000000E-03 0.  1.
    9900012    2    1    2    0    0 -0.73112008281E+00  0.25866557091E+02 -0.18630824147E+02  0.59301938457E+02  0.49999989840E+02 0.  0.
         12    1    1    2    0    0  0.73112008281E+00 -0.25866557091E+02  0.18630824147E+02  0.31886061543E+02  0.00000000000E+00 0. -1.
         11    1    3    3    0    0 -0.11007488878E+02  0.85427296334E+01 -0.14446867830E+02  0.20071248874E+02  0.51100000000E-03 0. -1.
        -11    1    3    3    0    0  0.14834507871E+02  0.38938025197E+01 -0.14955285234E+02  0.21421598412E+02  0.51100000000E-03 0.  1.
         12    1    3    3    0    0 -0.45581390757E+01  0.13430024938E+02  0.10771328917E+02  0.17809091171E+02  0.00000000000E+00 0. -1.
</event>
<event>
 7    1  0.3449603E-013  0.5930178E+02  0.7816164E-02  0.1266605E+00
        -11   -1    0    0    0    0  0.00000000000E+00  0.00000000000E+00  0.45593999997E+02  0.45594000000E+02  0.51100000000E-03 0. -1.
         11   -1    0    0    0    0 -0.00000000000E+00 -0.00000000000E+00 -0.45593999997E+02  0.45594000000E+02  0.51100000000E-03 0.  1.
    9900012    2    1    2    0    0  0.17459598939E+02  0.12635688872E+01 -0.26651392246E+02  0.59301781816E+02  0.49999704163E+02 0.  0.
         12    1    1    2    0    0 -0.17459598939E+02 -0.12635688872E+01  0.26651392246E+02  0.31886218184E+02  0.00000000000E+00 0. -1.
         11    1    3    3    0    0  0.61659235449E+01 -0.15800817639E+02  0.46632129909E+01  0.17590622698E+02  0.51100000000E-03 0. -1.
        -11    1    3    3    0    0  0.28739722273E+01 -0.25748688065E+01 -0.70940877981E-01  0.38593650518E+01  0.51100000000E-03 0.  1.
        -12    1    3    3    0    0  0.84197031669E+01  0.19639255333E+02 -0.31243664359E+02  0.37851794066E+02  0.00000000000E+00 0.  1.
</event>
<event>
 7    1  0.3449603E-013  0.5930196E+02  0.7816164E-02  0.1266605E+00
        -11   -1    0    0    0    0  0.00000000000E+00  0.00000000000E+00  0.45593999997E+02  0.45594000000E+02  0.51100000000E-03 0.  1.
         11   -1    0    0    0    0 -0.00000000000E+00 -0.00000000000E+00 -0.45593999997E+02  0.45594000000E+02  0.51100000000E-03 0. -1.
    9900012    2    1    2    0    0  0.31455442967E+01  0.30159897938E+02  0.98593023093E+01  0.59301957057E+02  0.50000023762E+02 0.  0.
         12    1    1    2    0    0 -0.31455442967E+01 -0.30159897938E+02 -0.98593023093E+01  0.31886042943E+02  0.00000000000E+00 0. -1.
         11    1    3    3    0    0  0.66739250249E+00  0.11283310554E+02 -0.56353090475E+01  0.12629933418E+02  0.51100000000E-03 0.  1.
        -11    1    3    3    0    0  0.83593231666E+01  0.26747184025E+02 -0.35364791408E+00  0.28025260109E+02  0.51100000000E-03 0. -1.
        -12    1    3    3    0    0 -0.58811713725E+01 -0.78705966421E+01  0.15848259271E+02  0.18646763530E+02  0.00000000000E+00 0.  1.
</event>
<event>
 7    1  0.3449603E-013  0.5930194E+02  0.7816164E-02  0.1266605E+00
        -11   -1    0    0    0    0  0.00000000000E+00  0.00000000000E+00  0.45593999997E+02  0.45594000000E+02  0.51100000000E-03 0. -1.
         11   -1    0    0    0    0 -0.00000000000E+00 -0.00000000000E+00 -0.45593999997E+02  0.45594000000E+02  0.51100000000E-03 0.  1.
    9900012    2    1    2    0    0 -0.76150592862E+01  0.17912731275E+02 -0.25256001843E+02  0.59301941938E+02  0.49999996188E+02 0.  0.
         12    1    1    2    0    0  0.76150592862E+01 -0.17912731275E+02  0.25256001843E+02  0.31886058062E+02  0.00000000000E+00 0. -1.
         11    1    3    3    0    0 -0.17615454113E+02  0.27655406701E+02 -0.13600040118E+02  0.35497701826E+02  0.51100000000E-03 0. -1.
        -11    1    3    3    0    0 -0.67229962745E+00 -0.47598835454E+01 -0.11003372517E+02  0.12007609469E+02  0.51100000000E-03 0.  1.
        -12    1    3    3    0    0  0.10672694455E+02 -0.49827918812E+01 -0.65258920794E+00  0.11796630643E+02  0.00000000000E+00 0.  1.
</event>
<event>
 7    1  0.3449603E-013  0.5930194E+02  0.7816164E-02  0.1266605E+00
        -11   -1    0    0    0    0  0.00000000000E+00  0.00000000000E+00  0.45593999997E+02  0.45594000000E+02  0.51100000000E-03 0.  1.
         11   -1    0    0    0    0 -0.00000000000E+00 -0.00000000000E+00 -0.45593999997E+02  0.45594000000E+02  0.51100000000E-03 0. -1.
    9900012    2    1    2    0    0  0.23917236304E+02 -0.15389563570E+02 -0.14416941246E+02  0.59301936364E+02  0.49999986023E+02 0.  0.
         12    1    1    2    0    0 -0.23917236304E+02  0.15389563570E+02  0.14416941246E+02  0.31886063636E+02  0.00000000000E+00 0. -1.
         11    1    3    3    0    0  0.20973386233E+02 -0.18366580660E+02 -0.10275514816E+02  0.29711957529E+02  0.51100000000E-03 0. -1.
        -11    1    3    3    0    0 -0.10610112728E+01 -0.79811044503E+01 -0.12757949525E+02  0.15086054803E+02  0.51100000000E-03 0.  1.
        -12    1    3    3    0    0  0.40048613439E+01  0.10958121540E+02  0.86165230947E+01  0.14503924032E+02  0.00000000000E+00 0.  1.
</event>
<event>
 7    1  0.3449603E-013  0.5930193E+02  0.7816164E-02  0.1266605E+00
        -11   -1    0    0    0    0  0.00000000000E+00  0.00000000000E+00  0.45593999997E+02  0.45594000000E+02  0.51100000000E-03 0. -1.
         11   -1    0    0    0    0 -0.00000000000E+00 -0.00000000000E+00 -0.45593999997E+02  0.45594000000E+02  0.51100000000E-03 0.  1.
    9900012    2    1    2    0    0 -0.31355460504E+02  0.31975230041E+01  0.48303821375E+01  0.59301927047E+02  0.49999969031E+02 0.  0.
         12    1    1    2    0    0  0.31355460504E+02 -0.31975230041E+01 -0.48303821375E+01  0.31886072953E+02  0.00000000000E+00 0. -1.
         11    1    3    3    0    0 -0.12425443179E+01  0.83444585208E+01 -0.10297345961E+02  0.13311996037E+02  0.51100000000E-03 0. -1.
        -11    1    3    3    0    0 -0.80660349640E+00 -0.10037796609E+02 -0.37980597653E+01  0.10762584644E+02  0.51100000000E-03 0.  1.
         12    1    3    3    0    0 -0.29306312690E+02  0.48908610927E+01  0.18925787864E+02  0.35227346366E+02  0.00000000000E+00 0. -1.
</event>
<event>
 7    1  0.3449603E-013  0.5930190E+02  0.7816164E-02  0.1266605E+00
        -11   -1    0    0    0    0  0.00000000000E+00  0.00000000000E+00  0.45593999997E+02  0.45594000000E+02  0.51100000000E-03 0. -1.
         11   -1    0    0    0    0 -0.00000000000E+00 -0.00000000000E+00 -0.45593999997E+02  0.45594000000E+02  0.51100000000E-03 0.  1.
    9900012    2    1    2    0    0 -0.16870166908E+02 -0.13776821498E+02 -0.23287761411E+02  0.59301903130E+02  0.49999925411E+02 0.  0.
         12    1    1    2    0    0  0.16870166908E+02  0.13776821498E+02  0.23287761411E+02  0.31886096870E+02  0.00000000000E+00 0. -1.
         11    1    3    3    0    0 -0.17801010291E+02  0.12131711549E+02 -0.26225743787E+01  0.21700974382E+02  0.51100000000E-03 0. -1.
        -11    1    3    3    0    0 -0.52689111778E+01 -0.65490269202E+00 -0.46756211521E+01  0.70747265639E+01  0.51100000000E-03 0.  1.
         12    1    3    3    0    0  0.61997545610E+01 -0.25253630355E+02 -0.15989565881E+02  0.30526202184E+02  0.00000000000E+00 0. -1.
</event>
<event>
 7    1  0.3449603E-013  0.5930195E+02  0.7816164E-02  0.1266605E+00
        -11   -1    0    0    0    0  0.00000000000E+00  0.00000000000E+00  0.45593999997E+02  0.45594000000E+02  0.51100000000E-03 0.  1.
         11   -1    0    0    0    0 -0.00000000000E+00 -0.00000000000E+00 -0.45593999997E+02  0.45594000000E+02  0.51100000000E-03 0. -1.
    9900012    2    1    2    0    0  0.29884258499E+02 -0.15361360203E+01 -0.11013257401E+02  0.59301945706E+02  0.50000003060E+02 0.  0.
         12    1    1    2    0    0 -0.29884258499E+02  0.15361360203E+01  0.11013257401E+02  0.31886054294E+02  0.00000000000E+00 0. -1.
         11    1    3    3    0    0  0.15003085113E+01  0.82768105469E+01  0.36523883597E+01  0.91704121744E+01  0.51100000000E-03 0. -1.
        -11    1    3    3    0    0 -0.40837133652E+01 -0.78861974522E+01 -0.15197878625E+02  0.17602395861E+02  0.51100000000E-03 0.  1.
         12    1    3    3    0    0  0.32467663353E+02 -0.19267491150E+01  0.53223286441E+00  0.32529137670E+02  0.00000000000E+00 0. -1.
</event>
<event>
 7    1  0.3449603E-013  0.5930195E+02  0.7816164E-02  0.1266605E+00
        -11   -1    0    0    0    0  0.00000000000E+00  0.00000000000E+00  0.45593999997E+02  0.45594000000E+02  0.51100000000E-03 0. -1.
         11   -1    0    0    0    0 -0.00000000000E+00 -0.00000000000E+00 -0.45593999997E+02  0.45594000000E+02  0.51100000000E-03 0.  1.
    9900012    2    1    2    0    0 -0.30285406956E+02  0.74405176124E+00 -0.99478944368E+01  0.59301951464E+02  0.50000013563E+02 0.  0.
         12    1    1    2    0    0  0.30285406956E+02 -0.74405176124E+00  0.99478944368E+01  0.31886048536E+02  0.00000000000E+00 0. -1.
         11    1    3    3    0    0 -0.18046872515E+02 -0.19929395481E+01 -0.88705116796E+01  0.20207607314E+02  0.51100000000E-03 0. -1.
        -11    1    3    3    0    0 -0.97387197923E+01  0.19248171426E+02  0.33202939232E+01  0.21825652761E+02  0.51100000000E-03 0.  1.
         12    1    3    3    0    0 -0.24998146479E+01 -0.16511180117E+02 -0.43976766805E+01  0.17268691390E+02  0.00000000000E+00 0. -1.
</event>
<event>
 7    1  0.3449603E-013  0.5930193E+02  0.7816164E-02  0.1266605E+00
        -11   -1    0    0    0    0  0.00000000000E+00  0.00000000000E+00  0.45593999997E+02  0.45594000000E+02  0.51100000000E-03 0.  1.
         11   -1    0    0    0    0 -0.00000000000E+00 -0.00000000000E+00 -0.45593999997E+02  0.45594000000E+02  0.51100000000E-03 0. -1.
    9900012    2    1    2    0    0  0.81908427156E+01 -0.26416390000E+02  0.15868387353E+02  0.59301932788E+02  0.49999979502E+02 0.  0.
         12    1    1    2    0    0 -0.81908427156E+01  0.26416390000E+02 -0.15868387353E+02  0.31886067212E+02  0.00000000000E+00 0. -1.
         11    1    3    3    0    0 -0.96452718403E+01  0.18054504556E+01 -0.10722911773E+02  0.14535190311E+02  0.51100000000E-03 0. -1.
        -11    1    3    3    0    0  0.46515811311E+01 -0.14054957407E+01  0.86240867880E+01  0.98988634945E+01  0.51100000000E-03 0.  1.
        -12    1    3    3    0    0  0.13184533425E+02 -0.26816344715E+02  0.17967212339E+02  0.34867878983E+02  0.00000000000E+00 0.  1.
</event>
<event>
 7    1  0.3449603E-013  0.5930194E+02  0.7816164E-02  0.1266605E+00
        -11   -1    0    0    0    0  0.00000000000E+00  0.00000000000E+00  0.45593999997E+02  0.45594000000E+02  0.51100000000E-03 0.  1.
         11   -1    0    0    0    0 -0.00000000000E+00 -0.00000000000E+00 -0.45593999997E+02  0.45594000000E+02  0.51100000000E-03 0. -1.
    9900012    2    1    2    0    0  0.32865083036E+01 -0.21125712210E+02  0.23656368343E+02  0.59301943229E+02  0.49999998543E+02 0.  0.
         12    1    1    2    0    0 -0.32865083036E+01  0.21125712210E+02 -0.23656368343E+02  0.31886056771E+02  0.00000000000E+00 0. -1.
         11    1    3    3    0    0  0.81583677250E+01  0.83510634648E+01  0.55032263141E+01  0.12906770512E+02  0.51100000000E-03 0. -1.
        -11    1    3    3    0    0  0.12091564593E+01 -0.21883428514E+02 -0.39280276856E+01  0.22266025794E+02  0.51100000000E-03 0.  1.
        -12    1    3    3    0    0 -0.60810158808E+01 -0.75933471607E+01  0.22081169715E+02  0.24129146923E+02  0.00000000000E+00 0.  1.
</event>
<event>
 7    1  0.3449603E-013  0.5930195E+02  0.7816164E-02  0.1266605E+00
        -11   -1    0    0    0    0  0.00000000000E+00  0.00000000000E+00  0.45593999997E+02  0.45594000000E+02  0.51100000000E-03 0.  1.
         11   -1    0    0    0    0 -0.00000000000E+00 -0.00000000000E+00 -0.45593999997E+02  0.45594000000E+02  0.51100000000E-03 0. -1.
    9900012    2    1    2    0    0 -0.30720852608E+02 -0.84574706165E+01 -0.11917972059E+01  0.59301953290E+02  0.50000016892E+02 0.  0.
         12    1    1    2    0    0  0.30720852608E+02  0.84574706165E+01  0.11917972059E+01  0.31886046710E+02  0.00000000000E+00 0. -1.
         11    1    3    3    0    0  0.20371468100E+01 -0.62990378680E+01  0.11887809419E+02  0.13606904800E+02  0.51100000000E-03 0. -1.
        -11    1    3    3    0    0 -0.45753167109E+01  0.13614764126E+01  0.86867729734E+01  0.99119708424E+01  0.51100000000E-03 0.  1.
         12    1    3    3    0    0 -0.28182682707E+02 -0.35199091610E+01 -0.21766379599E+02  0.35783077647E+02  0.00000000000E+00 0. -1.
</event>
<event>
 7    1  0.3449603E-013  0.5930194E+02  0.7816164E-02  0.1266605E+00
        -11   -1    0    0    0    0  0.00000000000E+00  0.00000000000E+00  0.45593999997E+02  0.45594000000E+02  0.51100000000E-03 0. -1.
         11   -1    0    0    0    0 -0.00000000000E+00 -0.00000000000E+00 -0.45593999997E+02  0.45594000000E+02  0.51100000000E-03 0.  1.
    9900012    2    1    2    0    0 -0.18603525763E+02 -0.81229402558E+01 -0.24589587035E+02  0.59301935336E+02  0.49999984148E+02 0.  0.
         12    1    1    2    0    0  0.18603525763E+02  0.81229402558E+01  0.24589587035E+02  0.31886064664E+02  0.00000000000E+00 0. -1.
         11    1    3    3    0    0 -0.13591497144E+02 -0.58701630966E+01  0.87675852142E+01  0.17206340696E+02  0.51100000000E-03 0. -1.
        -11    1    3    3    0    0 -0.14215663286E+01 -0.35197640478E+01  0.34274845455E+01  0.51144149567E+01  0.51100000000E-03 0.  1.
        -12    1    3    3    0    0 -0.35904622898E+01  0.12669868886E+01 -0.36784656795E+02  0.36981179683E+02  0.00000000000E+00 0.  1.
</event>
<event>
 7    1  0.3449603E-013  0.5930196E+02  0.7816164E-02  0.1266605E+00
        -11   -1    0    0    0    0  0.00000000000E+00  0.00000000000E+00  0.45593999997E+02  0.45594000000E+02  0.51100000000E-03 0. -1.
         11   -1    0    0    0    0 -0.00000000000E+00 -0.00000000000E+00 -0.45593999997E+02  0.45594000000E+02  0.51100000000E-03 0.  1.
    9900012    2    1    2    0    0  0.10344398859E+00  0.18644828279E+02 -0.25866571342E+02  0.59301955479E+02  0.50000020884E+02 0.  0.
         12    1    1    2    0    0 -0.10344398859E+00 -0.18644828279E+02  0.25866571342E+02  0.31886044521E+02  0.00000000000E+00 0. -1.
         11    1    3    3    0    0  0.53753878338E+01 -0.67507112586E+01 -0.38748487782E+01  0.94594582391E+01  0.51100000000E-03 0. -1.
        -11    1    3    3    0    0 -0.12535701196E+01 -0.91803599759E+01 -0.82948007587E+01  0.12436002863E+02  0.51100000000E-03 0.  1.
         12    1    3    3    0    0 -0.40183737257E+01  0.34575899513E+02 -0.13696921806E+02  0.37406494376E+02  0.00000000000E+00 0. -1.
</event>
<event>
 7    1  0.3449603E-013  0.5930193E+02  0.7816164E-02  0.1266605E+00
        -11   -1    0    0    0    0  0.00000000000E+00  0.00000000000E+00  0.45593999997E+02  0.45594000000E+02  0.51100000000E-03 0. -1.
         11   -1    0    0    0    0 -0.00000000000E+00 -0.00000000000E+00 -0.45593999997E+02  0.45594000000E+02  0.51100000000E-03 0.  1.
    9900012    2    1    2    0    0  0.16950232261E+01  0.30546410160E+02 -0.89869415924E+01  0.59301930995E+02  0.49999976232E+02 0.  0.
         12    1    1    2    0    0 -0.16950232261E+01 -0.30546410160E+02  0.89869415924E+01  0.31886069005E+02  0.00000000000E+00 0. -1.
         11    1    3    3    0    0 -0.12791078315E+02  0.20702081157E+02  0.14398237383E+02  0.28275379550E+02  0.51100000000E-03 0. -1.
        -11    1    3    3    0    0  0.14208315158E+01 -0.81830986680E+00  0.56551913926E+00  0.17344178829E+01  0.51100000000E-03 0.  1.
        -12    1    3    3    0    0  0.13065270025E+02  0.10662638870E+02 -0.23950698114E+02  0.29292133563E+02  0.00000000000E+00 0.  1.
</event>
<event>
 7    1  0.3449603E-013  0.5930192E+02  0.7816164E-02  0.1266605E+00
        -11   -1    0    0    0    0  0.00000000000E+00  0.00000000000E+00  0.45593999997E+02  0.45594000000E+02  0.51100000000E-03 0. -1.
         11   -1    0    0    0    0 -0.00000000000E+00 -0.00000000000E+00 -0.45593999997E+02  0.45594000000E+02  0.51100000000E-03 0.  1.
    9900012    2    1    2    0    0  0.22980388061E+02 -0.15130937964E+02 -0.16114547596E+02  0.59301918972E+02  0.49999954304E+02 0.  0.
         12    1    1    2    0    0 -0.22980388061E+02  0.15130937964E+02  0.16114547596E+02  0.31886081028E+02  0.00000000000E+00 0. -1.
         11    1    3    3    0    0  0.96516774507E+01  0.70043346239E+01  0.35937810486E+01  0.12455153296E+02  0.51100000000E-03 0. -1.
        -11    1    3    3    0    0  0.22006859466E+02 -0.23301866088E+02 -0.95674675454E+01  0.33448695972E+02  0.51100000000E-03 0.  1.
        -12    1    3    3    0    0 -0.86781488557E+01  0.11665935001E+01 -0.10140861099E+02  0.13398069704E+02  0.00000000000E+00 0.  1.
</event>
<event>
 7    1  0.3449603E-013  0.5930195E+02  0.7816164E-02  0.1266605E+00
        -11   -1    0    0    0    0  0.00000000000E+00  0.00000000000E+00  0.45593999997E+02  0.45594000000E+02  0.51100000000E-03 0.  1.
         11   -1    0    0    0    0 -0.00000000000E+00 -0.00000000000E+00 -0.45593999997E+02  0.45594000000E+02  0.51100000000E-03 0. -1.
    9900012    2    1    2    0    0 -0.20558142138E+02 -0.16900417004E+02  0.17563002422E+02  0.59301947294E+02  0.50000005957E+02 0.  0.
         12    1    1    2    0    0  0.20558142138E+02  0.16900417004E+02 -0.17563002422E+02  0.31886052706E+02  0.00000000000E+00 0. -1.
         11    1    3    3    0    0 -0.10823486427E+02  0.57048478218E+01 -0.76114601300E+01  0.14409284253E+02  0.51100000000E-03 0. -1.
        -11    1    3    3    0    0 -0.10015838508E+02  0.32128615731E+01  0.11824618691E+02  0.15825963097E+02  0.51100000000E-03 0.  1.
        -12    1    3    3    0    0  0.28118279713E+00 -0.25818126399E+02  0.13349843861E+02  0.29066699944E+02  0.00000000000E+00 0.  1.
</event>
<event>
 7    1  0.3449603E-013  0.5930198E+02  0.7816164E-02  0.1266605E+00
        -11   -1    0    0    0    0  0.00000000000E+00  0.00000000000E+00  0.45593999997E+02  0.45594000000E+02  0.51100000000E-03 0. -1.
         11   -1    0    0    0    0 -0.00000000000E+00 -0.00000000000E+00 -0.45593999997E+02  0.45594000000E+02  0.51100000000E-03 0.  1.
    9900012    2    1    2    0    0 -0.84819098663E+01  0.22575636799E+02  0.20859433902E+02  0.59301981833E+02  0.50000068947E+02 0.  0.
         12    1    1    2    0    0  0.84819098663E+01 -0.22575636799E+02 -0.20859433902E+02  0.31886018167E+02  0.00000000000E+00 0. -1.
         11    1    3    3    0    0 -0.19861208964E+02 -0.16306068713E+01  0.69233383308E+00  0.19940055834E+02  0.51100000000E-03 0. -1.
        -11    1    3    3    0    0 -0.41527922577E+01 -0.57874846642E+00  0.76455669159E+00  0.42620629417E+01  0.51100000000E-03 0.  1.
        -12    1    3    3    0    0  0.15532091355E+02  0.24784992136E+02  0.19402543378E+02  0.35099863057E+02  0.00000000000E+00 0.  1.
</event>
<event>
 7    1  0.3449603E-013  0.5930193E+02  0.7816164E-02  0.1266605E+00
        -11   -1    0    0    0    0  0.00000000000E+00  0.00000000000E+00  0.45593999997E+02  0.45594000000E+02  0.51100000000E-03 0. -1.
         11   -1    0    0    0    0 -0.00000000000E+00 -0.00000000000E+00 -0.45593999997E+02  0.45594000000E+02  0.51100000000E-03 0.  1.
    9900012    2    1    2    0    0 -0.29457896022E+02 -0.10957397723E+02  0.53748932522E+01  0.59301926545E+02  0.49999968116E+02 0.  0.
         12    1    1    2    0    0  0.29457896022E+02  0.10957397723E+02 -0.53748932522E+01  0.31886073455E+02  0.00000000000E+00 0. -1.
         11    1    3    3    0    0  0.10168483414E+02  0.39372360736E+01 -0.64537454694E+00  0.10923204264E+02  0.51100000000E-03 0. -1.
        -11    1    3    3    0    0  0.57367573133E-01  0.10779945781E+01 -0.42504554076E+01  0.43854001849E+01  0.51100000000E-03 0.  1.
         12    1    3    3    0    0 -0.39683747009E+02 -0.15972628375E+02  0.10270723207E+02  0.43993322096E+02  0.00000000000E+00 0. -1.
</event>
<event>
 7    1  0.3449603E-013  0.5930197E+02  0.7816164E-02  0.1266605E+00
        -11   -1    0    0    0    0  0.00000000000E+00  0.00000000000E+00  0.45593999997E+02  0.45594000000E+02  0.51100000000E-03 0.  1.
         11   -1    0    0    0    0 -0.00000000000E+00 -0.00000000000E+00 -0.45593999997E+02  0.45594000000E+02  0.51100000000E-03 0. -1.
    9900012    2    1    2    0    0  0.13188387859E+02 -0.12166528770E+02  0.26358323200E+02  0.59301965462E+02  0.50000039092E+02 0.  0.
         12    1    1    2    0    0 -0.13188387859E+02  0.12166528770E+02 -0.26358323200E+02  0.31886034538E+02  0.00000000000E+00 0. -1.
         11    1    3    3    0    0  0.12688520478E+02  0.12708087137E+02  0.56590857798E+01  0.18828682448E+02  0.51100000000E-03 0.  1.
        -11    1    3    3    0    0 -0.10063497416E+02 -0.16664313094E+02  0.55098310726E+01  0.20231943798E+02  0.51100000000E-03 0. -1.
        -12    1    3    3    0    0  0.10563364797E+02 -0.82103028137E+01  0.15189406347E+02  0.20241339217E+02  0.00000000000E+00 0.  1.
</event>
<event>
 7    1  0.3449603E-013  0.5930198E+02  0.7816164E-02  0.1266605E+00
        -11   -1    0    0    0    0  0.00000000000E+00  0.00000000000E+00  0.45593999997E+02  0.45594000000E+02  0.51100000000E-03 0.  1.
         11   -1    0    0    0    0 -0.00000000000E+00 -0.00000000000E+00 -0.45593999997E+02  0.45594000000E+02  0.51100000000E-03 0. -1.
    9900012    2    1    2    0    0 -0.19881898478E+02 -0.41408656884E+01  0.24582143959E+02  0.59301977085E+02  0.50000060289E+02 0.  0.
         12    1    1    2    0    0  0.19881898478E+02  0.41408656884E+01 -0.24582143959E+02  0.31886022915E+02  0.00000000000E+00 0. -1.
         11    1    3    3    0    0  0.95409391367E+01 -0.91038477008E+01  0.10560540959E+02  0.16894809504E+02  0.51100000000E-03 0. -1.
        -11    1    3    3    0    0 -0.12974102032E+02 -0.78274304233E+01  0.15297690858E+02  0.21531728598E+02  0.51100000000E-03 0.  1.
        -12    1    3    3    0    0 -0.16448735582E+02  0.12790412436E+02 -0.12760878576E+01  0.20875438983E+02  0.00000000000E+00 0.  1.
</event>
<event>
 7    1  0.3449603E-013  0.5930193E+02  0.7816164E-02  0.1266605E+00
        -11   -1    0    0    0    0  0.00000000000E+00  0.00000000000E+00  0.45593999997E+02  0.45594000000E+02  0.51100000000E-03 0.  1.
         11   -1    0    0    0    0 -0.00000000000E+00 -0.00000000000E+00 -0.45593999997E+02  0.45594000000E+02  0.51100000000E-03 0. -1.
    9900012    2    1    2    0    0  0.13278526156E+02 -0.17446339979E+02  0.23152264922E+02  0.59301930839E+02  0.49999975946E+02 0.  0.
         12    1    1    2    0    0 -0.13278526156E+02  0.17446339979E+02 -0.23152264922E+02  0.31886069161E+02  0.00000000000E+00 0. -1.
         11    1    3    3    0    0  0.20354432682E+01 -0.11379927967E+02  0.41674719971E+00  0.11568036494E+02  0.51100000000E-03 0. -1.
        -11    1    3    3    0    0  0.92326351463E+00 -0.21090240356E+02  0.37968599121E+01  0.21449167798E+02  0.51100000000E-03 0.  1.
         12    1    3    3    0    0  0.10319819373E+02  0.15023828344E+02  0.18938657810E+02  0.26284726547E+02  0.00000000000E+00 0. -1.
</event>
<event>
 7    1  0.3449603E-013  0.5930192E+02  0.7816164E-02  0.1266605E+00
        -11   -1    0    0    0    0  0.00000000000E+00  0.00000000000E+00  0.45593999997E+02  0.45594000000E+02  0.51100000000E-03 0.  1.
         11   -1    0    0    0    0 -0.00000000000E+00 -0.00000000000E+00 -0.45593999997E+02  0.45594000000E+02  0.51100000000E-03 0. -1.
    9900012    2    1    2    0    0 -0.14658939317E+02 -0.25075103794E+02  0.13155855308E+02  0.59301923711E+02  0.49999962948E+02 0.  0.
         12    1    1    2    0    0  0.14658939317E+02  0.25075103794E+02 -0.13155855308E+02  0.31886076289E+02  0.00000000000E+00 0. -1.
         11    1    3    3    0    0 -0.31803740957E+01 -0.90151713415E+01 -0.91164343645E+01  0.13209749032E+02  0.51100000000E-03 0. -1.
        -11    1    3    3    0    0 -0.11418427633E+02 -0.12648197698E+02 -0.56576500965E+01  0.17954564865E+02  0.51100000000E-03 0.  1.
        -12    1    3    3    0    0 -0.60137588634E-01 -0.34117347547E+01  0.27929939769E+02  0.28137609815E+02  0.00000000000E+00 0.  1.
</event>
<event>
 7    1  0.3449603E-013  0.5930193E+02  0.7816164E-02  0.1266605E+00
        -11   -1    0    0    0    0  0.00000000000E+00  0.00000000000E+00  0.45593999997E+02  0.45594000000E+02  0.51100000000E-03 0. -1.
         11   -1    0    0    0    0 -0.00000000000E+00 -0.00000000000E+00 -0.45593999997E+02  0.45594000000E+02  0.51100000000E-03 0.  1.
    9900012    2    1    2    0    0  0.23098425728E+02  0.18754420876E+01 -0.21901292350E+02  0.59301934694E+02  0.49999982977E+02 0.  0.
         12    1    1    2    0    0 -0.23098425728E+02 -0.18754420876E+01  0.21901292350E+02  0.31886065306E+02  0.00000000000E+00 0. -1.
         11    1    3    3    0    0  0.64742300113E+01 -0.11838671196E+02 -0.24526195320E+02  0.27992928519E+02  0.51100000000E-03 0.  1.
        -11    1    3    3    0    0  0.47104382768E+01 -0.27623619988E+01 -0.69468284525E+01  0.88361359418E+01  0.51100000000E-03 0. -1.
         12    1    3    3    0    0  0.11913757440E+02  0.16476475283E+02  0.95717314228E+01  0.22472870233E+02  0.00000000000E+00 0. -1.
</event>
<event>
 7    1  0.3449603E-013  0.5930194E+02  0.7816164E-02  0.1266605E+00
        -11   -1    0    0    0    0  0.00000000000E+00  0.00000000000E+00  0.45593999997E+02  0.45594000000E+02  0.51100000000E-03 0.  1.
         11   -1    0    0    0    0 -0.00000000000E+00 -0.00000000000E+00 -0.45593999997E+02  0.45594000000E+02  0.51100000000E-03 0. -1.
    9900012    2    1    2    0    0 -0.16016441676E-02 -0.24733071733E+02 -0.20124510741E+02  0.59301940781E+02  0.49999994079E+02 0.  0.
         12    1    1    2    0    0  0.16016441676E-02  0.24733071733E+02  0.20124510741E+02  0.31886059219E+02  0.00000000000E+00 0. -1.
         11    1    3    3    0    0  0.51406653331E+01 -0.69984624069E+00  0.42182447512E+01  0.66865397531E+01  0.51100000000E-03 0. -1.
        -11    1    3    3    0    0  0.11111242873E+02  0.30187814678E+01  0.17755586206E+01  0.11650123107E+02  0.51100000000E-03 0.  1.
        -12    1    3    3    0    0 -0.16253509850E+02 -0.27052006961E+02 -0.26118314113E+02  0.40965277921E+02  0.00000000000E+00 0.  1.
</event>
<event>
 7    1  0.3449603E-013  0.5930195E+02  0.7816164E-02  0.1266605E+00
        -11   -1    0    0    0    0  0.00000000000E+00  0.00000000000E+00  0.45593999997E+02  0.45594000000E+02  0.51100000000E-03 0.  1.
         11   -1    0    0    0    0 -0.00000000000E+00 -0.00000000000E+00 -0.45593999997E+02  0.45594000000E+02  0.51100000000E-03 0. -1.
    9900012    2    1    2    0    0 -0.24771820842E+02  0.39958746440E+01  0.19675114939E+02  0.59301948663E+02  0.50000008454E+02 0.  0.
         12    1    1    2    0    0  0.24771820842E+02 -0.39958746440E+01 -0.19675114939E+02  0.31886051337E+02  0.00000000000E+00 0. -1.
         11    1    3    3    0    0 -0.37629671464E+01  0.14966772730E+01  0.10812318188E+02  0.11545829960E+02  0.51100000000E-03 0. -1.
        -11    1    3    3    0    0 -0.43311543458E+01  0.55305027087E+01  0.24014298570E+02  0.25020629374E+02  0.51100000000E-03 0.  1.
         12    1    3    3    0    0 -0.16677699349E+02 -0.30313053378E+01 -0.15151501820E+02  0.22735489329E+02  0.00000000000E+00 0. -1.
</event>
<event>
 7    1  0.3449603E-013  0.5930194E+02  0.7816164E-02  0.1266605E+00
        -11   -1    0    0    0    0  0.00000000000E+00  0.00000000000E+00  0.45593999997E+02  0.45594000000E+02  0.51100000000E-03 0. -1.
         11   -1    0    0    0    0 -0.00000000000E+00 -0.00000000000E+00 -0.45593999997E+02  0.45594000000E+02  0.51100000000E-03 0.  1.
    9900012    2    1    2    0    0  0.57732760167E+00  0.25181183236E+02 -0.19552380622E+02  0.59301939028E+02  0.49999990882E+02 0.  0.
         12    1    1    2    0    0 -0.57732760167E+00 -0.25181183236E+02  0.19552380622E+02  0.31886060972E+02  0.00000000000E+00 0. -1.
         11    1    3    3    0    0  0.56744802935E+00 -0.11259493343E+02 -0.16471267530E+02  0.19959981010E+02  0.51100000000E-03 0. -1.
        -11    1    3    3    0    0  0.35214905636E+00  0.10207280504E+02 -0.75859401209E+01  0.12722384683E+02  0.51100000000E-03 0.  1.
         12    1    3    3    0    0 -0.34226948404E+00  0.26233396074E+02  0.45048270295E+01  0.26619573335E+02  0.00000000000E+00 0. -1.
</event>
<event>
 7    1  0.3449603E-013  0.5930195E+02  0.7816164E-02  0.1266605E+00
        -11   -1    0    0    0    0  0.00000000000E+00  0.00000000000E+00  0.45593999997E+02  0.45594000000E+02  0.51100000000E-03 0. -1.
         11   -1    0    0    0    0 -0.00000000000E+00 -0.00000000000E+00 -0.45593999997E+02  0.45594000000E+02  0.51100000000E-03 0.  1.
    9900012    2    1    2    0    0  0.60346346758E+00 -0.29238109292E+02 -0.12707832445E+02  0.59301949625E+02  0.50000010207E+02 0.  0.
         12    1    1    2    0    0 -0.60346346758E+00  0.29238109292E+02  0.12707832445E+02  0.31886050375E+02  0.00000000000E+00 0. -1.
         11    1    3    3    0    0  0.76446950785E+01 -0.14928657581E+02 -0.22060984125E+02  0.27712690249E+02  0.51100000000E-03 0. -1.
        -11    1    3    3    0    0 -0.12852874586E+02 -0.12566283363E+02 -0.26213236639E+01  0.18165329634E+02  0.51100000000E-03 0.  1.
         12    1    3    3    0    0  0.58116429753E+01 -0.17431683477E+01  0.11974475344E+02  0.13423929742E+02  0.00000000000E+00 0. -1.
</event>
<event>
 7    1  0.3449603E-013  0.5930193E+02  0.7816164E-02  0.1266605E+00
        -11   -1    0    0    0    0  0.00000000000E+00  0.00000000000E+00  0.45593999997E+02  0.45594000000E+02  0.51100000000E-03 0.  1.
         11   -1    0    0    0    0 -0.00000000000E+00 -0.00000000000E+00 -0.45593999997E+02  0.45594000000E+02  0.51100000000E-03 0. -1.
    9900012    2    1    2    0    0  0.16626713251E+02  0.20794327293E+02  0.17546215550E+02  0.59301932177E+02  0.49999978386E+02 0.  0.
         12    1    1    2    0    0 -0.16626713251E+02 -0.20794327293E+02 -0.17546215550E+02  0.31886067823E+02  0.00000000000E+00 0. -1.
         11    1    3    3    0    0  0.10040326687E+02 -0.60422960402E+01  0.82437936796E+01  0.14327513250E+02  0.51100000000E-03 0. -1.
        -11    1    3    3    0    0 -0.11537849991E+02  0.17507872797E+01  0.77070264163E+01  0.13985188413E+02  0.51100000000E-03 0.  1.
        -12    1    3    3    0    0  0.18124236555E+02  0.25085836053E+02  0.15953954543E+01  0.30989230514E+02  0.00000000000E+00 0.  1.
</event>
<event>
 7    1  0.3449603E-013  0.5930195E+02  0.7816164E-02  0.1266605E+00
        -11   -1    0    0    0    0  0.00000000000E+00  0.00000000000E+00  0.45593999997E+02  0.45594000000E+02  0.51100000000E-03 0. -1.
         11   -1    0    0    0    0 -0.00000000000E+00 -0.00000000000E+00 -0.45593999997E+02  0.45594000000E+02  0.51100000000E-03 0.  1.
    9900012    2    1    2    0    0 -0.35401300882E+01 -0.20808261828E+02 -0.23899870919E+02  0.59301951150E+02  0.50000012989E+02 0.  0.
         12    1    1    2    0    0  0.35401300882E+01  0.20808261828E+02  0.23899870919E+02  0.31886048850E+02  0.00000000000E+00 0. -1.
         11    1    3    3    0    0 -0.20785271715E+02 -0.10157426522E+02 -0.42806720161E+01  0.23527111743E+02  0.51100000000E-03 0. -1.
        -11    1    3    3    0    0 -0.48988094915E+01 -0.47140589251E+01 -0.28562601616E+01  0.73742056084E+01  0.51100000000E-03 0.  1.
        -12    1    3    3    0    0  0.22143951118E+02 -0.59367763813E+01 -0.16762938741E+02  0.28400633798E+02  0.00000000000E+00 0.  1.
</event>
<event>
 7    1  0.3449603E-013  0.5930189E+02  0.7816164E-02  0.1266605E+00
        -11   -1    0    0    0    0  0.00000000000E+00  0.00000000000E+00  0.45593999997E+02  0.45594000000E+02  0.51100000000E-03 0.  1.
         11   -1    0    0    0    0 -0.00000000000E+00 -0.00000000000E+00 -0.45593999997E+02  0.45594000000E+02  0.51100000000E-03 0. -1.
    9900012    2    1    2    0    0 -0.43268166617E+01  0.31009138430E+02 -0.60362386844E+01  0.59301887254E+02  0.49999896458E+02 0.  0.
         12    1    1    2    0    0  0.43268166617E+01 -0.31009138430E+02  0.60362386844E+01  0.31886112746E+02  0.00000000000E+00 0. -1.
         11    1    3    3    0    0  0.16534573323E+01 -0.37414619889E+01 -0.72511757775E+01  0.83253834375E+01  0.51100000000E-03 0. -1.
        -11    1    3    3    0    0 -0.53495082831E+01  0.48190239021E+01  0.16030312735E+02  0.17573023555E+02  0.51100000000E-03 0.  1.
        -12    1    3    3    0    0 -0.63076571082E+00  0.29931576517E+02 -0.14815375642E+02  0.33403480261E+02  0.00000000000E+00 0.  1.
</event>
<event>
 7    1  0.3449603E-013  0.5930194E+02  0.7816164E-02  0.1266605E+00
        -11   -1    0    0    0    0  0.00000000000E+00  0.00000000000E+00  0.45593999997E+02  0.45594000000E+02  0.51100000000E-03 0.  1.
         11   -1    0    0    0    0 -0.00000000000E+00 -0.00000000000E+00 -0.45593999997E+02  0.45594000000E+02  0.51100000000E-03 0. -1.
    9900012    2    1    2    0    0  0.11025352810E+02 -0.26032680138E+02  0.14746587136E+02  0.59301942358E+02  0.49999996956E+02 0.  0.
         12    1    1    2    0    0 -0.11025352810E+02  0.26032680138E+02 -0.14746587136E+02  0.31886057642E+02  0.00000000000E+00 0. -1.
         11    1    3    3    0    0  0.52029583290E+01 -0.86491922390E+01 -0.31321899134E+01  0.10568344983E+02  0.51100000000E-03 0. -1.
        -11    1    3    3    0    0  0.20786387612E+02 -0.19621856549E+02  0.53322579319E+01  0.29077897780E+02  0.51100000000E-03 0.  1.
        -12    1    3    3    0    0 -0.14963993131E+02  0.22383686496E+01  0.12546519117E+02  0.19655699596E+02  0.00000000000E+00 0.  1.
</event>
<event>
 7    1  0.3449603E-013  0.5930174E+02  0.7816164E-02  0.1266605E+00
        -11   -1    0    0    0    0  0.00000000000E+00  0.00000000000E+00  0.45593999997E+02  0.45594000000E+02  0.51100000000E-03 0.  1.
         11   -1    0    0    0    0 -0.00000000000E+00 -0.00000000000E+00 -0.45593999997E+02  0.45594000000E+02  0.51100000000E-03 0. -1.
    9900012    2    1    2    0    0  0.31296071890E+02  0.39502500366E+01  0.46567009260E+01  0.59301741916E+02  0.49999631394E+02 0.  0.
         12    1    1    2    0    0 -0.31296071890E+02 -0.39502500366E+01 -0.46567009260E+01  0.31886258084E+02  0.00000000000E+00 0. -1.
         11    1    3    3    0    0  0.25166783730E+02  0.52754410141E+01  0.11606611465E+02  0.28211889536E+02  0.51100000000E-03 0. -1.
        -11    1    3    3    0    0  0.96650349746E+01  0.11188790908E+02  0.25263227109E+01  0.14999474982E+02  0.51100000000E-03 0.  1.
        -12    1    3    3    0    0 -0.35357468146E+01 -0.12513981886E+02 -0.94762332502E+01  0.16090377397E+02  0.00000000000E+00 0.  1.
</event>
<event>
 7    1  0.3449603E-013  0.5930192E+02  0.7816164E-02  0.1266605E+00
        -11   -1    0    0    0    0  0.00000000000E+00  0.00000000000E+00  0.45593999997E+02  0.45594000000E+02  0.51100000000E-03 0.  1.
         11   -1    0    0    0    0 -0.00000000000E+00 -0.00000000000E+00 -0.45593999997E+02  0.45594000000E+02  0.51100000000E-03 0. -1.
    9900012    2    1    2    0    0  0.81123182377E-01 -0.22789149643E+02  0.22301799441E+02  0.59301918699E+02  0.49999953807E+02 0.  0.
         12    1    1    2    0    0 -0.81123182377E-01  0.22789149643E+02 -0.22301799441E+02  0.31886081301E+02  0.00000000000E+00 0. -1.
         11    1    3    3    0    0 -0.32417208276E+01 -0.72390258674E+01 -0.84550552180E+01  0.11593110386E+02  0.51100000000E-03 0. -1.
        -11    1    3    3    0    0 -0.12617302886E+02 -0.11576369919E+02  0.24998724503E+02  0.30300905922E+02  0.51100000000E-03 0.  1.
         12    1    3    3    0    0  0.15940146896E+02 -0.39737538570E+01  0.57581301552E+01  0.17407902391E+02  0.00000000000E+00 0. -1.
</event>
<event>
 7    1  0.3449603E-013  0.5930195E+02  0.7816164E-02  0.1266605E+00
        -11   -1    0    0    0    0  0.00000000000E+00  0.00000000000E+00  0.45593999997E+02  0.45594000000E+02  0.51100000000E-03 0. -1.
         11   -1    0    0    0    0 -0.00000000000E+00 -0.00000000000E+00 -0.45593999997E+02  0.45594000000E+02  0.51100000000E-03 0.  1.
    9900012    2    1    2    0    0 -0.66922737669E+01 -0.24563421147E+02  0.19198230810E+02  0.59301948930E+02  0.50000008940E+02 0.  0.
         12    1    1    2    0    0  0.66922737669E+01  0.24563421147E+02 -0.19198230810E+02  0.31886051070E+02  0.00000000000E+00 0. -1.
         11    1    3    3    0    0 -0.11501393730E+02 -0.20273782729E+02  0.26113736049E+01  0.23454799003E+02  0.51100000000E-03 0. -1.
        -11    1    3    3    0    0 -0.10371507846E+01 -0.15477461128E+02  0.66233371028E+00  0.15526305772E+02  0.51100000000E-03 0.  1.
        -12    1    3    3    0    0  0.58462707480E+01  0.11187822710E+02  0.15924523494E+02  0.20320844155E+02  0.00000000000E+00 0.  1.
</event>
<event>
 7    1  0.3449603E-013  0.5930194E+02  0.7816164E-02  0.1266605E+00
        -11   -1    0    0    0    0  0.00000000000E+00  0.00000000000E+00  0.45593999997E+02  0.45594000000E+02  0.51100000000E-03 0.  1.
         11   -1    0    0    0    0 -0.00000000000E+00 -0.00000000000E+00 -0.45593999997E+02  0.45594000000E+02  0.51100000000E-03 0. -1.
    9900012    2    1    2    0    0  0.11769290020E+02  0.21477263030E+02  0.20418905595E+02  0.59301941596E+02  0.49999995565E+02 0.  0.
         12    1    1    2    0    0 -0.11769290020E+02 -0.21477263030E+02 -0.20418905595E+02  0.31886058404E+02  0.00000000000E+00 0. -1.
         11    1    3    3    0    0 -0.93567247681E+01 -0.30278718262E+00  0.56458057374E+01  0.10932296243E+02  0.51100000000E-03 0. -1.
        -11    1    3    3    0    0 -0.19465727751E+01 -0.38573608604E+01  0.13148843061E+02  0.13840536567E+02  0.51100000000E-03 0.  1.
         12    1    3    3    0    0  0.23072587564E+02  0.25637411073E+02  0.16242567970E+01  0.34529108786E+02  0.00000000000E+00 0. -1.
</event>
<event>
 7    1  0.3449603E-013  0.5930192E+02  0.7816164E-02  0.1266605E+00
        -11   -1    0    0    0    0  0.00000000000E+00  0.00000000000E+00  0.45593999997E+02  0.45594000000E+02  0.51100000000E-03 0.  1.
         11   -1    0    0    0    0 -0.00000000000E+00 -0.00000000000E+00 -0.45593999997E+02  0.45594000000E+02  0.51100000000E-03 0. -1.
    9900012    2    1    2    0    0 -0.13981012383E+01  0.20790451156E+02  0.24135549430E+02  0.59301916944E+02  0.49999950606E+02 0.  0.
         12    1    1    2    0    0  0.13981012383E+01 -0.20790451156E+02 -0.24135549430E+02  0.31886083056E+02  0.00000000000E+00 0. -1.
         11    1    3    3    0    0  0.76575986335E+01 -0.66045330300E+01  0.94546689249E+01  0.13843750869E+02  0.51100000000E-03 0. -1.
        -11    1    3    3    0    0  0.48710951024E+01 -0.48719449937E+00  0.13398671734E+02  0.14264968646E+02  0.51100000000E-03 0.  1.
        -12    1    3    3    0    0 -0.13926794974E+02  0.27882178686E+02  0.12822087707E+01  0.31193197429E+02  0.00000000000E+00 0.  1.
</event>
<event>
 7    1  0.3449603E-013  0.5930199E+02  0.7816164E-02  0.1266605E+00
        -11   -1    0    0    0    0  0.00000000000E+00  0.00000000000E+00  0.45593999997E+02  0.45594000000E+02  0.51100000000E-03 0.  1.
         11   -1    0    0    0    0 -0.00000000000E+00 -0.00000000000E+00 -0.45593999997E+02  0.45594000000E+02  0.51100000000E-03 0. -1.
    9900012    2    1    2    0    0  0.26754856687E+02 -0.88361004904E+01  0.14927116195E+02  0.59301986983E+02  0.50000078340E+02 0.  0.
         12    1    1    2    0    0 -0.26754856687E+02  0.88361004904E+01 -0.14927116195E+02  0.31886013017E+02  0.00000000000E+00 0. -1.
         11    1    3    3    0    0  0.15696131793E+02 -0.52949327247E+01 -0.75367531977E+00  0.16582306612E+02  0.51100000000E-03 0.  1.
        -11    1    3    3    0    0  0.11723445569E+02  0.16005570291E+02  0.10683031022E+02  0.22533189043E+02  0.51100000000E-03 0. -1.
        -12    1    3    3    0    0 -0.66472067462E+00 -0.19546738056E+02  0.49977604922E+01  0.20186491329E+02  0.00000000000E+00 0.  1.
</event>
<event>
 7    1  0.3449603E-013  0.5930195E+02  0.7816164E-02  0.1266605E+00
        -11   -1    0    0    0    0  0.00000000000E+00  0.00000000000E+00  0.45593999997E+02  0.45594000000E+02  0.51100000000E-03 0. -1.
         11   -1    0    0    0    0 -0.00000000000E+00 -0.00000000000E+00 -0.45593999997E+02  0.45594000000E+02  0.51100000000E-03 0.  1.
    9900012    2    1    2    0    0  0.58255037741E+01  0.24650206523E+02 -0.19368821558E+02  0.59301946240E+02  0.50000004035E+02 0.  0.
         12    1    1    2    0    0 -0.58255037741E+01 -0.24650206523E+02  0.19368821558E+02  0.31886053760E+02  0.00000000000E+00 0. -1.
         11    1    3    3    0    0  0.18488033979E+02  0.94621857207E+00 -0.12056440628E+02  0.22092091138E+02  0.51100000000E-03 0. -1.
        -11    1    3    3    0    0  0.67280773629E+01  0.67905171823E+01 -0.63212828578E+01  0.11460225383E+02  0.51100000000E-03 0.  1.
        -12    1    3    3    0    0 -0.19390607568E+02  0.16913470768E+02 -0.99109807260E+00  0.25749629719E+02  0.00000000000E+00 0.  1.
</event>
<event>
 7    1  0.3449603E-013  0.5930193E+02  0.7816164E-02  0.1266605E+00
        -11   -1    0    0    0    0  0.00000000000E+00  0.00000000000E+00  0.45593999997E+02  0.45594000000E+02  0.51100000000E-03 0.  1.
         11   -1    0    0    0    0 -0.00000000000E+00 -0.00000000000E+00 -0.45593999997E+02  0.45594000000E+02  0.51100000000E-03 0. -1.
    9900012    2    1    2    0    0  0.12418155064E+02  0.26030308232E+02  0.13599036952E+02  0.59301932072E+02  0.49999978196E+02 0.  0.
         12    1    1    2    0    0 -0.12418155064E+02 -0.26030308232E+02 -0.13599036952E+02  0.31886067928E+02  0.00000000000E+00 0. -1.
         11    1    3    3    0    0  0.23639831730E+02  0.72604707574E+01 -0.60988694571E+01  0.25470616184E+02  0.51100000000E-03 0. -1.
        -11    1    3    3    0    0 -0.53694350169E+01 -0.20537534337E+01  0.55105575962E+01  0.79633523625E+01  0.51100000000E-03 0.  1.
        -12    1    3    3    0    0 -0.58522416490E+01  0.20823590909E+02  0.14187348813E+02  0.25867963526E+02  0.00000000000E+00 0.  1.
</event>
<event>
 7    1  0.3449603E-013  0.5930194E+02  0.7816164E-02  0.1266605E+00
        -11   -1    0    0    0    0  0.00000000000E+00  0.00000000000E+00  0.45593999997E+02  0.45594000000E+02  0.51100000000E-03 0.  1.
         11   -1    0    0    0    0 -0.00000000000E+00 -0.00000000000E+00 -0.45593999997E+02  0.45594000000E+02  0.51100000000E-03 0. -1.
    9900012    2    1    2    0    0  0.29172278062E+02  0.11949937140E+02 -0.47851848429E+01  0.59301940366E+02  0.49999993322E+02 0.  0.
         12    1    1    2    0    0 -0.29172278062E+02 -0.11949937140E+02  0.47851848429E+01  0.31886059634E+02  0.00000000000E+00 0. -1.
         11    1    3    3    0    0  0.91940658531E+01  0.65613420287E+01 -0.29792689266E+01  0.11681528142E+02  0.51100000000E-03 0. -1.
        -11    1    3    3    0    0  0.32612139954E+02  0.99634579686E+01 -0.31901490609E+00  0.34101670602E+02  0.51100000000E-03 0.  1.
        -12    1    3    3    0    0 -0.12633927745E+02 -0.45748628577E+01 -0.14869010102E+01  0.13518741622E+02  0.00000000000E+00 0.  1.
</event>
<event>
 7    1  0.3449603E-013  0.5930210E+02  0.7816164E-02  0.1266604E+00
        -11   -1    0    0    0    0  0.00000000000E+00  0.00000000000E+00  0.45593999997E+02  0.45594000000E+02  0.51100000000E-03 0.  1.
         11   -1    0    0    0    0 -0.00000000000E+00 -0.00000000000E+00 -0.45593999997E+02  0.45594000000E+02  0.51100000000E-03 0. -1.
    9900012    2    1    2    0    0 -0.57486467531E+01  0.30812595535E+02  0.58521297240E+01  0.59302103347E+02  0.50000290559E+02 0.  0.
         12    1    1    2    0    0  0.57486467531E+01 -0.30812595535E+02 -0.58521297240E+01  0.31885896653E+02  0.00000000000E+00 0. -1.
         11    1    3    3    0    0 -0.24148382491E+01 -0.32385798170E+01  0.14902782323E+01  0.43058997284E+01  0.51100000000E-03 0. -1.
        -11    1    3    3    0    0 -0.86352764047E+01 -0.39582059667E+00  0.16055122254E+02  0.18234352837E+02  0.51100000000E-03 0.  1.
         12    1    3    3    0    0  0.53014679006E+01  0.34446995948E+02 -0.11693270762E+02  0.36761850782E+02  0.00000000000E+00 0. -1.
</event>
<event>
 7    1  0.3449603E-013  0.5930195E+02  0.7816164E-02  0.1266605E+00
        -11   -1    0    0    0    0  0.00000000000E+00  0.00000000000E+00  0.45593999997E+02  0.45594000000E+02  0.51100000000E-03 0. -1.
         11   -1    0    0    0    0 -0.00000000000E+00 -0.00000000000E+00 -0.45593999997E+02  0.45594000000E+02  0.51100000000E-03 0.  1.
    9900012    2    1    2    0    0  0.12806785041E+02  0.15757168351E+02 -0.24584916155E+02  0.59301949760E+02  0.50000010455E+02 0.  0.
         12    1    1    2    0    0 -0.12806785041E+02 -0.15757168351E+02  0.24584916155E+02  0.31886050240E+02  0.00000000000E+00 0. -1.
         11    1    3    3    0    0 -0.46499136714E+00  0.16713013814E+02 -0.17453248403E+02  0.24169338588E+02  0.51100000000E-03 0. -1.
        -11    1    3    3    0    0 -0.25561022954E+01  0.53567044746E+01 -0.15171320540E+02  0.16291006997E+02  0.51100000000E-03 0.  1.
         12    1    3    3    0    0  0.15827878704E+02 -0.63125499372E+01  0.80396527879E+01  0.18841604176E+02  0.00000000000E+00 0. -1.
</event>
<event>
 7    1  0.3449603E-013  0.5930195E+02  0.7816164E-02  0.1266605E+00
        -11   -1    0    0    0    0  0.00000000000E+00  0.00000000000E+00  0.45593999997E+02  0.45594000000E+02  0.51100000000E-03 0.  1.
         11   -1    0    0    0    0 -0.00000000000E+00 -0.00000000000E+00 -0.45593999997E+02  0.45594000000E+02  0.51100000000E-03 0. -1.
    9900012    2    1    2    0    0 -0.86936690438E+01  0.17150698501E+02  0.25436075789E+02  0.59301948315E+02  0.50000007818E+02 0.  0.
         12    1    1    2    0    0  0.86936690438E+01 -0.17150698501E+02 -0.25436075789E+02  0.31886051685E+02  0.00000000000E+00 0. -1.
         11    1    3    3    0    0 -0.47995033385E+01 -0.16119018410E+01  0.27281479455E+02  0.27747298632E+02  0.51100000000E-03 0. -1.
        -11    1    3    3    0    0  0.40306619798E+01  0.18114546871E+02  0.68412052002E+01  0.19778400673E+02  0.51100000000E-03 0.  1.
        -12    1    3    3    0    0 -0.79248276852E+01  0.64805347141E+00 -0.86866088662E+01  0.11776249010E+02  0.00000000000E+00 0.  1.
</event>
<event>
 7    1  0.3449603E-013  0.5930197E+02  0.7816164E-02  0.1266605E+00
        -11   -1    0    0    0    0  0.00000000000E+00  0.00000000000E+00  0.45593999997E+02  0.45594000000E+02  0.51100000000E-03 0.  1.
         11   -1    0    0    0    0 -0.00000000000E+00 -0.00000000000E+00 -0.45593999997E+02  0.45594000000E+02  0.51100000000E-03 0. -1.
    9900012    2    1    2    0    0  0.10579780713E+02 -0.14592302053E+02  0.26303081703E+02  0.59301966282E+02  0.50000040587E+02 0.  0.
         12    1    1    2    0    0 -0.10579780713E+02  0.14592302053E+02 -0.26303081703E+02  0.31886033718E+02  0.00000000000E+00 0. -1.
         11    1    3    3    0    0  0.33291142138E+01 -0.16937373540E+02  0.21183708011E+02  0.27325942056E+02  0.51100000000E-03 0. -1.
        -11    1    3    3    0    0  0.37805111868E+01  0.71184683296E+01  0.16942425490E+02  0.18761946539E+02  0.51100000000E-03 0.  1.
         12    1    3    3    0    0  0.34701553123E+01 -0.47733968426E+01 -0.11823051798E+02  0.13214077687E+02  0.00000000000E+00 0. -1.
</event>
<event>
 7    1  0.3449603E-013  0.5930193E+02  0.7816164E-02  0.1266605E+00
        -11   -1    0    0    0    0  0.00000000000E+00  0.00000000000E+00  0.45593999997E+02  0.45594000000E+02  0.51100000000E-03 0. -1.
         11   -1    0    0    0    0 -0.00000000000E+00 -0.00000000000E+00 -0.45593999997E+02  0.45594000000E+02  0.51100000000E-03 0.  1.
    9900012    2    1    2    0    0 -0.48040337459E+01  0.12647631299E+02 -0.28873521972E+02  0.59301927981E+02  0.49999970734E+02 0.  0.
         12    1    1    2    0    0  0.48040337459E+01 -0.12647631299E+02  0.28873521972E+02  0.31886072019E+02  0.00000000000E+00 0. -1.
         11    1    3    3    0    0  0.10423354254E+02  0.99210708054E+01 -0.19195735983E+02  0.23990628170E+02  0.51100000000E-03 0. -1.
        -11    1    3    3    0    0  0.40346052249E+01  0.14827746723E+01 -0.14742018668E+02  0.15355903579E+02  0.51100000000E-03 0.  1.
        -12    1    3    3    0    0 -0.19261993225E+02  0.12437858215E+01  0.50642326782E+01  0.19955396232E+02  0.00000000000E+00 0.  1.
</event>
<event>
 7    1  0.3449603E-013  0.5930196E+02  0.7816164E-02  0.1266605E+00
        -11   -1    0    0    0    0  0.00000000000E+00  0.00000000000E+00  0.45593999997E+02  0.45594000000E+02  0.51100000000E-03 0.  1.
         11   -1    0    0    0    0 -0.00000000000E+00 -0.00000000000E+00 -0.45593999997E+02  0.45594000000E+02  0.51100000000E-03 0. -1.
    9900012    2    1    2    0    0  0.36641065045E+01  0.24066487938E+02  0.20593643335E+02  0.59301958165E+02  0.50000025783E+02 0.  0.
         12    1    1    2    0    0 -0.36641065045E+01 -0.24066487938E+02 -0.20593643335E+02  0.31886041835E+02  0.00000000000E+00 0. -1.
         11    1    3    3    0    0 -0.61368823722E+01  0.11747550591E+01  0.13975037519E+02  0.15308267329E+02  0.51100000000E-03 0. -1.
        -11    1    3    3    0    0  0.96955742382E+01  0.16656404069E+01  0.17549043246E+02  0.20118335838E+02  0.51100000000E-03 0.  1.
         12    1    3    3    0    0  0.10541463858E+00  0.21226092472E+02 -0.10930437430E+02  0.23875354998E+02  0.00000000000E+00 0. -1.
</event>
<event>
 7    1  0.3449603E-013  0.5930191E+02  0.7816164E-02  0.1266605E+00
        -11   -1    0    0    0    0  0.00000000000E+00  0.00000000000E+00  0.45593999997E+02  0.45594000000E+02  0.51100000000E-03 0. -1.
         11   -1    0    0    0    0 -0.00000000000E+00 -0.00000000000E+00 -0.45593999997E+02  0.45594000000E+02  0.51100000000E-03 0.  1.
    9900012    2    1    2    0    0 -0.21247438999E+02 -0.21268273724E+02 -0.10626839418E+02  0.59301908248E+02  0.49999934746E+02 0.  0.
         12    1    1    2    0    0  0.21247438999E+02  0.21268273724E+02  0.10626839418E+02  0.31886091752E+02  0.00000000000E+00 0. -1.
         11    1    3    3    0    0  0.47297333545E+00  0.71463083985E+01  0.60986102498E+01  0.94067249743E+01  0.51100000000E-03 0. -1.
        -11    1    3    3    0    0  0.28889576754E+01  0.11493903807E+01 -0.10472185622E+02  0.10924003234E+02  0.51100000000E-03 0.  1.
        -12    1    3    3    0    0 -0.24609370010E+02 -0.29563972503E+02 -0.62532640460E+01  0.38971180039E+02  0.00000000000E+00 0.  1.
</event>
<event>
 7    1  0.3449603E-013  0.5930193E+02  0.7816164E-02  0.1266605E+00
        -11   -1    0    0    0    0  0.00000000000E+00  0.00000000000E+00  0.45593999997E+02  0.45594000000E+02  0.51100000000E-03 0.  1.
         11   -1    0    0    0    0 -0.00000000000E+00 -0.00000000000E+00 -0.45593999997E+02  0.45594000000E+02  0.51100000000E-03 0. -1.
    9900012    2    1    2    0    0  0.11341943977E+02 -0.28987883972E+02  0.69126412953E+01  0.59301925923E+02  0.49999966982E+02 0.  0.
         12    1    1    2    0    0 -0.11341943977E+02  0.28987883972E+02 -0.69126412953E+01  0.31886074077E+02  0.00000000000E+00 0. -1.
         11    1    3    3    0    0  0.18740717386E+02 -0.71817231469E+00  0.26759747783E+01  0.18944421366E+02  0.51100000000E-03 0.  1.
        -11    1    3    3    0    0  0.18199415866E+01  0.24594652260E+01  0.75094407850E+01  0.81088135841E+01  0.51100000000E-03 0. -1.
        -12    1    3    3    0    0 -0.92187149956E+01 -0.30729176883E+02 -0.32727742680E+01  0.32248690973E+02  0.00000000000E+00 0.  1.
</event>
<event>
 7    1  0.3449603E-013  0.5930206E+02  0.7816164E-02  0.1266604E+00
        -11   -1    0    0    0    0  0.00000000000E+00  0.00000000000E+00  0.45593999997E+02  0.45594000000E+02  0.51100000000E-03 0.  1.
         11   -1    0    0    0    0 -0.00000000000E+00 -0.00000000000E+00 -0.45593999997E+02  0.45594000000E+02  0.51100000000E-03 0. -1.
    9900012    2    1    2    0    0  0.10473062075E+02  0.11971937905E+02  0.27635133118E+02  0.59302064089E+02  0.50000218963E+02 0.  0.
         12    1    1    2    0    0 -0.10473062075E+02 -0.11971937905E+02 -0.27635133118E+02  0.31885935911E+02  0.00000000000E+00 0. -1.
         11    1    3    3    0    0  0.56274896681E+00 -0.26102945617E+01 -0.97937994258E+01  0.10151297038E+02  0.51100000000E-03 0. -1.
        -11    1    3    3    0    0  0.13230673082E+02  0.59314685712E+01  0.48644967620E+01  0.15293670541E+02  0.51100000000E-03 0.  1.
        -12    1    3    3    0    0 -0.33203599735E+01  0.86507638955E+01  0.32564435782E+02  0.33857096511E+02  0.00000000000E+00 0.  1.
</event>
<event>
 7    1  0.3449603E-013  0.5930189E+02  0.7816164E-02  0.1266605E+00
        -11   -1    0    0    0    0  0.00000000000E+00  0.00000000000E+00  0.45593999997E+02  0.45594000000E+02  0.51100000000E-03 0.  1.
         11   -1    0    0    0    0 -0.00000000000E+00 -0.00000000000E+00 -0.45593999997E+02  0.45594000000E+02  0.51100000000E-03 0. -1.
    9900012    2    1    2    0    0 -0.10389772426E+02  0.80484411039E+01  0.29051666913E+02  0.59301888201E+02  0.49999898185E+02 0.  0.
         12    1    1    2    0    0  0.10389772426E+02 -0.80484411039E+01 -0.29051666913E+02  0.31886111799E+02  0.00000000000E+00 0. -1.
         11    1    3    3    0    0 -0.13187513714E+02  0.66989464628E+00  0.31397743153E+02  0.34061379188E+02  0.51100000000E-03 0.  1.
        -11    1    3    3    0    0 -0.90871542264E+01  0.93533952913E+01 -0.19531560673E+01  0.13186250198E+02  0.51100000000E-03 0. -1.
         12    1    3    3    0    0  0.11884895515E+02 -0.19748488337E+01 -0.39292017269E+00  0.12054258815E+02  0.00000000000E+00 0. -1.
</event>
<event>
 7    1  0.4592264E-013  0.5930191E+02  0.7816164E-02  0.1266605E+00
        -11   -1    0    0    0    0  0.00000000000E+00  0.00000000000E+00  0.45593999997E+02  0.45594000000E+02  0.51100000000E-03 0. -1.
         11   -1    0    0    0    0 -0.00000000000E+00 -0.00000000000E+00 -0.45593999997E+02  0.45594000000E+02  0.51100000000E-03 0.  1.
    9900012    2    1    2    0    0 -0.15232335913E+02 -0.48102090414E+01 -0.27596388212E+02  0.59301908821E+02  0.49999935791E+02 0.  0.
         12    1    1    2    0    0  0.15232335913E+02  0.48102090414E+01  0.27596388212E+02  0.31886091179E+02  0.00000000000E+00 0. -1.
         11    1    3    3    0    0 -0.91269870400E+01 -0.46372966334E+01 -0.53717819512E+01  0.11561247947E+02  0.51100000000E-03 0. -1.
        -11    1    3    3    0    0 -0.79981744916E+01 -0.80339834621E+01 -0.32641401305E+02  0.34553968873E+02  0.51100000000E-03 0.  1.
         12    1    3    3    0    0  0.18928256189E+01  0.78610710540E+01  0.10416795044E+02  0.13186692001E+02  0.00000000000E+00 0. -1.
</event>
<event>
 7    1  0.3449603E-013  0.5930193E+02  0.7816164E-02  0.1266605E+00
        -11   -1    0    0    0    0  0.00000000000E+00  0.00000000000E+00  0.45593999997E+02  0.45594000000E+02  0.51100000000E-03 0.  1.
         11   -1    0    0    0    0 -0.00000000000E+00 -0.00000000000E+00 -0.45593999997E+02  0.45594000000E+02  0.51100000000E-03 0. -1.
    9900012    2    1    2    0    0 -0.87261889221E+01 -0.19778509631E+02 -0.23438975413E+02  0.59301931180E+02  0.49999976569E+02 0.  0.
         12    1    1    2    0    0  0.87261889221E+01  0.19778509631E+02  0.23438975413E+02  0.31886068820E+02  0.00000000000E+00 0. -1.
         11    1    3    3    0    0 -0.13829068843E+02  0.38151343404E+01 -0.27597137390E+01  0.14608710254E+02  0.51100000000E-03 0. -1.
        -11    1    3    3    0    0  0.11908256987E+02 -0.19624288619E+02 -0.42280319675E+00  0.22958616053E+02  0.51100000000E-03 0.  1.
         12    1    3    3    0    0 -0.68053770663E+01 -0.39693553533E+01 -0.20256458478E+02  0.21734604873E+02  0.00000000000E+00 0. -1.
</event>
<event>
 7    1  0.3449603E-013  0.5930200E+02  0.7816164E-02  0.1266605E+00
        -11   -1    0    0    0    0  0.00000000000E+00  0.00000000000E+00  0.45593999997E+02  0.45594000000E+02  0.51100000000E-03 0.  1.
         11   -1    0    0    0    0 -0.00000000000E+00 -0.00000000000E+00 -0.45593999997E+02  0.45594000000E+02  0.51100000000E-03 0. -1.
    9900012    2    1    2    0    0 -0.19747449383E+02 -0.23841044033E+02  0.76393427292E+01  0.59302004719E+02  0.50000110686E+02 0.  0.
         12    1    1    2    0    0  0.19747449383E+02  0.23841044033E+02 -0.76393427292E+01  0.31885995281E+02  0.00000000000E+00 0. -1.
         11    1    3    3    0    0  0.22460462245E+01  0.59641934309E+00  0.13754418408E+02  0.13949353593E+02  0.51100000000E-03 0. -1.
        -11    1    3    3    0    0 -0.11989247755E+02 -0.27172854575E+02  0.50357048909E+01  0.30124149971E+02  0.51100000000E-03 0.  1.
        -12    1    3    3    0    0 -0.10004247853E+02  0.27353911992E+01 -0.11150780569E+02  0.15228501155E+02  0.00000000000E+00 0.  1.
</event>
<event>
 7    1  0.3449603E-013  0.5930187E+02  0.7816164E-02  0.1266605E+00
        -11   -1    0    0    0    0  0.00000000000E+00  0.00000000000E+00  0.45593999997E+02  0.45594000000E+02  0.51100000000E-03 0. -1.
         11   -1    0    0    0    0 -0.00000000000E+00 -0.00000000000E+00 -0.45593999997E+02  0.45594000000E+02  0.51100000000E-03 0.  1.
    9900012    2    1    2    0    0 -0.74109216263E+00  0.31406353186E+02 -0.54604799985E+01  0.59301873239E+02  0.49999870897E+02 0.  0.
         12    1    1    2    0    0  0.74109216263E+00 -0.31406353186E+02  0.54604799985E+01  0.31886126761E+02  0.00000000000E+00 0. -1.
         11    1    3    3    0    0 -0.12407322688E+02  0.19712702014E+02  0.39741395804E+01  0.23628924280E+02  0.51100000000E-03 0. -1.
        -11    1    3    3    0    0 -0.61518717925E+01  0.14682328643E+02 -0.16641927632E+01  0.16005806407E+02  0.51100000000E-03 0.  1.
         12    1    3    3    0    0  0.17818102318E+02 -0.29886774712E+01 -0.77704268156E+01  0.19667142551E+02  0.00000000000E+00 0. -1.
</event>
<event>
 7    1  0.3449603E-013  0.5930195E+02  0.7816164E-02  0.1266605E+00
        -11   -1    0    0    0    0  0.00000000000E+00  0.00000000000E+00  0.45593999997E+02  0.45594000000E+02  0.51100000000E-03 0.  1.
         11   -1    0    0    0    0 -0.00000000000E+00 -0.00000000000E+00 -0.45593999997E+02  0.45594000000E+02  0.51100000000E-03 0. -1.
    9900012    2    1    2    0    0 -0.12347896822E+02 -0.29327850981E+02 -0.20314882887E+01  0.59301947505E+02  0.50000006341E+02 0.  0.
         12    1    1    2    0    0  0.12347896822E+02  0.29327850981E+02  0.20314882887E+01  0.31886052495E+02  0.00000000000E+00 0. -1.
         11    1    3    3    0    0 -0.13989550747E+02  0.18689635458E+01 -0.82957455009E+01  0.16371314807E+02  0.51100000000E-03 0. -1.
        -11    1    3    3    0    0 -0.33764338324E+00 -0.17609258350E+02 -0.11080947791E+02  0.20808348971E+02  0.51100000000E-03 0.  1.
        -12    1    3    3    0    0  0.19792973079E+01 -0.13587556177E+02  0.17345205003E+02  0.22122283727E+02  0.00000000000E+00 0.  1.
</event>
<event>
 7    1  0.3449603E-013  0.5930195E+02  0.7816164E-02  0.1266605E+00
        -11   -1    0    0    0    0  0.00000000000E+00  0.00000000000E+00  0.45593999997E+02  0.45594000000E+02  0.51100000000E-03 0.  1.
         11   -1    0    0    0    0 -0.00000000000E+00 -0.00000000000E+00 -0.45593999997E+02  0.45594000000E+02  0.51100000000E-03 0. -1.
    9900012    2    1    2    0    0 -0.29863477325E+02  0.77204368987E+01  0.80800806271E+01  0.59301950906E+02  0.50000012545E+02 0.  0.
         12    1    1    2    0    0  0.29863477325E+02 -0.77204368987E+01 -0.80800806271E+01  0.31886049094E+02  0.00000000000E+00 0. -1.
         11    1    3    3    0    0 -0.82712401975E+01 -0.68577066910E+01 -0.74999028157E+01  0.13103056818E+02  0.51100000000E-03 0. -1.
        -11    1    3    3    0    0  0.92208987641E+01  0.30070693799E+01 -0.19263300640E+00  0.97007498684E+01  0.51100000000E-03 0.  1.
        -12    1    3    3    0    0 -0.30813135892E+02  0.11571074210E+02  0.15772616449E+02  0.36498144220E+02  0.00000000000E+00 0.  1.
</event>
<event>
 7    1  0.3449603E-013  0.5930193E+02  0.7816164E-02  0.1266605E+00
        -11   -1    0    0    0    0  0.00000000000E+00  0.00000000000E+00  0.45593999997E+02  0.45594000000E+02  0.51100000000E-03 0.  1.
         11   -1    0    0    0    0 -0.00000000000E+00 -0.00000000000E+00 -0.45593999997E+02  0.45594000000E+02  0.51100000000E-03 0. -1.
    9900012    2    1    2    0    0 -0.27552319837E+02  0.14109996662E+02  0.76484755397E+01  0.59301929180E+02  0.49999972922E+02 0.  0.
         12    1    1    2    0    0  0.27552319837E+02 -0.14109996662E+02 -0.76484755397E+01  0.31886070820E+02  0.00000000000E+00 0. -1.
         11    1    3    3    0    0  0.78338219085E+01 -0.58710500416E+00 -0.30402672701E+00  0.78616722453E+01  0.51100000000E-03 0. -1.
        -11    1    3    3    0    0  0.62589411900E+01  0.19701153617E+01 -0.18227947582E+01  0.68101600826E+01  0.51100000000E-03 0.  1.
        -12    1    3    3    0    0 -0.41645082936E+02  0.12726986304E+02  0.97752970249E+01  0.44630096853E+02  0.00000000000E+00 0.  1.
</event>
<event>
 7    1  0.4351885E-013  0.5930193E+02  0.7816164E-02  0.1266605E+00
        -11   -1    0    0    0    0  0.00000000000E+00  0.00000000000E+00  0.45593999997E+02  0.45594000000E+02  0.51100000000E-03 0. -1.
         11   -1    0    0    0    0 -0.00000000000E+00 -0.00000000000E+00 -0.45593999997E+02  0.45594000000E+02  0.51100000000E-03 0.  1.
    9900012    2    1    2    0    0 -0.26890770704E+02  0.23186779248E+01 -0.16977385700E+02  0.59301930289E+02  0.49999974944E+02 0.  0.
         12    1    1    2    0    0  0.26890770704E+02 -0.23186779248E+01  0.16977385700E+02  0.31886069711E+02  0.00000000000E+00 0. -1.
         11    1    3    3    0    0  0.75681032768E+01  0.42061449846E+01 -0.11166214952E+02  0.14129833667E+02  0.51100000000E-03 0. -1.
        -11    1    3    3    0    0 -0.11323806805E+02 -0.79424062396E+01 -0.14205871543E+02  0.19827183461E+02  0.51100000000E-03 0.  1.
         12    1    3    3    0    0 -0.23135067176E+02  0.60549391798E+01  0.83947007949E+01  0.25344913161E+02  0.00000000000E+00 0. -1.
</event>
<event>
 7    1  0.3449603E-013  0.5930192E+02  0.7816164E-02  0.1266605E+00
        -11   -1    0    0    0    0  0.00000000000E+00  0.00000000000E+00  0.45593999997E+02  0.45594000000E+02  0.51100000000E-03 0. -1.
         11   -1    0    0    0    0 -0.00000000000E+00 -0.00000000000E+00 -0.45593999997E+02  0.45594000000E+02  0.51100000000E-03 0.  1.
    9900012    2    1    2    0    0 -0.24465933389E+02 -0.17353062125E+02 -0.10817168702E+02  0.59301924663E+02  0.49999964683E+02 0.  0.
         12    1    1    2    0    0  0.24465933389E+02  0.17353062125E+02  0.10817168702E+02  0.31886075337E+02  0.00000000000E+00 0. -1.
         11    1    3    3    0    0 -0.17326207602E+02 -0.13548023965E+02  0.44513559291E+01  0.22440164730E+02  0.51100000000E-03 0. -1.
        -11    1    3    3    0    0 -0.11049498794E+02 -0.15999746022E+02 -0.41051305099E+01  0.19872981486E+02  0.51100000000E-03 0.  1.
        -12    1    3    3    0    0  0.39097730077E+01  0.12194707863E+02 -0.11163394121E+02  0.16988778447E+02  0.00000000000E+00 0.  1.
</event>
<event>
 7    1  0.3449603E-013  0.5930195E+02  0.7816164E-02  0.1266605E+00
        -11   -1    0    0    0    0  0.00000000000E+00  0.00000000000E+00  0.45593999997E+02  0.45594000000E+02  0.51100000000E-03 0.  1.
         11   -1    0    0    0    0 -0.00000000000E+00 -0.00000000000E+00 -0.45593999997E+02  0.45594000000E+02  0.51100000000E-03 0. -1.
    9900012    2    1    2    0    0 -0.47561543394E+01 -0.13287344408E+02  0.28592755518E+02  0.59301949858E+02  0.50000010634E+02 0.  0.
         12    1    1    2    0    0  0.47561543394E+01  0.13287344408E+02 -0.28592755518E+02  0.31886050142E+02  0.00000000000E+00 0. -1.
         11    1    3    3    0    0 -0.83566437062E+01 -0.78208885358E+01  0.65388090733E+01  0.13181646934E+02  0.51100000000E-03 0. -1.
        -11    1    3    3    0    0 -0.77124518365E+01  0.11402404117E+02  0.21830121276E+02  0.25807962495E+02  0.51100000000E-03 0.  1.
        -12    1    3    3    0    0  0.11312941203E+02 -0.16868859989E+02  0.22382516907E+00  0.20312340429E+02  0.00000000000E+00 0.  1.
</event>
<event>
 7    1  0.3449603E-013  0.5930200E+02  0.7816164E-02  0.1266605E+00
        -11   -1    0    0    0    0  0.00000000000E+00  0.00000000000E+00  0.45593999997E+02  0.45594000000E+02  0.51100000000E-03 0.  1.
         11   -1    0    0    0    0 -0.00000000000E+00 -0.00000000000E+00 -0.45593999997E+02  0.45594000000E+02  0.51100000000E-03 0. -1.
    9900012    2    1    2    0    0  0.67560384685E+01  0.63525060640E+01  0.30507680727E+02  0.59302000370E+02  0.50000102754E+02 0.  0.
         12    1    1    2    0    0 -0.67560384685E+01 -0.63525060640E+01 -0.30507680727E+02  0.31885999630E+02  0.00000000000E+00 0. -1.
         11    1    3    3    0    0  0.67713484173E+01  0.27380115343E+01  0.87160235508E+00  0.73557839471E+01  0.51100000000E-03 0. -1.
        -11    1    3    3    0    0 -0.20965984283E+02  0.20500669372E+01  0.10540938427E+02  0.23556032234E+02  0.51100000000E-03 0.  1.
         12    1    3    3    0    0  0.20950674334E+02  0.15644275926E+01  0.19095139945E+02  0.28390184189E+02  0.00000000000E+00 0. -1.
</event>
<event>
 7    1  0.3449603E-013  0.5930195E+02  0.7816164E-02  0.1266605E+00
        -11   -1    0    0    0    0  0.00000000000E+00  0.00000000000E+00  0.45593999997E+02  0.45594000000E+02  0.51100000000E-03 0.  1.
         11   -1    0    0    0    0 -0.00000000000E+00 -0.00000000000E+00 -0.45593999997E+02  0.45594000000E+02  0.51100000000E-03 0. -1.
    9900012    2    1    2    0    0  0.59330212429E+01 -0.14949869402E+02  0.27532179015E+02  0.59301949483E+02  0.50000009950E+02 0.  0.
         12    1    1    2    0    0 -0.59330212429E+01  0.14949869402E+02 -0.27532179015E+02  0.31886050517E+02  0.00000000000E+00 0. -1.
         11    1    3    3    0    0 -0.75998217354E+01  0.21085117960E+01  0.22310183232E+01  0.81963745293E+01  0.51100000000E-03 0. -1.
        -11    1    3    3    0    0  0.20787663336E+01 -0.55291052652E+01 -0.10354444373E+02  0.11920855382E+02  0.51100000000E-03 0.  1.
        -12    1    3    3    0    0  0.11454076645E+02 -0.11529275933E+02  0.35655605066E+02  0.39184719572E+02  0.00000000000E+00 0.  1.
</event>
<event>
 7    1  0.3449603E-013  0.5930194E+02  0.7816164E-02  0.1266605E+00
        -11   -1    0    0    0    0  0.00000000000E+00  0.00000000000E+00  0.45593999997E+02  0.45594000000E+02  0.51100000000E-03 0.  1.
         11   -1    0    0    0    0 -0.00000000000E+00 -0.00000000000E+00 -0.45593999997E+02  0.45594000000E+02  0.51100000000E-03 0. -1.
    9900012    2    1    2    0    0  0.16907687458E+02 -0.24351326936E+02  0.11741542934E+02  0.59301939579E+02  0.49999991887E+02 0.  0.
         12    1    1    2    0    0 -0.16907687458E+02  0.24351326936E+02 -0.11741542934E+02  0.31886060421E+02  0.00000000000E+00 0. -1.
         11    1    3    3    0    0  0.45323443087E+00 -0.44993241111E+01  0.13555369660E+02  0.14289765071E+02  0.51100000000E-03 0. -1.
        -11    1    3    3    0    0  0.20234815762E+02 -0.10374457299E+02  0.13623027729E+02  0.26507810508E+02  0.51100000000E-03 0.  1.
         12    1    3    3    0    0 -0.37803627355E+01 -0.94775455257E+01 -0.15436854455E+02  0.18504364000E+02  0.00000000000E+00 0. -1.
</event>
<event>
 7    1  0.3449603E-013  0.5930197E+02  0.7816164E-02  0.1266605E+00
        -11   -1    0    0    0    0  0.00000000000E+00  0.00000000000E+00  0.45593999997E+02  0.45594000000E+02  0.51100000000E-03 0.  1.
         11   -1    0    0    0    0 -0.00000000000E+00 -0.00000000000E+00 -0.45593999997E+02  0.45594000000E+02  0.51100000000E-03 0. -1.
    9900012    2    1    2    0    0  0.26555810232E+02 -0.46766109912E+01  0.17018734100E+02  0.59301967669E+02  0.50000043116E+02 0.  0.
         12    1    1    2    0    0 -0.26555810232E+02  0.46766109912E+01 -0.17018734100E+02  0.31886032331E+02  0.00000000000E+00 0. -1.
         11    1    3    3    0    0 -0.47881670004E+01 -0.19053955243E+02  0.24946934694E+01  0.19804122030E+02  0.51100000000E-03 0.  1.
        -11    1    3    3    0    0  0.16228359484E+02  0.49138399510E+01  0.76472220848E+00  0.16973222290E+02  0.51100000000E-03 0. -1.
        -12    1    3    3    0    0  0.15115617749E+02  0.94635043006E+01  0.13759318422E+02  0.22524623349E+02  0.00000000000E+00 0.  1.
</event>
<event>
 7    1  0.3449603E-013  0.5930193E+02  0.7816164E-02  0.1266605E+00
        -11   -1    0    0    0    0  0.00000000000E+00  0.00000000000E+00  0.45593999997E+02  0.45594000000E+02  0.51100000000E-03 0.  1.
         11   -1    0    0    0    0 -0.00000000000E+00 -0.00000000000E+00 -0.45593999997E+02  0.45594000000E+02  0.51100000000E-03 0. -1.
    9900012    2    1    2    0    0  0.78159833272E+01  0.30210732812E+02 -0.65531192557E+01  0.59301931813E+02  0.49999977724E+02 0.  0.
         12    1    1    2    0    0 -0.78159833272E+01 -0.30210732812E+02  0.65531192557E+01  0.31886068187E+02  0.00000000000E+00 0. -1.
         11    1    3    3    0    0  0.26223056462E+01  0.37111295929E+01  0.76720375232E+01  0.89167892078E+01  0.51100000000E-03 0. -1.
        -11    1    3    3    0    0 -0.37135361395E+00  0.36568746750E+02 -0.85497091481E+01  0.37556739331E+02  0.51100000000E-03 0.  1.
         12    1    3    3    0    0  0.55650312950E+01 -0.10069143531E+02 -0.56754476308E+01  0.12828403274E+02  0.00000000000E+00 0. -1.
</event>
<event>
 7    1  0.3449603E-013  0.5930196E+02  0.7816164E-02  0.1266605E+00
        -11   -1    0    0    0    0  0.00000000000E+00  0.00000000000E+00  0.45593999997E+02  0.45594000000E+02  0.51100000000E-03 0.  1.
         11   -1    0    0    0    0 -0.00000000000E+00 -0.00000000000E+00 -0.45593999997E+02  0.45594000000E+02  0.51100000000E-03 0. -1.
    9900012    2    1    2    0    0  0.55939461297E+01 -0.28823990457E+02  0.12434026224E+02  0.59301958112E+02  0.50000025686E+02 0.  0.
         12    1    1    2    0    0 -0.55939461297E+01  0.28823990457E+02 -0.12434026224E+02  0.31886041888E+02  0.00000000000E+00 0. -1.
         11    1    3    3    0    0 -0.25993215014E+01 -0.28118231839E+01 -0.21176339271E+01  0.43757508608E+01  0.51100000000E-03 0. -1.
        -11    1    3    3    0    0  0.26633255983E+01 -0.16600647305E+02 -0.15553056342E+02  0.22903544617E+02  0.51100000000E-03 0.  1.
        -12    1    3    3    0    0  0.55299420328E+01 -0.94115199683E+01  0.30104716494E+02  0.32022662634E+02  0.00000000000E+00 0.  1.
</event>
<event>
 7    1  0.3449603E-013  0.5930196E+02  0.7816164E-02  0.1266605E+00
        -11   -1    0    0    0    0  0.00000000000E+00  0.00000000000E+00  0.45593999997E+02  0.45594000000E+02  0.51100000000E-03 0. -1.
         11   -1    0    0    0    0 -0.00000000000E+00 -0.00000000000E+00 -0.45593999997E+02  0.45594000000E+02  0.51100000000E-03 0.  1.
    9900012    2    1    2    0    0  0.19580345714E+02  0.14567941161E+02 -0.20520840109E+02  0.59301957180E+02  0.50000023986E+02 0.  0.
         12    1    1    2    0    0 -0.19580345714E+02 -0.14567941161E+02  0.20520840109E+02  0.31886042820E+02  0.00000000000E+00 0. -1.
         11    1    3    3    0    0  0.19828354080E+02  0.90071224427E+01  0.73833664435E+00  0.21790755413E+02  0.51100000000E-03 0. -1.
        -11    1    3    3    0    0 -0.66522668875E+01  0.18559177711E+01  0.60721853272E+01  0.91961144199E+01  0.51100000000E-03 0.  1.
        -12    1    3    3    0    0  0.64042585214E+01  0.37049009469E+01 -0.27331362081E+02  0.28315087346E+02  0.00000000000E+00 0.  1.
</event>
<event>
 7    1  0.3751792E-013  0.5930191E+02  0.7816164E-02  0.1266605E+00
        -11   -1    0    0    0    0  0.00000000000E+00  0.00000000000E+00  0.45593999997E+02  0.45594000000E+02  0.51100000000E-03 0. -1.
         11   -1    0    0    0    0 -0.00000000000E+00 -0.00000000000E+00 -0.45593999997E+02  0.45594000000E+02  0.51100000000E-03 0.  1.
    9900012    2    1    2    0    0 -0.14609097424E+02  0.24068785823E+02 -0.14966312777E+02  0.59301910609E+02  0.49999939052E+02 0.  0.
         12    1    1    2    0    0  0.14609097424E+02 -0.24068785823E+02  0.14966312777E+02  0.31886089391E+02  0.00000000000E+00 0. -1.
         11    1    3    3    0    0  0.55525041051E+01  0.16333979717E+02  0.60486462828E+01  0.18281556754E+02  0.51100000000E-03 0. -1.
        -11    1    3    3    0    0 -0.11785599194E+02  0.18063839530E+02 -0.10100094175E+02  0.23816266490E+02  0.51100000000E-03 0.  1.
         12    1    3    3    0    0 -0.83760023345E+01 -0.10329033424E+02 -0.10914864885E+02  0.17204087364E+02  0.00000000000E+00 0. -1.
</event>
<event>
 7    1  0.3449603E-013  0.5930190E+02  0.7816164E-02  0.1266605E+00
        -11   -1    0    0    0    0  0.00000000000E+00  0.00000000000E+00  0.45593999997E+02  0.45594000000E+02  0.51100000000E-03 0.  1.
         11   -1    0    0    0    0 -0.00000000000E+00 -0.00000000000E+00 -0.45593999997E+02  0.45594000000E+02  0.51100000000E-03 0. -1.
    9900012    2    1    2    0    0 -0.23971354785E+02  0.17372723420E+02  0.11844240480E+02  0.59301899551E+02  0.49999918886E+02 0.  0.
         12    1    1    2    0    0  0.23971354785E+02 -0.17372723420E+02 -0.11844240480E+02  0.31886100449E+02  0.00000000000E+00 0. -1.
         11    1    3    3    0    0 -0.18325900154E+02  0.53651123997E+01  0.16449145430E+01  0.19165823532E+02  0.51100000000E-03 0. -1.
        -11    1    3    3    0    0 -0.20060036639E+02  0.12935365442E+02  0.94520277366E+01  0.25672350451E+02  0.51100000000E-03 0.  1.
         12    1    3    3    0    0  0.14414582008E+02 -0.92775442171E+00  0.74729820093E+00  0.14463725569E+02  0.00000000000E+00 0. -1.
</event>
<event>
 7    1  0.3449603E-013  0.5930214E+02  0.7816164E-02  0.1266604E+00
        -11   -1    0    0    0    0  0.00000000000E+00  0.00000000000E+00  0.45593999997E+02  0.45594000000E+02  0.51100000000E-03 0.  1.
         11   -1    0    0    0    0 -0.00000000000E+00 -0.00000000000E+00 -0.45593999997E+02  0.45594000000E+02  0.51100000000E-03 0. -1.
    9900012    2    1    2    0    0  0.54460593955E+00 -0.16031131262E+02  0.27557467821E+02  0.59302144234E+02  0.50000365127E+02 0.  0.
         12    1    1    2    0    0 -0.54460593955E+00  0.16031131262E+02 -0.27557467821E+02  0.31885855766E+02  0.00000000000E+00 0. -1.
         11    1    3    3    0    0  0.53059600849E+01 -0.22900631745E+02  0.33218190459E+01  0.23740821991E+02  0.51100000000E-03 0. -1.
        -11    1    3    3    0    0  0.94359080534E+01 -0.14079980925E+01  0.99697103468E+01  0.13799055913E+02  0.51100000000E-03 0.  1.
        -12    1    3    3    0    0 -0.14197262199E+02  0.82774985755E+01  0.14265938429E+02  0.21762266331E+02  0.00000000000E+00 0.  1.
</event>
<event>
 7    1  0.3449603E-013  0.5930194E+02  0.7816164E-02  0.1266605E+00
        -11   -1    0    0    0    0  0.00000000000E+00  0.00000000000E+00  0.45593999997E+02  0.45594000000E+02  0.51100000000E-03 0.  1.
         11   -1    0    0    0    0 -0.00000000000E+00 -0.00000000000E+00 -0.45593999997E+02  0.45594000000E+02  0.51100000000E-03 0. -1.
    9900012    2    1    2    0    0  0.30690425204E+02 -0.85597575897E+01 -0.12445537296E+01  0.59301944063E+02  0.50000000065E+02 0.  0.
         12    1    1    2    0    0 -0.30690425204E+02  0.85597575897E+01  0.12445537296E+01  0.31886055937E+02  0.00000000000E+00 0. -1.
         11    1    3    3    0    0  0.25606832612E+02 -0.19416475723E+02 -0.82740296981E+01  0.33183866165E+02  0.51100000000E-03 0. -1.
        -11    1    3    3    0    0  0.60283811219E+01 -0.41615507159E+01 -0.31254529598E+01  0.79641910937E+01  0.51100000000E-03 0.  1.
        -12    1    3    3    0    0 -0.94478852977E+00  0.15018268849E+02  0.10154928928E+02  0.18153886805E+02  0.00000000000E+00 0.  1.
</event>
<event>
 7    1  0.3449603E-013  0.5930195E+02  0.7816164E-02  0.1266605E+00
        -11   -1    0    0    0    0  0.00000000000E+00  0.00000000000E+00  0.45593999997E+02  0.45594000000E+02  0.51100000000E-03 0.  1.
         11   -1    0    0    0    0 -0.00000000000E+00 -0.00000000000E+00 -0.45593999997E+02  0.45594000000E+02  0.51100000000E-03 0. -1.
    9900012    2    1    2    0    0  0.99316751745E+01  0.11627971089E+02  0.27979857892E+02  0.59301947704E+02  0.50000006704E+02 0.  0.
         12    1    1    2    0    0 -0.99316751745E+01 -0.11627971089E+02 -0.27979857892E+02  0.31886052296E+02  0.00000000000E+00 0. -1.
         11    1    3    3    0    0  0.61042811463E+01  0.18376522154E+02  0.20431543112E+02  0.28149720584E+02  0.51100000000E-03 0. -1.
        -11    1    3    3    0    0 -0.52033085287E+01  0.92293565757E+01 -0.14808609614E+01  0.10698055519E+02  0.51100000000E-03 0.  1.
         12    1    3    3    0    0  0.90307025569E+01 -0.15977907641E+02  0.90291757413E+01  0.20454171600E+02  0.00000000000E+00 0. -1.
</event>
<event>
 7    1  0.3449603E-013  0.5930195E+02  0.7816164E-02  0.1266605E+00
        -11   -1    0    0    0    0  0.00000000000E+00  0.00000000000E+00  0.45593999997E+02  0.45594000000E+02  0.51100000000E-03 0.  1.
         11   -1    0    0    0    0 -0.00000000000E+00 -0.00000000000E+00 -0.45593999997E+02  0.45594000000E+02  0.51100000000E-03 0. -1.
    9900012    2    1    2    0    0 -0.19480484825E+01  0.13428594795E+02  0.28854773998E+02  0.59301952369E+02  0.50000015213E+02 0.  0.
         12    1    1    2    0    0  0.19480484825E+01 -0.13428594795E+02 -0.28854773998E+02  0.31886047631E+02  0.00000000000E+00 0. -1.
         11    1    3    3    0    0 -0.13119965473E+02  0.73355502292E+01 -0.24635798675E+01  0.15231973516E+02  0.51100000000E-03 0. -1.
        -11    1    3    3    0    0 -0.20933004982E+01 -0.98064457290E+01  0.13043648519E+02  0.16452508981E+02  0.51100000000E-03 0.  1.
         12    1    3    3    0    0  0.13265217488E+02  0.15899490295E+02  0.18274705346E+02  0.27617469872E+02  0.00000000000E+00 0. -1.
</event>
<event>
 7    1  0.3449603E-013  0.5930194E+02  0.7816164E-02  0.1266605E+00
        -11   -1    0    0    0    0  0.00000000000E+00  0.00000000000E+00  0.45593999997E+02  0.45594000000E+02  0.51100000000E-03 0.  1.
         11   -1    0    0    0    0 -0.00000000000E+00 -0.00000000000E+00 -0.45593999997E+02  0.45594000000E+02  0.51100000000E-03 0. -1.
    9900012    2    1    2    0    0 -0.28246911536E+02  0.13148377466E+02  0.67788824570E+01  0.59301935823E+02  0.49999985036E+02 0.  0.
         12    1    1    2    0    0  0.28246911536E+02 -0.13148377466E+02 -0.67788824570E+01  0.31886064177E+02  0.00000000000E+00 0. -1.
         11    1    3    3    0    0 -0.14968145083E+02 -0.27075333251E+01 -0.33204601781E+01  0.15569250463E+02  0.51100000000E-03 0. -1.
        -11    1    3    3    0    0 -0.19681704525E+02 -0.53516533530E+01  0.50044251918E+01  0.21001284684E+02  0.51100000000E-03 0.  1.
        -12    1    3    3    0    0  0.64029380720E+01  0.21207564144E+02  0.50949174433E+01  0.22731400675E+02  0.00000000000E+00 0.  1.
</event>
<event>
 7    1  0.3449603E-013  0.5930188E+02  0.7816164E-02  0.1266605E+00
        -11   -1    0    0    0    0  0.00000000000E+00  0.00000000000E+00  0.45593999997E+02  0.45594000000E+02  0.51100000000E-03 0.  1.
         11   -1    0    0    0    0 -0.00000000000E+00 -0.00000000000E+00 -0.45593999997E+02  0.45594000000E+02  0.51100000000E-03 0. -1.
    9900012    2    1    2    0    0  0.24627530175E+02 -0.19778694562E+02 -0.43603371282E+01  0.59301881689E+02  0.49999886309E+02 0.  0.
         12    1    1    2    0    0 -0.24627530175E+02  0.19778694562E+02  0.43603371282E+01  0.31886118311E+02  0.00000000000E+00 0. -1.
         11    1    3    3    0    0 -0.27346424297E-01  0.10369779721E+02  0.10740839674E+02  0.14929792914E+02  0.51100000000E-03 0. -1.
        -11    1    3    3    0    0  0.24437072554E+01 -0.12292835831E+01 -0.62887015288E+01  0.68578867341E+01  0.51100000000E-03 0.  1.
        -12    1    3    3    0    0  0.22211169343E+02 -0.28919190700E+02 -0.88124752731E+01  0.37514202041E+02  0.00000000000E+00 0.  1.
</event>
<event>
 7    1  0.3449603E-013  0.5930194E+02  0.7816164E-02  0.1266605E+00
        -11   -1    0    0    0    0  0.00000000000E+00  0.00000000000E+00  0.45593999997E+02  0.45594000000E+02  0.51100000000E-03 0.  1.
         11   -1    0    0    0    0 -0.00000000000E+00 -0.00000000000E+00 -0.45593999997E+02  0.45594000000E+02  0.51100000000E-03 0. -1.
    9900012    2    1    2    0    0 -0.11308702823E+02 -0.22414804204E+01  0.29728938856E+02  0.59301940358E+02  0.49999993307E+02 0.  0.
         12    1    1    2    0    0  0.11308702823E+02  0.22414804204E+01 -0.29728938856E+02  0.31886059642E+02  0.00000000000E+00 0. -1.
         11    1    3    3    0    0  0.58741154535E+01  0.85510983545E+01 -0.35041083881E+01  0.10950127455E+02  0.51100000000E-03 0. -1.
        -11    1    3    3    0    0  0.23127372906E+01  0.21884569523E+01 -0.35348995804E+01  0.47574796807E+01  0.51100000000E-03 0.  1.
        -12    1    3    3    0    0 -0.19495555567E+02 -0.12981035727E+02  0.36767946824E+02  0.43594333222E+02  0.00000000000E+00 0.  1.
</event>
<event>
 7    1  0.3449603E-013  0.5930191E+02  0.7816164E-02  0.1266605E+00
        -11   -1    0    0    0    0  0.00000000000E+00  0.00000000000E+00  0.45593999997E+02  0.45594000000E+02  0.51100000000E-03 0.  1.
         11   -1    0    0    0    0 -0.00000000000E+00 -0.00000000000E+00 -0.45593999997E+02  0.45594000000E+02  0.51100000000E-03 0. -1.
    9900012    2    1    2    0    0  0.11503535575E+02  0.75043177559E+01  0.28776318575E+02  0.59301911709E+02  0.49999941059E+02 0.  0.
         12    1    1    2    0    0 -0.11503535575E+02 -0.75043177559E+01 -0.28776318575E+02  0.31886088291E+02  0.00000000000E+00 0. -1.
         11    1    3    3    0    0  0.44481361395E+01 -0.18380482732E+02  0.58342250323E+01  0.19790559431E+02  0.51100000000E-03 0. -1.
        -11    1    3    3    0    0  0.85205392184E+01  0.47992226312E+01  0.12686957977E+02  0.16018459021E+02  0.51100000000E-03 0.  1.
        -12    1    3    3    0    0 -0.14651397824E+01  0.21085577857E+02  0.10255135566E+02  0.23492893258E+02  0.00000000000E+00 0.  1.
</event>
<event>
 7    1  0.3449603E-013  0.5930195E+02  0.7816164E-02  0.1266605E+00
        -11   -1    0    0    0    0  0.00000000000E+00  0.00000000000E+00  0.45593999997E+02  0.45594000000E+02  0.51100000000E-03 0.  1.
         11   -1    0    0    0    0 -0.00000000000E+00 -0.00000000000E+00 -0.45593999997E+02  0.45594000000E+02  0.51100000000E-03 0. -1.
    9900012    2    1    2    0    0 -0.11000343137E+02 -0.26022101216E+02 -0.14783883025E+02  0.59301945084E+02  0.50000001927E+02 0.  0.
         12    1    1    2    0    0  0.11000343137E+02  0.26022101216E+02  0.14783883025E+02  0.31886054916E+02  0.00000000000E+00 0. -1.
         11    1    3    3    0    0  0.37387525056E+00 -0.11172371882E+02 -0.13609524582E+02  0.17611951504E+02  0.51100000000E-03 0. -1.
        -11    1    3    3    0    0 -0.27065682796E+01 -0.24988841871E+02 -0.84228804681E+01  0.26508727724E+02  0.51100000000E-03 0.  1.
        -12    1    3    3    0    0 -0.86676501077E+01  0.10139112538E+02  0.72485220245E+01  0.15181265856E+02  0.00000000000E+00 0.  1.
</event>
<event>
 7    1  0.3449603E-013  0.5930191E+02  0.7816164E-02  0.1266605E+00
        -11   -1    0    0    0    0  0.00000000000E+00  0.00000000000E+00  0.45593999997E+02  0.45594000000E+02  0.51100000000E-03 0.  1.
         11   -1    0    0    0    0 -0.00000000000E+00 -0.00000000000E+00 -0.45593999997E+02  0.45594000000E+02  0.51100000000E-03 0. -1.
    9900012    2    1    2    0    0  0.30849089410E+02 -0.43164704575E+01 -0.68135573292E+01  0.59301909018E+02  0.49999936150E+02 0.  0.
         12    1    1    2    0    0 -0.30849089410E+02  0.43164704575E+01  0.68135573292E+01  0.31886090982E+02  0.00000000000E+00 0. -1.
         11    1    3    3    0    0  0.64228759757E+01 -0.44654793647E+01 -0.19946633401E+02  0.21425732801E+02  0.51100000000E-03 0. -1.
        -11    1    3    3    0    0 -0.31465386546E+01  0.56620664206E-02  0.95697338636E+01  0.10073755211E+02  0.51100000000E-03 0.  1.
         12    1    3    3    0    0  0.27572752089E+02  0.14334684082E+00  0.35633422083E+01  0.27802421006E+02  0.00000000000E+00 0. -1.
</event>
<event>
 7    1  0.3449603E-013  0.5930195E+02  0.7816164E-02  0.1266605E+00
        -11   -1    0    0    0    0  0.00000000000E+00  0.00000000000E+00  0.45593999997E+02  0.45594000000E+02  0.51100000000E-03 0.  1.
         11   -1    0    0    0    0 -0.00000000000E+00 -0.00000000000E+00 -0.45593999997E+02  0.45594000000E+02  0.51100000000E-03 0. -1.
    9900012    2    1    2    0    0 -0.26263849111E+02 -0.10290530784E+02 -0.14867257400E+02  0.59301950754E+02  0.50000012267E+02 0.  0.
         12    1    1    2    0    0  0.26263849111E+02  0.10290530784E+02  0.14867257400E+02  0.31886049246E+02  0.00000000000E+00 0. -1.
         11    1    3    3    0    0  0.70057982527E+00 -0.82817620505E+01  0.86582656521E+00  0.83563180082E+01  0.51100000000E-03 0. -1.
        -11    1    3    3    0    0  0.55840971162E+01  0.67488788386E+01  0.61999647966E+01  0.10731685325E+02  0.51100000000E-03 0.  1.
         12    1    3    3    0    0 -0.32548526052E+02 -0.87576475719E+01 -0.21933048761E+02  0.40213947421E+02  0.00000000000E+00 0. -1.
</event>
<event>
 7    1  0.3449603E-013  0.5930184E+02  0.7816164E-02  0.1266605E+00
        -11   -1    0    0    0    0  0.00000000000E+00  0.00000000000E+00  0.45593999997E+02  0.45594000000E+02  0.51100000000E-03 0. -1.
         11   -1    0    0    0    0 -0.00000000000E+00 -0.00000000000E+00 -0.45593999997E+02  0.45594000000E+02  0.51100000000E-03 0.  1.
    9900012    2    1    2    0    0 -0.35246978023E+01  0.29977610318E+02 -0.10278456527E+02  0.59301838683E+02  0.49999807875E+02 0.  0.
         12    1    1    2    0    0  0.35246978023E+01 -0.29977610318E+02  0.10278456527E+02  0.31886161317E+02  0.00000000000E+00 0. -1.
         11    1    3    3    0    0 -0.67062657175E+01 -0.34600149518E+01 -0.30658025047E+01  0.81452347173E+01  0.51100000000E-03 0. -1.
        -11    1    3    3    0    0 -0.17153336060E+02  0.19117516869E+02 -0.51839520175E+01  0.26202857631E+02  0.51100000000E-03 0.  1.
         12    1    3    3    0    0  0.20334903976E+02  0.14320108401E+02 -0.20287020047E+01  0.24953746335E+02  0.00000000000E+00 0. -1.
</event>
<event>
 7    1  0.3449603E-013  0.5930197E+02  0.7816164E-02  0.1266605E+00
        -11   -1    0    0    0    0  0.00000000000E+00  0.00000000000E+00  0.45593999997E+02  0.45594000000E+02  0.51100000000E-03 0.  1.
         11   -1    0    0    0    0 -0.00000000000E+00 -0.00000000000E+00 -0.45593999997E+02  0.45594000000E+02  0.51100000000E-03 0. -1.
    9900012    2    1    2    0    0  0.15525682761E+02 -0.18761519008E+02  0.20583431105E+02  0.59301967686E+02  0.50000043146E+02 0.  0.
         12    1    1    2    0    0 -0.15525682761E+02  0.18761519008E+02 -0.20583431105E+02  0.31886032314E+02  0.00000000000E+00 0. -1.
         11    1    3    3    0    0 -0.42870149588E+01 -0.56207438316E+01 -0.36107331432E+01  0.79377989752E+01  0.51100000000E-03 0. -1.
        -11    1    3    3    0    0  0.24770221170E+02  0.60295726726E+01  0.12968570916E+02  0.28602507500E+02  0.51100000000E-03 0.  1.
         12    1    3    3    0    0 -0.49575234495E+01 -0.19170347849E+02  0.11225593333E+02  0.22761661211E+02  0.00000000000E+00 0. -1.
</event>
<event>
 7    1  0.3449603E-013  0.5930195E+02  0.7816164E-02  0.1266605E+00
        -11   -1    0    0    0    0  0.00000000000E+00  0.00000000000E+00  0.45593999997E+02  0.45594000000E+02  0.51100000000E-03 0.  1.
         11   -1    0    0    0    0 -0.00000000000E+00 -0.00000000000E+00 -0.45593999997E+02  0.45594000000E+02  0.51100000000E-03 0. -1.
    9900012    2    1    2    0    0 -0.21833899491E+02  0.22808821917E+02 -0.44451049560E+01  0.59301945332E+02  0.50000002378E+02 0.  0.
         12    1    1    2    0    0  0.21833899491E+02 -0.22808821917E+02  0.44451049560E+01  0.31886054668E+02  0.00000000000E+00 0. -1.
         11    1    3    3    0    0  0.24311927001E+01 -0.32841311661E+01  0.45905155477E+01  0.61456528308E+01  0.51100000000E-03 0. -1.
        -11    1    3    3    0    0 -0.63901410163E+01 -0.10026929296E+02 -0.16735998484E+00  0.11891224619E+02  0.51100000000E-03 0.  1.
        -12    1    3    3    0    0 -0.17874951175E+02  0.36119882380E+02 -0.88682605189E+01  0.41265067882E+02  0.00000000000E+00 0.  1.
</event>
<event>
 7    1  0.3449603E-013  0.5930195E+02  0.7816164E-02  0.1266605E+00
        -11   -1    0    0    0    0  0.00000000000E+00  0.00000000000E+00  0.45593999997E+02  0.45594000000E+02  0.51100000000E-03 0.  1.
         11   -1    0    0    0    0 -0.00000000000E+00 -0.00000000000E+00 -0.45593999997E+02  0.45594000000E+02  0.51100000000E-03 0. -1.
    9900012    2    1    2    0    0  0.94878478186E+01  0.30291050483E+02  0.30253905768E+01  0.59301953150E+02  0.50000016636E+02 0.  0.
         12    1    1    2    0    0 -0.94878478186E+01 -0.30291050483E+02 -0.30253905768E+01  0.31886046850E+02  0.00000000000E+00 0. -1.
         11    1    3    3    0    0  0.10412634912E+02  0.48766947959E+01  0.63555184575E+01  0.13137645644E+02  0.51100000000E-03 0. -1.
        -11    1    3    3    0    0  0.12355054636E+02  0.66708473490E+01  0.12064109204E+02  0.18511896460E+02  0.51100000000E-03 0.  1.
         12    1    3    3    0    0 -0.13279841729E+02  0.18743508338E+02 -0.15394237085E+02  0.27652411045E+02  0.00000000000E+00 0. -1.
</event>
<event>
 7    1  0.3449603E-013  0.5930195E+02  0.7816164E-02  0.1266605E+00
        -11   -1    0    0    0    0  0.00000000000E+00  0.00000000000E+00  0.45593999997E+02  0.45594000000E+02  0.51100000000E-03 0.  1.
         11   -1    0    0    0    0 -0.00000000000E+00 -0.00000000000E+00 -0.45593999997E+02  0.45594000000E+02  0.51100000000E-03 0. -1.
    9900012    2    1    2    0    0  0.14819277865E+01  0.12783296695E+02  0.29173811156E+02  0.59301952241E+02  0.50000014978E+02 0.  0.
         12    1    1    2    0    0 -0.14819277865E+01 -0.12783296695E+02 -0.29173811156E+02  0.31886047759E+02  0.00000000000E+00 0. -1.
         11    1    3    3    0    0  0.18464189646E+01  0.95409991135E+00 -0.54806554065E+00  0.21494059020E+01  0.51100000000E-03 0. -1.
        -11    1    3    3    0    0  0.22604915433E+02  0.48049440417E+01  0.22039478607E+02  0.31934437626E+02  0.51100000000E-03 0.  1.
         12    1    3    3    0    0 -0.22969406611E+02  0.70242527416E+01  0.76823980900E+01  0.25218108713E+02  0.00000000000E+00 0. -1.
</event>
<event>
 7    1  0.3449603E-013  0.5930193E+02  0.7816164E-02  0.1266605E+00
        -11   -1    0    0    0    0  0.00000000000E+00  0.00000000000E+00  0.45593999997E+02  0.45594000000E+02  0.51100000000E-03 0.  1.
         11   -1    0    0    0    0 -0.00000000000E+00 -0.00000000000E+00 -0.45593999997E+02  0.45594000000E+02  0.51100000000E-03 0. -1.
    9900012    2    1    2    0    0 -0.18277355560E+02 -0.24967926870E+02  0.76981931723E+01  0.59301932877E+02  0.49999979663E+02 0.  0.
         12    1    1    2    0    0  0.18277355560E+02  0.24967926870E+02 -0.76981931723E+01  0.31886067123E+02  0.00000000000E+00 0. -1.
         11    1    3    3    0    0  0.92420403218E+01 -0.21138827813E+02  0.15205142529E+02  0.27630810886E+02  0.51100000000E-03 0. -1.
        -11    1    3    3    0    0  0.14829380166E+01 -0.51575263623E+00 -0.23044001825E+00  0.15868865133E+01  0.51100000000E-03 0.  1.
        -12    1    3    3    0    0 -0.29002333899E+02 -0.33133464209E+01 -0.72765093388E+01  0.30084235477E+02  0.00000000000E+00 0.  1.
</event>
<event>
 7    1  0.3449603E-013  0.5930193E+02  0.7816164E-02  0.1266605E+00
        -11   -1    0    0    0    0  0.00000000000E+00  0.00000000000E+00  0.45593999997E+02  0.45594000000E+02  0.51100000000E-03 0.  1.
         11   -1    0    0    0    0 -0.00000000000E+00 -0.00000000000E+00 -0.45593999997E+02  0.45594000000E+02  0.51100000000E-03 0. -1.
    9900012    2    1    2    0    0 -0.20438052547E+02  0.23316367588E+01  0.24363311805E+02  0.59301929624E+02  0.49999973732E+02 0.  0.
         12    1    1    2    0    0  0.20438052547E+02 -0.23316367588E+01 -0.24363311805E+02  0.31886070376E+02  0.00000000000E+00 0. -1.
         11    1    3    3    0    0 -0.16864779167E+01 -0.88177483111E+01  0.10582276815E+02  0.13877372802E+02  0.51100000000E-03 0.  1.
        -11    1    3    3    0    0 -0.21698215967E+02 -0.19094283154E+01 -0.50116610409E+01  0.22351179819E+02  0.51100000000E-03 0. -1.
        -12    1    3    3    0    0  0.29466413372E+01  0.13058813385E+02  0.18792696031E+02  0.23073377003E+02  0.00000000000E+00 0.  1.
</event>
<event>
 7    1  0.3449603E-013  0.5930195E+02  0.7816164E-02  0.1266605E+00
        -11   -1    0    0    0    0  0.00000000000E+00  0.00000000000E+00  0.45593999997E+02  0.45594000000E+02  0.51100000000E-03 0. -1.
         11   -1    0    0    0    0 -0.00000000000E+00 -0.00000000000E+00 -0.45593999997E+02  0.45594000000E+02  0.51100000000E-03 0.  1.
    9900012    2    1    2    0    0  0.10538546428E+02 -0.15633262976E+02 -0.25714985424E+02  0.59301947446E+02  0.50000006235E+02 0.  0.
         12    1    1    2    0    0 -0.10538546428E+02  0.15633262976E+02  0.25714985424E+02  0.31886052554E+02  0.00000000000E+00 0. -1.
         11    1    3    3    0    0  0.66803226630E+01  0.72119754682E+01  0.32289215913E+01  0.10347233250E+02  0.51100000000E-03 0. -1.
        -11    1    3    3    0    0 -0.35925934835E+01  0.45621963944E+01  0.27256714917E+01  0.64147992346E+01  0.51100000000E-03 0.  1.
        -12    1    3    3    0    0  0.74508172484E+01 -0.27407434838E+02 -0.31669578507E+02  0.42539914961E+02  0.00000000000E+00 0.  1.
</event>
<event>
 7    1  0.3449603E-013  0.5930193E+02  0.7816164E-02  0.1266605E+00
        -11   -1    0    0    0    0  0.00000000000E+00  0.00000000000E+00  0.45593999997E+02  0.45594000000E+02  0.51100000000E-03 0.  1.
         11   -1    0    0    0    0 -0.00000000000E+00 -0.00000000000E+00 -0.45593999997E+02  0.45594000000E+02  0.51100000000E-03 0. -1.
    9900012    2    1    2    0    0  0.15430276999E+01 -0.30546797016E+02  0.90129574659E+01  0.59301934945E+02  0.49999983435E+02 0.  0.
         12    1    1    2    0    0 -0.15430276999E+01  0.30546797016E+02 -0.90129574659E+01  0.31886065055E+02  0.00000000000E+00 0. -1.
         11    1    3    3    0    0 -0.58291943461E+01 -0.97599850839E+01 -0.27978434107E-01  0.11368271576E+02  0.51100000000E-03 0.  1.
        -11    1    3    3    0    0 -0.15074960637E+02 -0.18696636536E+02  0.81838274137E+01  0.25373089827E+02  0.51100000000E-03 0. -1.
         12    1    3    3    0    0  0.22447182683E+02 -0.20901753963E+01  0.85710848623E+00  0.22560573543E+02  0.00000000000E+00 0. -1.
</event>
<event>
 7    1  0.3449603E-013  0.5930194E+02  0.7816164E-02  0.1266605E+00
        -11   -1    0    0    0    0  0.00000000000E+00  0.00000000000E+00  0.45593999997E+02  0.45594000000E+02  0.51100000000E-03 0.  1.
         11   -1    0    0    0    0 -0.00000000000E+00 -0.00000000000E+00 -0.45593999997E+02  0.45594000000E+02  0.51100000000E-03 0. -1.
    9900012    2    1    2    0    0  0.31626467389E+02  0.14689797552E+01 -0.37854120812E+01  0.59301942143E+02  0.49999996562E+02 0.  0.
         12    1    1    2    0    0 -0.31626467389E+02 -0.14689797552E+01  0.37854120812E+01  0.31886057857E+02  0.00000000000E+00 0. -1.
         11    1    3    3    0    0  0.18347228247E+02  0.42213329853E+01 -0.84482235998E+01  0.20635234885E+02  0.51100000000E-03 0. -1.
        -11    1    3    3    0    0  0.21489772668E+02 -0.10933919074E+01 -0.84413266260E+01  0.23114104583E+02  0.51100000000E-03 0.  1.
         12    1    3    3    0    0 -0.82105335257E+01 -0.16589613226E+01  0.13104138145E+02  0.15552602675E+02  0.00000000000E+00 0. -1.
</event>
<event>
 7    1  0.3449603E-013  0.5930193E+02  0.7816164E-02  0.1266605E+00
        -11   -1    0    0    0    0  0.00000000000E+00  0.00000000000E+00  0.45593999997E+02  0.45594000000E+02  0.51100000000E-03 0.  1.
         11   -1    0    0    0    0 -0.00000000000E+00 -0.00000000000E+00 -0.45593999997E+02  0.45594000000E+02  0.51100000000E-03 0. -1.
    9900012    2    1    2    0    0 -0.20545220158E+02 -0.11686802333E+02  0.21401730933E+02  0.59301929263E+02  0.49999973073E+02 0.  0.
         12    1    1    2    0    0  0.20545220158E+02  0.11686802333E+02 -0.21401730933E+02  0.31886070737E+02  0.00000000000E+00 0. -1.
         11    1    3    3    0    0 -0.20626408865E+02  0.10210985455E+02  0.80572824767E+01  0.24385093147E+02  0.51100000000E-03 0. -1.
        -11    1    3    3    0    0 -0.11251095353E+02 -0.11434004326E+02  0.10660785433E+02  0.19260735913E+02  0.51100000000E-03 0.  1.
         12    1    3    3    0    0  0.11332284060E+02 -0.10463783462E+02  0.26836630227E+01  0.15656100204E+02  0.00000000000E+00 0. -1.
</event>
<event>
 7    1  0.3449603E-013  0.5930193E+02  0.7816164E-02  0.1266605E+00
        -11   -1    0    0    0    0  0.00000000000E+00  0.00000000000E+00  0.45593999997E+02  0.45594000000E+02  0.51100000000E-03 0.  1.
         11   -1    0    0    0    0 -0.00000000000E+00 -0.00000000000E+00 -0.45593999997E+02  0.45594000000E+02  0.51100000000E-03 0. -1.
    9900012    2    1    2    0    0 -0.24007633812E+02  0.18090100400E+02  0.10634987196E+02  0.59301934605E+02  0.49999982815E+02 0.  0.
         12    1    1    2    0    0  0.24007633812E+02 -0.18090100400E+02 -0.10634987196E+02  0.31886065395E+02  0.00000000000E+00 0. -1.
         11    1    3    3    0    0 -0.32412765180E+01  0.16108945869E+01 -0.54045556799E+01  0.65046196810E+01  0.51100000000E-03 0. -1.
        -11    1    3    3    0    0 -0.13155946680E+02  0.20519090269E+01 -0.13557865051E+02  0.19002762134E+02  0.51100000000E-03 0.  1.
        -12    1    3    3    0    0 -0.76104106145E+01  0.14427296786E+02  0.29597407927E+02  0.33794552790E+02  0.00000000000E+00 0.  1.
</event>
<event>
 7    1  0.3449603E-013  0.5930193E+02  0.7816164E-02  0.1266605E+00
        -11   -1    0    0    0    0  0.00000000000E+00  0.00000000000E+00  0.45593999997E+02  0.45594000000E+02  0.51100000000E-03 0.  1.
         11   -1    0    0    0    0 -0.00000000000E+00 -0.00000000000E+00 -0.45593999997E+02  0.45594000000E+02  0.51100000000E-03 0. -1.
    9900012    2    1    2    0    0 -0.24209167796E+02  0.50839069394E+01  0.20119426342E+02  0.59301933584E+02  0.49999980952E+02 0.  0.
         12    1    1    2    0    0  0.24209167796E+02 -0.50839069394E+01 -0.20119426342E+02  0.31886066416E+02  0.00000000000E+00 0. -1.
         11    1    3    3    0    0 -0.62372471571E+01  0.96424516876E+01 -0.51335004586E+01  0.12579068084E+02  0.51100000000E-03 0. -1.
        -11    1    3    3    0    0 -0.51926450634E+00  0.85294999576E+01 -0.46342597606E+01  0.97210271547E+01  0.51100000000E-03 0.  1.
        -12    1    3    3    0    0 -0.17452656133E+02 -0.13088044706E+02  0.29887186562E+02  0.37001838345E+02  0.00000000000E+00 0.  1.
</event>
<event>
 7    1  0.3449603E-013  0.5930191E+02  0.7816164E-02  0.1266605E+00
        -11   -1    0    0    0    0  0.00000000000E+00  0.00000000000E+00  0.45593999997E+02  0.45594000000E+02  0.51100000000E-03 0.  1.
         11   -1    0    0    0    0 -0.00000000000E+00 -0.00000000000E+00 -0.45593999997E+02  0.45594000000E+02  0.51100000000E-03 0. -1.
    9900012    2    1    2    0    0 -0.14577593280E+02 -0.13619305438E+02  0.24874298857E+02  0.59301914476E+02  0.49999946104E+02 0.  0.
         12    1    1    2    0    0  0.14577593280E+02  0.13619305438E+02 -0.24874298857E+02  0.31886085524E+02  0.00000000000E+00 0. -1.
         11    1    3    3    0    0 -0.10922536515E+02  0.30313579261E+01 -0.43162060074E+01  0.12129326831E+02  0.51100000000E-03 0. -1.
        -11    1    3    3    0    0 -0.12669236072E+02 -0.18806548195E+02  0.80032585510E+01  0.24046786592E+02  0.51100000000E-03 0.  1.
        -12    1    3    3    0    0  0.90141793082E+01  0.21558848315E+01  0.21187246314E+02  0.23125801053E+02  0.00000000000E+00 0.  1.
</event>
<event>
 7    1  0.3449603E-013  0.5930185E+02  0.7816164E-02  0.1266605E+00
        -11   -1    0    0    0    0  0.00000000000E+00  0.00000000000E+00  0.45593999997E+02  0.45594000000E+02  0.51100000000E-03 0. -1.
         11   -1    0    0    0    0 -0.00000000000E+00 -0.00000000000E+00 -0.45593999997E+02  0.45594000000E+02  0.51100000000E-03 0.  1.
    9900012    2    1    2    0    0 -0.17843496167E+02  0.94698401457E+01 -0.24671004358E+02  0.59301848086E+02  0.49999825024E+02 0.  0.
         12    1    1    2    0    0  0.17843496167E+02 -0.94698401457E+01  0.24671004358E+02  0.31886151914E+02  0.00000000000E+00 0. -1.
         11    1    3    3    0    0 -0.16714392715E+02  0.71502665332E+01 -0.18277802731E+01  0.18271234669E+02  0.51100000000E-03 0. -1.
        -11    1    3    3    0    0 -0.14341661923E+02  0.80770765987E+01 -0.20720754415E+02  0.26462654759E+02  0.51100000000E-03 0.  1.
        -12    1    3    3    0    0  0.13212558470E+02 -0.57575029861E+01 -0.21224696701E+01  0.14567958658E+02  0.00000000000E+00 0.  1.
</event>
<event>
 7    1  0.3449603E-013  0.5930197E+02  0.7816164E-02  0.1266605E+00
        -11   -1    0    0    0    0  0.00000000000E+00  0.00000000000E+00  0.45593999997E+02  0.45594000000E+02  0.51100000000E-03 0.  1.
         11   -1    0    0    0    0 -0.00000000000E+00 -0.00000000000E+00 -0.45593999997E+02  0.45594000000E+02  0.51100000000E-03 0. -1.
    9900012    2    1    2    0    0 -0.23243257958E+02  0.18151736681E+02  0.12123721610E+02  0.59301965272E+02  0.50000038744E+02 0.  0.
         12    1    1    2    0    0  0.23243257958E+02 -0.18151736681E+02 -0.12123721610E+02  0.31886034728E+02  0.00000000000E+00 0. -1.
         11    1    3    3    0    0 -0.24712941131E+01  0.46051713305E+01 -0.16662626978E+02  0.17463047719E+02  0.51100000000E-03 0. -1.
        -11    1    3    3    0    0 -0.62788571192E+01  0.84645947946E+01  0.16634987519E+01  0.10669612932E+02  0.51100000000E-03 0.  1.
        -12    1    3    3    0    0 -0.14493106725E+02  0.50819705561E+01  0.27122849836E+02  0.31169304620E+02  0.00000000000E+00 0.  1.
</event>
<event>
 7    1  0.3449603E-013  0.5930184E+02  0.7816164E-02  0.1266605E+00
        -11   -1    0    0    0    0  0.00000000000E+00  0.00000000000E+00  0.45593999997E+02  0.45594000000E+02  0.51100000000E-03 0.  1.
         11   -1    0    0    0    0 -0.00000000000E+00 -0.00000000000E+00 -0.45593999997E+02  0.45594000000E+02  0.51100000000E-03 0. -1.
    9900012    2    1    2    0    0  0.68084969350E+00 -0.10636125922E+02  0.30052225806E+02  0.59301843022E+02  0.49999815789E+02 0.  0.
         12    1    1    2    0    0 -0.68084969350E+00  0.10636125922E+02 -0.30052225806E+02  0.31886156978E+02  0.00000000000E+00 0. -1.
         11    1    3    3    0    0 -0.13810316587E+01  0.15019392254E+02  0.12521092956E+02  0.19602733514E+02  0.51100000000E-03 0. -1.
        -11    1    3    3    0    0  0.12416708295E+02 -0.11998373656E+02  0.13932086698E+02  0.22186452066E+02  0.51100000000E-03 0.  1.
        -12    1    3    3    0    0 -0.10354826943E+02 -0.13657144520E+02  0.35990461526E+01  0.17512657442E+02  0.00000000000E+00 0.  1.
</event>
<event>
 7    1  0.3449603E-013  0.5930193E+02  0.7816164E-02  0.1266605E+00
        -11   -1    0    0    0    0  0.00000000000E+00  0.00000000000E+00  0.45593999997E+02  0.45594000000E+02  0.51100000000E-03 0. -1.
         11   -1    0    0    0    0 -0.00000000000E+00 -0.00000000000E+00 -0.45593999997E+02  0.45594000000E+02  0.51100000000E-03 0.  1.
    9900012    2    1    2    0    0 -0.59909585969E+01  0.10358514327E+02 -0.29555556211E+02  0.59301932401E+02  0.49999978796E+02 0.  0.
         12    1    1    2    0    0  0.59909585969E+01 -0.10358514327E+02  0.29555556211E+02  0.31886067599E+02  0.00000000000E+00 0. -1.
         11    1    3    3    0    0  0.11934358351E+02  0.13562546630E+02 -0.61124124945E+01  0.19071789825E+02  0.51100000000E-03 0. -1.
        -11    1    3    3    0    0 -0.79013053308E+01  0.10476452266E+02 -0.26316777096E+01  0.13383288304E+02  0.51100000000E-03 0.  1.
         12    1    3    3    0    0 -0.10024011617E+02 -0.13680484569E+02 -0.20811466007E+02  0.26846854272E+02  0.00000000000E+00 0. -1.
</event>
<event>
 7    1  0.3449603E-013  0.5930198E+02  0.7816164E-02  0.1266605E+00
        -11   -1    0    0    0    0  0.00000000000E+00  0.00000000000E+00  0.45593999997E+02  0.45594000000E+02  0.51100000000E-03 0. -1.
         11   -1    0    0    0    0 -0.00000000000E+00 -0.00000000000E+00 -0.45593999997E+02  0.45594000000E+02  0.51100000000E-03 0.  1.
    9900012    2    1    2    0    0 -0.19605524843E+02  0.24642241974E+02 -0.50101724547E+01  0.59301976073E+02  0.50000058442E+02 0.  0.
         12    1    1    2    0    0  0.19605524843E+02 -0.24642241974E+02  0.50101724547E+01  0.31886023927E+02  0.00000000000E+00 0. -1.
         11    1    3    3    0    0 -0.11423275025E+02 -0.10056143376E+02 -0.40040198899E+01  0.15736880486E+02  0.51100000000E-03 0. -1.
        -11    1    3    3    0    0 -0.71394972098E+01 -0.10484149135E+01 -0.28430743003E+01  0.77559439128E+01  0.51100000000E-03 0.  1.
        -12    1    3    3    0    0 -0.10427526074E+01  0.35746800264E+02  0.18369217355E+01  0.35809151673E+02  0.00000000000E+00 0.  1.
</event>
<event>
 7    1  0.3449603E-013  0.5930194E+02  0.7816164E-02  0.1266605E+00
        -11   -1    0    0    0    0  0.00000000000E+00  0.00000000000E+00  0.45593999997E+02  0.45594000000E+02  0.51100000000E-03 0.  1.
         11   -1    0    0    0    0 -0.00000000000E+00 -0.00000000000E+00 -0.45593999997E+02  0.45594000000E+02  0.51100000000E-03 0. -1.
    9900012    2    1    2    0    0 -0.16360126790E+01  0.11115731139E+02  0.29840990572E+02  0.59301941376E+02  0.49999995165E+02 0.  0.
         12    1    1    2    0    0  0.16360126790E+01 -0.11115731139E+02 -0.29840990572E+02  0.31886058624E+02  0.00000000000E+00 0. -1.
         11    1    3    3    0    0  0.53169830241E+01 -0.11046604237E+02  0.18061224536E+02  0.21829008352E+02  0.51100000000E-03 0. -1.
        -11    1    3    3    0    0 -0.14235164837E+02  0.30217642739E+01  0.81358459906E+01  0.16672221433E+02  0.51100000000E-03 0.  1.
        -12    1    3    3    0    0  0.72821691341E+01  0.19140571102E+02  0.36439200452E+01  0.20800711591E+02  0.00000000000E+00 0.  1.
</event>
<event>
 7    1  0.3449603E-013  0.5930196E+02  0.7816164E-02  0.1266605E+00
        -11   -1    0    0    0    0  0.00000000000E+00  0.00000000000E+00  0.45593999997E+02  0.45594000000E+02  0.51100000000E-03 0.  1.
         11   -1    0    0    0    0 -0.00000000000E+00 -0.00000000000E+00 -0.45593999997E+02  0.45594000000E+02  0.51100000000E-03 0. -1.
    9900012    2    1    2    0    0 -0.19992008441E+02  0.23414905427E+02  0.82934623404E+01  0.59301957360E+02  0.50000024315E+02 0.  0.
         12    1    1    2    0    0  0.19992008441E+02 -0.23414905427E+02 -0.82934623404E+01  0.31886042640E+02  0.00000000000E+00 0. -1.
         11    1    3    3    0    0 -0.28577580634E+02  0.23119549967E+02  0.14158010427E+01  0.36785815180E+02  0.51100000000E-03 0. -1.
        -11    1    3    3    0    0 -0.10709763860E+01  0.85535205735E+01  0.16509683504E+01  0.87769813362E+01  0.51100000000E-03 0.  1.
         12    1    3    3    0    0  0.96565485796E+01 -0.82581651143E+01  0.52266929473E+01  0.13739160844E+02  0.00000000000E+00 0. -1.
</event>
<event>
 7    1  0.3449603E-013  0.5930192E+02  0.7816164E-02  0.1266605E+00
        -11   -1    0    0    0    0  0.00000000000E+00  0.00000000000E+00  0.45593999997E+02  0.45594000000E+02  0.51100000000E-03 0.  1.
         11   -1    0    0    0    0 -0.00000000000E+00 -0.00000000000E+00 -0.45593999997E+02  0.45594000000E+02  0.51100000000E-03 0. -1.
    9900012    2    1    2    0    0  0.71995751191E+01 -0.80472537951E+01  0.30002162506E+02  0.59301922622E+02  0.49999960961E+02 0.  0.
         12    1    1    2    0    0 -0.71995751191E+01  0.80472537951E+01 -0.30002162506E+02  0.31886077378E+02  0.00000000000E+00 0. -1.
         11    1    3    3    0    0  0.11093104434E+02  0.54127078136E+01  0.16809176688E+01  0.12457120708E+02  0.51100000000E-03 0. -1.
        -11    1    3    3    0    0 -0.13245900956E+01 -0.18237428681E+01 -0.81605567454E+01  0.84661244750E+01  0.51100000000E-03 0.  1.
        -12    1    3    3    0    0 -0.25689392191E+01 -0.11636218741E+02  0.36481801582E+02  0.38378677439E+02  0.00000000000E+00 0.  1.
</event>
<event>
 7    1  0.3449603E-013  0.5930193E+02  0.7816164E-02  0.1266605E+00
        -11   -1    0    0    0    0  0.00000000000E+00  0.00000000000E+00  0.45593999997E+02  0.45594000000E+02  0.51100000000E-03 0.  1.
         11   -1    0    0    0    0 -0.00000000000E+00 -0.00000000000E+00 -0.45593999997E+02  0.45594000000E+02  0.51100000000E-03 0. -1.
    9900012    2    1    2    0    0  0.88734397315E+01  0.15883863553E+02  0.26185611723E+02  0.59301932269E+02  0.49999978555E+02 0.  0.
         12    1    1    2    0    0 -0.88734397315E+01 -0.15883863553E+02 -0.26185611723E+02  0.31886067731E+02  0.00000000000E+00 0. -1.
         11    1    3    3    0    0  0.51544795940E+01  0.10711551210E+02  0.35565338777E+01  0.12407857297E+02  0.51100000000E-03 0. -1.
        -11    1    3    3    0    0  0.17057699399E+02  0.15246481966E+02  0.19115676573E+02  0.29813242229E+02  0.51100000000E-03 0.  1.
         12    1    3    3    0    0 -0.13338739262E+02 -0.10074169623E+02  0.35134012722E+01  0.17080832743E+02  0.00000000000E+00 0. -1.
</event>
<event>
 7    1  0.3449603E-013  0.5930195E+02  0.7816164E-02  0.1266605E+00
        -11   -1    0    0    0    0  0.00000000000E+00  0.00000000000E+00  0.45593999997E+02  0.45594000000E+02  0.51100000000E-03 0. -1.
         11   -1    0    0    0    0 -0.00000000000E+00 -0.00000000000E+00 -0.45593999997E+02  0.45594000000E+02  0.51100000000E-03 0.  1.
    9900012    2    1    2    0    0 -0.23279854926E+02 -0.21130955462E+02  0.53151732871E+01  0.59301953033E+02  0.50000016424E+02 0.  0.
         12    1    1    2    0    0  0.23279854926E+02  0.21130955462E+02 -0.53151732871E+01  0.31886046967E+02  0.00000000000E+00 0. -1.
         11    1    3    3    0    0 -0.34285831299E+01 -0.62378042343E+01  0.65626448130E+01  0.96816161434E+01  0.51100000000E-03 0. -1.
        -11    1    3    3    0    0 -0.17677427675E+02 -0.16083396624E+02  0.18184658928E+02  0.30030799469E+02  0.51100000000E-03 0.  1.
        -12    1    3    3    0    0 -0.21738441212E+01  0.11902453972E+01 -0.19432130454E+02  0.19589537421E+02  0.00000000000E+00 0.  1.
</event>
<event>
 7    1  0.3449603E-013  0.5930196E+02  0.7816164E-02  0.1266605E+00
        -11   -1    0    0    0    0  0.00000000000E+00  0.00000000000E+00  0.45593999997E+02  0.45594000000E+02  0.51100000000E-03 0.  1.
         11   -1    0    0    0    0 -0.00000000000E+00 -0.00000000000E+00 -0.45593999997E+02  0.45594000000E+02  0.51100000000E-03 0. -1.
    9900012    2    1    2    0    0  0.50630229626E+01  0.31432640793E+02 -0.17534746235E+01  0.59301956313E+02  0.50000022405E+02 0.  0.
         12    1    1    2    0    0 -0.50630229626E+01 -0.31432640793E+02  0.17534746235E+01  0.31886043687E+02  0.00000000000E+00 0. -1.
         11    1    3    3    0    0  0.85757944847E+01  0.11152220273E+02 -0.13572911692E+02  0.19548406588E+02  0.51100000000E-03 0. -1.
        -11    1    3    3    0    0  0.54189317931E+01  0.20810672891E+02 -0.37183292554E+01  0.21823723345E+02  0.51100000000E-03 0.  1.
         12    1    3    3    0    0 -0.89317033152E+01 -0.53025237028E+00  0.15537766324E+02  0.17929826380E+02  0.00000000000E+00 0. -1.
</event>
<event>
 7    1  0.3449603E-013  0.5930193E+02  0.7816164E-02  0.1266605E+00
        -11   -1    0    0    0    0  0.00000000000E+00  0.00000000000E+00  0.45593999997E+02  0.45594000000E+02  0.51100000000E-03 0. -1.
         11   -1    0    0    0    0 -0.00000000000E+00 -0.00000000000E+00 -0.45593999997E+02  0.45594000000E+02  0.51100000000E-03 0.  1.
    9900012    2    1    2    0    0 -0.30650495052E+02 -0.17034689142E+01 -0.86236019211E+01  0.59301934652E+02  0.49999982901E+02 0.  0.
         12    1    1    2    0    0  0.30650495052E+02  0.17034689142E+01  0.86236019211E+01  0.31886065348E+02  0.00000000000E+00 0. -1.
         11    1    3    3    0    0 -0.16763525954E+02 -0.66374588718E+01  0.13563298122E+01  0.18080688413E+02  0.51100000000E-03 0. -1.
        -11    1    3    3    0    0 -0.22860883190E+02 -0.79660534938E+01 -0.48445128328E+01  0.24689011591E+02  0.51100000000E-03 0.  1.
        -12    1    3    3    0    0  0.89739140918E+01  0.12900043451E+02 -0.51354189005E+01  0.16532234648E+02  0.00000000000E+00 0.  1.
</event>
<event>
 7    1  0.3449603E-013  0.5930194E+02  0.7816164E-02  0.1266605E+00
        -11   -1    0    0    0    0  0.00000000000E+00  0.00000000000E+00  0.45593999997E+02  0.45594000000E+02  0.51100000000E-03 0. -1.
         11   -1    0    0    0    0 -0.00000000000E+00 -0.00000000000E+00 -0.45593999997E+02  0.45594000000E+02  0.51100000000E-03 0.  1.
    9900012    2    1    2    0    0  0.11495528503E+02 -0.37332964254E+01 -0.29506544368E+02  0.59301939750E+02  0.49999992198E+02 0.  0.
         12    1    1    2    0    0 -0.11495528503E+02  0.37332964254E+01  0.29506544368E+02  0.31886060250E+02  0.00000000000E+00 0. -1.
         11    1    3    3    0    0  0.91980094300E+01 -0.50745983466E+01 -0.73869872686E+01  0.12842215814E+02  0.51100000000E-03 0. -1.
        -11    1    3    3    0    0 -0.87018065157E+00 -0.14860310180E+02 -0.25576795432E+02  0.29593217091E+02  0.51100000000E-03 0.  1.
        -12    1    3    3    0    0  0.31676997248E+01  0.16201612101E+02  0.34572383324E+01  0.16866506844E+02  0.00000000000E+00 0.  1.
</event>
<event>
 7    1  0.3449603E-013  0.5930194E+02  0.7816164E-02  0.1266605E+00
        -11   -1    0    0    0    0  0.00000000000E+00  0.00000000000E+00  0.45593999997E+02  0.45594000000E+02  0.51100000000E-03 0. -1.
         11   -1    0    0    0    0 -0.00000000000E+00 -0.00000000000E+00 -0.45593999997E+02  0.45594000000E+02  0.51100000000E-03 0.  1.
    9900012    2    1    2    0    0  0.25694153970E+02 -0.92100736139E+01 -0.16483502553E+02  0.59301939399E+02  0.49999991559E+02 0.  0.
         12    1    1    2    0    0 -0.25694153970E+02  0.92100736139E+01  0.16483502553E+02  0.31886060601E+02  0.00000000000E+00 0. -1.
         11    1    3    3    0    0  0.17061489280E+02  0.13141396168E+02 -0.58224568124E+01  0.22309005206E+02  0.51100000000E-03 0. -1.
        -11    1    3    3    0    0 -0.31735196734E+01  0.26606963224E+01 -0.82480441433E+01  0.92293425816E+01  0.51100000000E-03 0.  1.
        -12    1    3    3    0    0  0.11806184364E+02 -0.25012166105E+02 -0.24130015971E+01  0.27763591612E+02  0.00000000000E+00 0.  1.
</event>
<event>
 7    1  0.3449603E-013  0.5930195E+02  0.7816164E-02  0.1266605E+00
        -11   -1    0    0    0    0  0.00000000000E+00  0.00000000000E+00  0.45593999997E+02  0.45594000000E+02  0.51100000000E-03 0. -1.
         11   -1    0    0    0    0 -0.00000000000E+00 -0.00000000000E+00 -0.45593999997E+02  0.45594000000E+02  0.51100000000E-03 0.  1.
    9900012    2    1    2    0    0  0.40814088707E+00  0.13254996371E+02 -0.28997558662E+02  0.59301954210E+02  0.50000018570E+02 0.  0.
         12    1    1    2    0    0 -0.40814088707E+00 -0.13254996371E+02  0.28997558662E+02  0.31886045790E+02  0.00000000000E+00 0. -1.
         11    1    3    3    0    0 -0.94707590647E+00  0.36509675945E+01  0.71278858012E+00  0.38385654833E+01  0.51100000000E-03 0. -1.
        -11    1    3    3    0    0 -0.21300342507E+01  0.20276525276E+02  0.32480635862E+01  0.20645203813E+02  0.51100000000E-03 0.  1.
        -12    1    3    3    0    0  0.34852510442E+01 -0.10672496500E+02 -0.32958410828E+02  0.34818184914E+02  0.00000000000E+00 0.  1.
</event>
<event>
 7    1  0.3449603E-013  0.5930195E+02  0.7816164E-02  0.1266605E+00
        -11   -1    0    0    0    0  0.00000000000E+00  0.00000000000E+00  0.45593999997E+02  0.45594000000E+02  0.51100000000E-03 0. -1.
         11   -1    0    0    0    0 -0.00000000000E+00 -0.00000000000E+00 -0.45593999997E+02  0.45594000000E+02  0.51100000000E-03 0.  1.
    9900012    2    1    2    0    0 -0.20412519356E+02 -0.20480444739E+02 -0.13438761509E+02  0.59301954870E+02  0.50000019773E+02 0.  0.
         12    1    1    2    0    0  0.20412519356E+02  0.20480444739E+02  0.13438761509E+02  0.31886045130E+02  0.00000000000E+00 0. -1.
         11    1    3    3    0    0  0.21242265992E+01 -0.64614552543E+01 -0.83935137046E+01  0.10803416831E+02  0.51100000000E-03 0. -1.
        -11    1    3    3    0    0 -0.34131424284E+01 -0.20928532749E+02  0.97626770551E+01  0.23344440190E+02  0.51100000000E-03 0.  1.
        -12    1    3    3    0    0 -0.19123603526E+02  0.69095432641E+01 -0.14807924859E+02  0.25154097849E+02  0.00000000000E+00 0.  1.
</event>
<event>
 7    1  0.3449603E-013  0.5930194E+02  0.7816164E-02  0.1266605E+00
        -11   -1    0    0    0    0  0.00000000000E+00  0.00000000000E+00  0.45593999997E+02  0.45594000000E+02  0.51100000000E-03 0. -1.
         11   -1    0    0    0    0 -0.00000000000E+00 -0.00000000000E+00 -0.45593999997E+02  0.45594000000E+02  0.51100000000E-03 0.  1.
    9900012    2    1    2    0    0  0.94215118067E+01 -0.30447165622E+02 -0.96234344223E+00  0.59301939033E+02  0.49999990890E+02 0.  0.
         12    1    1    2    0    0 -0.94215118067E+01  0.30447165622E+02  0.96234344223E+00  0.31886060967E+02  0.00000000000E+00 0. -1.
         11    1    3    3    0    0 -0.20578263395E+01 -0.24872702883E+01 -0.87782428969E+01  0.93530054715E+01  0.51100000000E-03 0. -1.
        -11    1    3    3    0    0  0.70664778453E+01 -0.27407931762E+02 -0.11185320860E+02  0.30434211598E+02  0.51100000000E-03 0.  1.
         12    1    3    3    0    0  0.44128603010E+01 -0.55196357133E+00  0.19001220315E+02  0.19514721963E+02  0.00000000000E+00 0. -1.
</event>
<event>
 7    1  0.3449603E-013  0.5930189E+02  0.7816164E-02  0.1266605E+00
        -11   -1    0    0    0    0  0.00000000000E+00  0.00000000000E+00  0.45593999997E+02  0.45594000000E+02  0.51100000000E-03 0.  1.
         11   -1    0    0    0    0 -0.00000000000E+00 -0.00000000000E+00 -0.45593999997E+02  0.45594000000E+02  0.51100000000E-03 0. -1.
    9900012    2    1    2    0    0 -0.29447541642E+02 -0.52100841640E+01  0.11064420703E+02  0.59301888740E+02  0.49999899169E+02 0.  0.
         12    1    1    2    0    0  0.29447541642E+02  0.52100841640E+01 -0.11064420703E+02  0.31886111260E+02  0.00000000000E+00 0. -1.
         11    1    3    3    0    0  0.53053781409E+01  0.32495804684E+01 -0.90545041246E+01  0.10985938997E+02  0.51100000000E-03 0. -1.
        -11    1    3    3    0    0 -0.48379209530E+01  0.44457118111E+01  0.13580399756E+02  0.15086321303E+02  0.51100000000E-03 0.  1.
        -12    1    3    3    0    0 -0.29914998830E+02 -0.12905376444E+02  0.65385250711E+01  0.33229628440E+02  0.00000000000E+00 0.  1.
</event>
<event>
 7    1  0.3449603E-013  0.5930199E+02  0.7816164E-02  0.1266605E+00
        -11   -1    0    0    0    0  0.00000000000E+00  0.00000000000E+00  0.45593999997E+02  0.45594000000E+02  0.51100000000E-03 0.  1.
         11   -1    0    0    0    0 -0.00000000000E+00 -0.00000000000E+00 -0.45593999997E+02  0.45594000000E+02  0.51100000000E-03 0. -1.
    9900012    2    1    2    0    0 -0.16662386140E+02 -0.18470602176E+01  0.27123253589E+02  0.59301990080E+02  0.50000083989E+02 0.  0.
         12    1    1    2    0    0  0.16662386140E+02  0.18470602176E+01 -0.27123253589E+02  0.31886009920E+02  0.00000000000E+00 0. -1.
         11    1    3    3    0    0  0.69348337880E+01 -0.58253550746E+01  0.17602166303E+02  0.19795528289E+02  0.51100000000E-03 0. -1.
        -11    1    3    3    0    0  0.39847058840E+01 -0.74220764904E+01  0.31151073206E+01  0.89815919686E+01  0.51100000000E-03 0.  1.
         12    1    3    3    0    0 -0.27581925812E+02  0.11400371347E+02  0.64059799651E+01  0.30524869823E+02  0.00000000000E+00 0. -1.
</event>
<event>
 7    1  0.3449603E-013  0.5930197E+02  0.7816164E-02  0.1266605E+00
        -11   -1    0    0    0    0  0.00000000000E+00  0.00000000000E+00  0.45593999997E+02  0.45594000000E+02  0.51100000000E-03 0.  1.
         11   -1    0    0    0    0 -0.00000000000E+00 -0.00000000000E+00 -0.45593999997E+02  0.45594000000E+02  0.51100000000E-03 0. -1.
    9900012    2    1    2    0    0 -0.15615718877E+01 -0.15380519471E+02  0.27887636713E+02  0.59301965951E+02  0.50000039982E+02 0.  0.
         12    1    1    2    0    0  0.15615718877E+01  0.15380519471E+02 -0.27887636713E+02  0.31886034049E+02  0.00000000000E+00 0. -1.
         11    1    3    3    0    0 -0.24808964747E+01 -0.17411087621E+02 -0.44000248376E+01  0.18129010957E+02  0.51100000000E-03 0. -1.
        -11    1    3    3    0    0 -0.10967638826E+02  0.30592983153E+01  0.74186381275E+01  0.13589871211E+02  0.51100000000E-03 0.  1.
         12    1    3    3    0    0  0.11886963413E+02 -0.10287301654E+01  0.24869023423E+02  0.27583083783E+02  0.00000000000E+00 0. -1.
</event>
<event>
 7    1  0.3449603E-013  0.5930193E+02  0.7816164E-02  0.1266605E+00
        -11   -1    0    0    0    0  0.00000000000E+00  0.00000000000E+00  0.45593999997E+02  0.45594000000E+02  0.51100000000E-03 0. -1.
         11   -1    0    0    0    0 -0.00000000000E+00 -0.00000000000E+00 -0.45593999997E+02  0.45594000000E+02  0.51100000000E-03 0.  1.
    9900012    2    1    2    0    0 -0.28370950541E+02  0.36393400948E+01 -0.14091332071E+02  0.59301932973E+02  0.49999979839E+02 0.  0.
         12    1    1    2    0    0  0.28370950541E+02 -0.36393400948E+01  0.14091332071E+02  0.31886067027E+02  0.00000000000E+00 0. -1.
         11    1    3    3    0    0 -0.35412822926E+01  0.18356263894E+01 -0.14731346798E+02  0.15261807994E+02  0.51100000000E-03 0. -1.
        -11    1    3    3    0    0 -0.82219591949E+01 -0.44895038886E+01 -0.16745065724E+02  0.19187326143E+02  0.51100000000E-03 0.  1.
         12    1    3    3    0    0 -0.16607709053E+02  0.62932175940E+01  0.17385080451E+02  0.24852798836E+02  0.00000000000E+00 0. -1.
</event>
<event>
 7    1  0.3449603E-013  0.5930191E+02  0.7816164E-02  0.1266605E+00
        -11   -1    0    0    0    0  0.00000000000E+00  0.00000000000E+00  0.45593999997E+02  0.45594000000E+02  0.51100000000E-03 0.  1.
         11   -1    0    0    0    0 -0.00000000000E+00 -0.00000000000E+00 -0.45593999997E+02  0.45594000000E+02  0.51100000000E-03 0. -1.
    9900012    2    1    2    0    0  0.14687969701E+02 -0.28176451774E+02 -0.26596938010E+01  0.59301908054E+02  0.49999934392E+02 0.  0.
         12    1    1    2    0    0 -0.14687969701E+02  0.28176451774E+02  0.26596938010E+01  0.31886091946E+02  0.00000000000E+00 0. -1.
         11    1    3    3    0    0 -0.23146305828E+01  0.63616513034E+01  0.70257114493E+01  0.97564718864E+01  0.51100000000E-03 0. -1.
        -11    1    3    3    0    0  0.16669871718E+02 -0.45639971537E+01 -0.91693039955E+01  0.19565040995E+02  0.51100000000E-03 0.  1.
         12    1    3    3    0    0  0.33272856590E+00 -0.29974105923E+02 -0.51610125474E+00  0.29980395173E+02  0.00000000000E+00 0. -1.
</event>
<event>
 7    1  0.3449603E-013  0.5930197E+02  0.7816164E-02  0.1266605E+00
        -11   -1    0    0    0    0  0.00000000000E+00  0.00000000000E+00  0.45593999997E+02  0.45594000000E+02  0.51100000000E-03 0.  1.
         11   -1    0    0    0    0 -0.00000000000E+00 -0.00000000000E+00 -0.45593999997E+02  0.45594000000E+02  0.51100000000E-03 0. -1.
    9900012    2    1    2    0    0  0.21437183055E+02  0.92618562707E+01  0.21711375052E+02  0.59301974760E+02  0.50000056049E+02 0.  0.
         12    1    1    2    0    0 -0.21437183055E+02 -0.92618562707E+01 -0.21711375052E+02  0.31886025240E+02  0.00000000000E+00 0. -1.
         11    1    3    3    0    0  0.11291827016E+02 -0.56034494694E+01 -0.56697630396E+01  0.13822091611E+02  0.51100000000E-03 0. -1.
        -11    1    3    3    0    0  0.32050796825E+01 -0.31090547165E+01  0.25759930643E+02  0.26144077417E+02  0.51100000000E-03 0.  1.
         12    1    3    3    0    0  0.69402763563E+01  0.17974360457E+02  0.16212074491E+01  0.19335805732E+02  0.00000000000E+00 0. -1.
</event>
<event>
 7    1  0.3449603E-013  0.5930199E+02  0.7816164E-02  0.1266605E+00
        -11   -1    0    0    0    0  0.00000000000E+00  0.00000000000E+00  0.45593999997E+02  0.45594000000E+02  0.51100000000E-03 0. -1.
         11   -1    0    0    0    0 -0.00000000000E+00 -0.00000000000E+00 -0.45593999997E+02  0.45594000000E+02  0.51100000000E-03 0.  1.
    9900012    2    1    2    0    0 -0.38809105450E+01  0.14641522552E+02 -0.28058545276E+02  0.59301990336E+02  0.50000084454E+02 0.  0.
         12    1    1    2    0    0  0.38809105450E+01 -0.14641522552E+02  0.28058545276E+02  0.31886009664E+02  0.00000000000E+00 0. -1.
         11    1    3    3    0    0  0.49378108343E+01 -0.69205038295E+01 -0.61040298343E+00  0.85233761593E+01  0.51100000000E-03 0. -1.
        -11    1    3    3    0    0 -0.18629416884E+02  0.93170423506E+00 -0.18420608246E+02  0.26215301917E+02  0.51100000000E-03 0.  1.
        -12    1    3    3    0    0  0.98106955045E+01  0.20630322147E+02 -0.90275340468E+01  0.24563312259E+02  0.00000000000E+00 0.  1.
</event>
<event>
 7    1  0.3449603E-013  0.5930192E+02  0.7816164E-02  0.1266605E+00
        -11   -1    0    0    0    0  0.00000000000E+00  0.00000000000E+00  0.45593999997E+02  0.45594000000E+02  0.51100000000E-03 0. -1.
         11   -1    0    0    0    0 -0.00000000000E+00 -0.00000000000E+00 -0.45593999997E+02  0.45594000000E+02  0.51100000000E-03 0.  1.
    9900012    2    1    2    0    0  0.13600295625E+02 -0.21679919148E+02 -0.19019336827E+02  0.59301919829E+02  0.49999955867E+02 0.  0.
         12    1    1    2    0    0 -0.13600295625E+02  0.21679919148E+02  0.19019336827E+02  0.31886080171E+02  0.00000000000E+00 0. -1.
         11    1    3    3    0    0  0.20117811355E+02 -0.11131930488E+01  0.78862721114E+01  0.21636978083E+02  0.51100000000E-03 0. -1.
        -11    1    3    3    0    0  0.31339068480E+00  0.14176685388E+01  0.78827451173E+00  0.16520819514E+01  0.51100000000E-03 0.  1.
        -12    1    3    3    0    0 -0.68309064150E+01 -0.21984394638E+02 -0.27693883450E+02  0.36012859795E+02  0.00000000000E+00 0.  1.
</event>
<event>
 7    1  0.3449603E-013  0.5930193E+02  0.7816164E-02  0.1266605E+00
        -11   -1    0    0    0    0  0.00000000000E+00  0.00000000000E+00  0.45593999997E+02  0.45594000000E+02  0.51100000000E-03 0.  1.
         11   -1    0    0    0    0 -0.00000000000E+00 -0.00000000000E+00 -0.45593999997E+02  0.45594000000E+02  0.51100000000E-03 0. -1.
    9900012    2    1    2    0    0  0.26865185748E+02 -0.14427756633E+02  0.93178814156E+01  0.59301932811E+02  0.49999979543E+02 0.  0.
         12    1    1    2    0    0 -0.26865185748E+02  0.14427756633E+02 -0.93178814156E+01  0.31886067189E+02  0.00000000000E+00 0. -1.
         11    1    3    3    0    0 -0.30766964222E+01 -0.73218278139E+01 -0.45667270920E+01  0.91613437882E+01  0.51100000000E-03 0. -1.
        -11    1    3    3    0    0  0.35805494427E+02 -0.67803980377E+01  0.15447355723E+01  0.36474558763E+02  0.51100000000E-03 0.  1.
        -12    1    3    3    0    0 -0.58636122573E+01 -0.32553078170E+00  0.12339872935E+02  0.13666030259E+02  0.00000000000E+00 0.  1.
</event>
<event>
 7    1  0.3449603E-013  0.5930195E+02  0.7816164E-02  0.1266605E+00
        -11   -1    0    0    0    0  0.00000000000E+00  0.00000000000E+00  0.45593999997E+02  0.45594000000E+02  0.51100000000E-03 0.  1.
         11   -1    0    0    0    0 -0.00000000000E+00 -0.00000000000E+00 -0.45593999997E+02  0.45594000000E+02  0.51100000000E-03 0. -1.
    9900012    2    1    2    0    0 -0.93298256477E+01 -0.17852642465E+02  0.24717562512E+02  0.59301946839E+02  0.50000005128E+02 0.  0.
         12    1    1    2    0    0  0.93298256477E+01  0.17852642465E+02 -0.24717562512E+02  0.31886053161E+02  0.00000000000E+00 0. -1.
         11    1    3    3    0    0 -0.23658954326E+01 -0.11845455071E+02 -0.41496999247E+01  0.12772324642E+02  0.51100000000E-03 0. -1.
        -11    1    3    3    0    0 -0.15600296148E+01  0.36592493634E+01 -0.75130119500E+01  0.85011262268E+01  0.51100000000E-03 0.  1.
        -12    1    3    3    0    0 -0.54039006003E+01 -0.96664367573E+01  0.36380274387E+02  0.38028495970E+02  0.00000000000E+00 0.  1.
</event>
<event>
 7    1  0.3449603E-013  0.5930199E+02  0.7816164E-02  0.1266605E+00
        -11   -1    0    0    0    0  0.00000000000E+00  0.00000000000E+00  0.45593999997E+02  0.45594000000E+02  0.51100000000E-03 0.  1.
         11   -1    0    0    0    0 -0.00000000000E+00 -0.00000000000E+00 -0.45593999997E+02  0.45594000000E+02  0.51100000000E-03 0. -1.
    9900012    2    1    2    0    0 -0.82623661078E+01  0.21191250482E+02  0.22346852404E+02  0.59301990481E+02  0.50000084720E+02 0.  0.
         12    1    1    2    0    0  0.82623661078E+01 -0.21191250482E+02 -0.22346852404E+02  0.31886009519E+02  0.00000000000E+00 0. -1.
         11    1    3    3    0    0  0.12296385633E+02  0.95507972559E+01  0.38452695290E+01  0.16037609730E+02  0.51100000000E-03 0. -1.
        -11    1    3    3    0    0 -0.34853414904E+00  0.15811074625E+02  0.15966635271E+02  0.22473206246E+02  0.51100000000E-03 0.  1.
        -12    1    3    3    0    0 -0.20210217591E+02 -0.41706213989E+01  0.25349476043E+01  0.20791174505E+02  0.00000000000E+00 0.  1.
</event>
<event>
 7    1  0.3449603E-013  0.5930195E+02  0.7816164E-02  0.1266605E+00
        -11   -1    0    0    0    0  0.00000000000E+00  0.00000000000E+00  0.45593999997E+02  0.45594000000E+02  0.51100000000E-03 0. -1.
         11   -1    0    0    0    0 -0.00000000000E+00 -0.00000000000E+00 -0.45593999997E+02  0.45594000000E+02  0.51100000000E-03 0.  1.
    9900012    2    1    2    0    0 -0.70588440759E+01 -0.19707722632E+02 -0.24051998295E+02  0.59301949241E+02  0.50000009507E+02 0.  0.
         12    1    1    2    0    0  0.70588440759E+01  0.19707722632E+02  0.24051998295E+02  0.31886050759E+02  0.00000000000E+00 0. -1.
         11    1    3    3    0    0 -0.32933711296E+01  0.83660568808E+01  0.82432949587E+01  0.12197914296E+02  0.51100000000E-03 0. -1.
        -11    1    3    3    0    0  0.77052665582E+01 -0.84883994690E+01 -0.89513204233E+01  0.14544765239E+02  0.51100000000E-03 0.  1.
        -12    1    3    3    0    0 -0.11470739504E+02 -0.19585380044E+02 -0.23343972831E+02  0.32559269706E+02  0.00000000000E+00 0.  1.
</event>
<event>
 7    1  0.3449603E-013  0.5930194E+02  0.7816164E-02  0.1266605E+00
        -11   -1    0    0    0    0  0.00000000000E+00  0.00000000000E+00  0.45593999997E+02  0.45594000000E+02  0.51100000000E-03 0.  1.
         11   -1    0    0    0    0 -0.00000000000E+00 -0.00000000000E+00 -0.45593999997E+02  0.45594000000E+02  0.51100000000E-03 0. -1.
    9900012    2    1    2    0    0  0.23925829877E+02  0.16845735955E+02 -0.12668731781E+02  0.59301938466E+02  0.49999989857E+02 0.  0.
         12    1    1    2    0    0 -0.23925829877E+02 -0.16845735955E+02  0.12668731781E+02  0.31886061534E+02  0.00000000000E+00 0. -1.
         11    1    3    3    0    0  0.25752949336E+02 -0.73226822667E+01  0.43911269434E+01  0.27131495926E+02  0.51100000000E-03 0. -1.
        -11    1    3    3    0    0  0.31893845030E+01  0.12462448703E+01 -0.52280852140E+00  0.34639036932E+01  0.51100000000E-03 0.  1.
         12    1    3    3    0    0 -0.50165039619E+01  0.22922173351E+02 -0.16537050203E+02  0.28706538847E+02  0.00000000000E+00 0. -1.
</event>
<event>
 7    1  0.3449603E-013  0.5930201E+02  0.7816164E-02  0.1266605E+00
        -11   -1    0    0    0    0  0.00000000000E+00  0.00000000000E+00  0.45593999997E+02  0.45594000000E+02  0.51100000000E-03 0. -1.
         11   -1    0    0    0    0 -0.00000000000E+00 -0.00000000000E+00 -0.45593999997E+02  0.45594000000E+02  0.51100000000E-03 0.  1.
    9900012    2    1    2    0    0 -0.29082151673E+02 -0.85052771970E+01  0.99299929374E+01  0.59302014899E+02  0.50000129252E+02 0.  0.
         12    1    1    2    0    0  0.29082151673E+02  0.85052771970E+01 -0.99299929374E+01  0.31885985101E+02  0.00000000000E+00 0. -1.
         11    1    3    3    0    0 -0.24162785796E+01 -0.10218471133E+01  0.12151737961E+02  0.12431705814E+02  0.51100000000E-03 0. -1.
        -11    1    3    3    0    0  0.45166539431E+00 -0.63364283388E+01 -0.15429123600E+02  0.16685687910E+02  0.51100000000E-03 0.  1.
         12    1    3    3    0    0 -0.27117538488E+02 -0.11470017448E+01  0.13207378576E+02  0.30184621175E+02  0.00000000000E+00 0. -1.
</event>
<event>
 7    1  0.3449603E-013  0.5930200E+02  0.7816164E-02  0.1266605E+00
        -11   -1    0    0    0    0  0.00000000000E+00  0.00000000000E+00  0.45593999997E+02  0.45594000000E+02  0.51100000000E-03 0. -1.
         11   -1    0    0    0    0 -0.00000000000E+00 -0.00000000000E+00 -0.45593999997E+02  0.45594000000E+02  0.51100000000E-03 0.  1.
    9900012    2    1    2    0    0  0.27962032840E+02 -0.15317306356E+02  0.47067580886E+00  0.59302004794E+02  0.50000110824E+02 0.  0.
         12    1    1    2    0    0 -0.27962032840E+02  0.15317306356E+02 -0.47067580886E+00  0.31885995206E+02  0.00000000000E+00 0. -1.
         11    1    3    3    0    0 -0.20404183599E+01 -0.48104083595E+01  0.39634339069E+01  0.65583644504E+01  0.51100000000E-03 0. -1.
        -11    1    3    3    0    0  0.11121271836E+02  0.80246721539E+01  0.15107245625E+02  0.20403600689E+02  0.51100000000E-03 0.  1.
        -12    1    3    3    0    0  0.18881179364E+02 -0.18531570151E+02 -0.18600003723E+02  0.32340039655E+02  0.00000000000E+00 0.  1.
</event>
<event>
 7    1  0.3449603E-013  0.5930194E+02  0.7816164E-02  0.1266605E+00
        -11   -1    0    0    0    0  0.00000000000E+00  0.00000000000E+00  0.45593999997E+02  0.45594000000E+02  0.51100000000E-03 0.  1.
         11   -1    0    0    0    0 -0.00000000000E+00 -0.00000000000E+00 -0.45593999997E+02  0.45594000000E+02  0.51100000000E-03 0. -1.
    9900012    2    1    2    0    0 -0.24808500146E+02 -0.19860254016E+02  0.26133734673E+01  0.59301935804E+02  0.49999985001E+02 0.  0.
         12    1    1    2    0    0  0.24808500146E+02  0.19860254016E+02 -0.26133734673E+01  0.31886064196E+02  0.00000000000E+00 0. -1.
         11    1    3    3    0    0  0.24616547537E+01 -0.19063794762E+01  0.38341417060E+01  0.49390960425E+01  0.51100000000E-03 0. -1.
        -11    1    3    3    0    0 -0.93959994368E+01  0.14233681757E+02 -0.37356675175E+01  0.17459602339E+02  0.51100000000E-03 0.  1.
        -12    1    3    3    0    0 -0.17874155463E+02 -0.32187556297E+02  0.25148992788E+01  0.36903237422E+02  0.00000000000E+00 0.  1.
</event>
<event>
 7    1  0.3449603E-013  0.5930190E+02  0.7816164E-02  0.1266605E+00
        -11   -1    0    0    0    0  0.00000000000E+00  0.00000000000E+00  0.45593999997E+02  0.45594000000E+02  0.51100000000E-03 0.  1.
         11   -1    0    0    0    0 -0.00000000000E+00 -0.00000000000E+00 -0.45593999997E+02  0.45594000000E+02  0.51100000000E-03 0. -1.
    9900012    2    1    2    0    0  0.23654505156E+02 -0.19972079028E+02  0.76356946413E+01  0.59301899776E+02  0.49999919295E+02 0.  0.
         12    1    1    2    0    0 -0.23654505156E+02  0.19972079028E+02 -0.76356946413E+01  0.31886100224E+02  0.00000000000E+00 0. -1.
         11    1    3    3    0    0 -0.74119775230E+01 -0.75057169806E+01  0.58332031309E+01  0.12054022450E+02  0.51100000000E-03 0. -1.
        -11    1    3    3    0    0  0.99593648037E+01  0.81890053408E+01  0.10316322569E+02  0.16512881861E+02  0.51100000000E-03 0.  1.
         12    1    3    3    0    0  0.21107117875E+02 -0.20655367388E+02 -0.85138310582E+01  0.30734995465E+02  0.00000000000E+00 0. -1.
</event>
<event>
 7    1  0.3449603E-013  0.5930197E+02  0.7816164E-02  0.1266605E+00
        -11   -1    0    0    0    0  0.00000000000E+00  0.00000000000E+00  0.45593999997E+02  0.45594000000E+02  0.51100000000E-03 0. -1.
         11   -1    0    0    0    0 -0.00000000000E+00 -0.00000000000E+00 -0.45593999997E+02  0.45594000000E+02  0.51100000000E-03 0.  1.
    9900012    2    1    2    0    0 -0.22994430201E+02 -0.15983737377E+02 -0.15247785335E+02  0.59301974245E+02  0.50000055109E+02 0.  0.
         12    1    1    2    0    0  0.22994430201E+02  0.15983737377E+02  0.15247785335E+02  0.31886025755E+02  0.00000000000E+00 0. -1.
         11    1    3    3    0    0 -0.13688423084E+02 -0.31642470318E+01  0.16030082476E+02  0.21315462234E+02  0.51100000000E-03 0. -1.
        -11    1    3    3    0    0 -0.19260189329E+00  0.20014253970E+01  0.19967762692E+00  0.20205619329E+01  0.51100000000E-03 0.  1.
        -12    1    3    3    0    0 -0.91134052241E+01 -0.14820915742E+02 -0.31477545438E+02  0.35965950078E+02  0.00000000000E+00 0.  1.
</event>
<event>
 7    1  0.3449603E-013  0.5930193E+02  0.7816164E-02  0.1266605E+00
        -11   -1    0    0    0    0  0.00000000000E+00  0.00000000000E+00  0.45593999997E+02  0.45594000000E+02  0.51100000000E-03 0.  1.
         11   -1    0    0    0    0 -0.00000000000E+00 -0.00000000000E+00 -0.45593999997E+02  0.45594000000E+02  0.51100000000E-03 0. -1.
    9900012    2    1    2    0    0  0.13542764658E+02  0.23777847195E+02 -0.16368540604E+02  0.59301927597E+02  0.49999970034E+02 0.  0.
         12    1    1    2    0    0 -0.13542764658E+02 -0.23777847195E+02  0.16368540604E+02  0.31886072403E+02  0.00000000000E+00 0. -1.
         11    1    3    3    0    0 -0.25378446913E+01  0.11821487350E+01  0.40737304009E+01  0.49430163816E+01  0.51100000000E-03 0. -1.
        -11    1    3    3    0    0  0.22591134414E+01  0.32951633367E+02 -0.12064272881E+02  0.35163339083E+02  0.51100000000E-03 0.  1.
         12    1    3    3    0    0  0.13821495908E+02 -0.10355934907E+02 -0.83779981234E+01  0.19195572132E+02  0.00000000000E+00 0. -1.
</event>
<event>
 7    1  0.3449603E-013  0.5930192E+02  0.7816164E-02  0.1266605E+00
        -11   -1    0    0    0    0  0.00000000000E+00  0.00000000000E+00  0.45593999997E+02  0.45594000000E+02  0.51100000000E-03 0. -1.
         11   -1    0    0    0    0 -0.00000000000E+00 -0.00000000000E+00 -0.45593999997E+02  0.45594000000E+02  0.51100000000E-03 0.  1.
    9900012    2    1    2    0    0 -0.27659495475E+02 -0.42735054345E+01 -0.15277818815E+02  0.59301917043E+02  0.49999950786E+02 0.  0.
         12    1    1    2    0    0  0.27659495475E+02  0.42735054345E+01  0.15277818815E+02  0.31886082957E+02  0.00000000000E+00 0. -1.
         11    1    3    3    0    0 -0.24435256722E+01 -0.70479148962E+01  0.50102739083E+01  0.89859204866E+01  0.51100000000E-03 0.  1.
        -11    1    3    3    0    0  0.94557590605E+01  0.30564033129E+01  0.39038620943E+00  0.99451185149E+01  0.51100000000E-03 0. -1.
        -12    1    3    3    0    0 -0.34671728863E+02 -0.28199385120E+00 -0.20678478932E+02  0.40370878041E+02  0.00000000000E+00 0.  1.
</event>
<event>
 7    1  0.3449603E-013  0.5930198E+02  0.7816164E-02  0.1266605E+00
        -11   -1    0    0    0    0  0.00000000000E+00  0.00000000000E+00  0.45593999997E+02  0.45594000000E+02  0.51100000000E-03 0.  1.
         11   -1    0    0    0    0 -0.00000000000E+00 -0.00000000000E+00 -0.45593999997E+02  0.45594000000E+02  0.51100000000E-03 0. -1.
    9900012    2    1    2    0    0 -0.15873821405E+01  0.25292251069E+02  0.19352021293E+02  0.59301976819E+02  0.50000059803E+02 0.  0.
         12    1    1    2    0    0  0.15873821405E+01 -0.25292251069E+02 -0.19352021293E+02  0.31886023181E+02  0.00000000000E+00 0. -1.
         11    1    3    3    0    0  0.94061633694E+01  0.41457666602E+01  0.14251696967E+01  0.10377591217E+02  0.51100000000E-03 0. -1.
        -11    1    3    3    0    0  0.77806828144E+01  0.17692867449E+02  0.22125548973E+02  0.29378844450E+02  0.51100000000E-03 0.  1.
         12    1    3    3    0    0 -0.18774228324E+02  0.34536169597E+01 -0.41986973766E+01  0.19545541152E+02  0.00000000000E+00 0. -1.
</event>
<event>
 7    1  0.3449603E-013  0.5930185E+02  0.7816164E-02  0.1266605E+00
        -11   -1    0    0    0    0  0.00000000000E+00  0.00000000000E+00  0.45593999997E+02  0.45594000000E+02  0.51100000000E-03 0.  1.
         11   -1    0    0    0    0 -0.00000000000E+00 -0.00000000000E+00 -0.45593999997E+02  0.45594000000E+02  0.51100000000E-03 0. -1.
    9900012    2    1    2    0    0  0.94915816353E+01  0.91669984163E+01  0.29027612841E+02  0.59301854276E+02  0.49999836314E+02 0.  0.
         12    1    1    2    0    0 -0.94915816353E+01 -0.91669984163E+01 -0.29027612841E+02  0.31886145724E+02  0.00000000000E+00 0. -1.
         11    1    3    3    0    0 -0.90190506567E+01  0.13682368662E+02  0.12255215221E+02  0.20463156827E+02  0.51100000000E-03 0. -1.
        -11    1    3    3    0    0  0.37546120074E+01  0.10647565865E+02 -0.82349404600E+00  0.11320155161E+02  0.51100000000E-03 0.  1.
         12    1    3    3    0    0  0.14756020285E+02 -0.15162936111E+02  0.17595891665E+02  0.27518542288E+02  0.00000000000E+00 0. -1.
</event>
<event>
 7    1  0.3449603E-013  0.5930187E+02  0.7816164E-02  0.1266605E+00
        -11   -1    0    0    0    0  0.00000000000E+00  0.00000000000E+00  0.45593999997E+02  0.45594000000E+02  0.51100000000E-03 0. -1.
         11   -1    0    0    0    0 -0.00000000000E+00 -0.00000000000E+00 -0.45593999997E+02  0.45594000000E+02  0.51100000000E-03 0.  1.
    9900012    2    1    2    0    0  0.31270068295E+02 -0.21337231409E+01  0.58613372824E+01  0.59301871035E+02  0.49999866878E+02 0.  0.
         12    1    1    2    0    0 -0.31270068295E+02  0.21337231409E+01 -0.58613372824E+01  0.31886128965E+02  0.00000000000E+00 0. -1.
         11    1    3    3    0    0  0.27912493435E+02 -0.12271327760E+02 -0.92337270197E+00  0.30504842110E+02  0.51100000000E-03 0.  1.
        -11    1    3    3    0    0  0.11578219992E+01  0.16503205534E+01  0.15971260127E+02  0.16097989316E+02  0.51100000000E-03 0. -1.
        -12    1    3    3    0    0  0.21997528614E+01  0.84872840656E+01 -0.91865501427E+01  0.12699039609E+02  0.00000000000E+00 0.  1.
</event>
<event>
 7    1  0.3449603E-013  0.5930195E+02  0.7816164E-02  0.1266605E+00
        -11   -1    0    0    0    0  0.00000000000E+00  0.00000000000E+00  0.45593999997E+02  0.45594000000E+02  0.51100000000E-03 0.  1.
         11   -1    0    0    0    0 -0.00000000000E+00 -0.00000000000E+00 -0.45593999997E+02  0.45594000000E+02  0.51100000000E-03 0. -1.
    9900012    2    1    2    0    0 -0.79576615627E+01  0.27478459164E+02  0.14082975353E+02  0.59301948341E+02  0.50000007867E+02 0.  0.
         12    1    1    2    0    0  0.79576615627E+01 -0.27478459164E+02 -0.14082975353E+02  0.31886051659E+02  0.00000000000E+00 0. -1.
         11    1    3    3    0    0 -0.36592320020E+01  0.36242902682E+00  0.19940397929E+01  0.41830047335E+01  0.51100000000E-03 0. -1.
        -11    1    3    3    0    0 -0.18801122509E+02 -0.62542588684E+00  0.14458210628E+02  0.23725792293E+02  0.51100000000E-03 0.  1.
         12    1    3    3    0    0  0.14502692948E+02  0.27741456024E+02 -0.23692750677E+01  0.31393151314E+02  0.00000000000E+00 0. -1.
</event>
<event>
 7    1  0.3449603E-013  0.5930195E+02  0.7816164E-02  0.1266605E+00
        -11   -1    0    0    0    0  0.00000000000E+00  0.00000000000E+00  0.45593999997E+02  0.45594000000E+02  0.51100000000E-03 0.  1.
         11   -1    0    0    0    0 -0.00000000000E+00 -0.00000000000E+00 -0.45593999997E+02  0.45594000000E+02  0.51100000000E-03 0. -1.
    9900012    2    1    2    0    0 -0.19396149827E+02 -0.97230729549E+01  0.23366025038E+02  0.59301954433E+02  0.50000018977E+02 0.  0.
         12    1    1    2    0    0  0.19396149827E+02  0.97230729549E+01 -0.23366025038E+02  0.31886045567E+02  0.00000000000E+00 0. -1.
         11    1    3    3    0    0  0.23686627073E+01  0.10371184264E+01  0.33279144065E+01  0.42144029482E+01  0.51100000000E-03 0.  1.
        -11    1    3    3    0    0 -0.14422974188E+02 -0.24597186590E+02  0.25744439835E+02  0.38416402164E+02  0.51100000000E-03 0. -1.
         12    1    3    3    0    0 -0.73418383467E+01  0.13836995209E+02 -0.57063292036E+01  0.16671149321E+02  0.00000000000E+00 0. -1.
</event>
<event>
 7    1  0.3449603E-013  0.5930191E+02  0.7816164E-02  0.1266605E+00
        -11   -1    0    0    0    0  0.00000000000E+00  0.00000000000E+00  0.45593999997E+02  0.45594000000E+02  0.51100000000E-03 0. -1.
         11   -1    0    0    0    0 -0.00000000000E+00 -0.00000000000E+00 -0.45593999997E+02  0.45594000000E+02  0.51100000000E-03 0.  1.
    9900012    2    1    2    0    0 -0.44657022769E+01  0.24770835457E+02 -0.19575140868E+02  0.59301907012E+02  0.49999932491E+02 0.  0.
         12    1    1    2    0    0  0.44657022769E+01 -0.24770835457E+02  0.19575140868E+02  0.31886092988E+02  0.00000000000E+00 0. -1.
         11    1    3    3    0    0  0.40277832261E+01 -0.22348113977E+01 -0.17961917136E+02  0.18543135851E+02  0.51100000000E-03 0. -1.
        -11    1    3    3    0    0 -0.97485401877E+01  0.79546158851E+01 -0.13352073342E+02  0.18346329673E+02  0.51100000000E-03 0.  1.
         12    1    3    3    0    0  0.12550546847E+01  0.19051030970E+02  0.11738849611E+02  0.22412441488E+02  0.00000000000E+00 0. -1.
</event>
<event>
 7    1  0.3449603E-013  0.5930192E+02  0.7816164E-02  0.1266605E+00
        -11   -1    0    0    0    0  0.00000000000E+00  0.00000000000E+00  0.45593999997E+02  0.45594000000E+02  0.51100000000E-03 0.  1.
         11   -1    0    0    0    0 -0.00000000000E+00 -0.00000000000E+00 -0.45593999997E+02  0.45594000000E+02  0.51100000000E-03 0. -1.
    9900012    2    1    2    0    0 -0.18323078711E+02  0.17606726606E+02  0.19261097599E+02  0.59301922851E+02  0.49999961378E+02 0.  0.
         12    1    1    2    0    0  0.18323078711E+02 -0.17606726606E+02 -0.19261097599E+02  0.31886077149E+02  0.00000000000E+00 0. -1.
         11    1    3    3    0    0  0.11293614392E+02  0.97836472004E+01  0.50280726199E+01  0.15765373231E+02  0.51100000000E-03 0.  1.
        -11    1    3    3    0    0 -0.20255186740E+01 -0.80665088569E+01  0.70358160732E+01  0.10893759641E+02  0.51100000000E-03 0. -1.
        -12    1    3    3    0    0 -0.27591174430E+02  0.15889588263E+02  0.71972089056E+01  0.32642789979E+02  0.00000000000E+00 0.  1.
</event>
<event>
 7    1  0.3449603E-013  0.5930194E+02  0.7816164E-02  0.1266605E+00
        -11   -1    0    0    0    0  0.00000000000E+00  0.00000000000E+00  0.45593999997E+02  0.45594000000E+02  0.51100000000E-03 0.  1.
         11   -1    0    0    0    0 -0.00000000000E+00 -0.00000000000E+00 -0.45593999997E+02  0.45594000000E+02  0.51100000000E-03 0. -1.
    9900012    2    1    2    0    0  0.26669023397E+01 -0.29947445269E+02  0.10618792679E+02  0.59301943420E+02  0.49999998892E+02 0.  0.
         12    1    1    2    0    0 -0.26669023397E+01  0.29947445269E+02 -0.10618792679E+02  0.31886056580E+02  0.00000000000E+00 0. -1.
         11    1    3    3    0    0 -0.33959401331E+01  0.64176468480E+00 -0.16387779612E+01  0.38249006217E+01  0.51100000000E-03 0.  1.
        -11    1    3    3    0    0 -0.71595900195E+01  0.94132113220E+00  0.19266474517E+02  0.20575297210E+02  0.51100000000E-03 0. -1.
         12    1    3    3    0    0  0.13222432492E+02 -0.31530531086E+02 -0.70089038764E+01  0.34901745589E+02  0.00000000000E+00 0. -1.
</event>
<event>
 7    1  0.3449603E-013  0.5930196E+02  0.7816164E-02  0.1266605E+00
        -11   -1    0    0    0    0  0.00000000000E+00  0.00000000000E+00  0.45593999997E+02  0.45594000000E+02  0.51100000000E-03 0.  1.
         11   -1    0    0    0    0 -0.00000000000E+00 -0.00000000000E+00 -0.45593999997E+02  0.45594000000E+02  0.51100000000E-03 0. -1.
    9900012    2    1    2    0    0  0.20071657135E+02 -0.16988735188E+02  0.18034164734E+02  0.59301958523E+02  0.50000026436E+02 0.  0.
         12    1    1    2    0    0 -0.20071657135E+02  0.16988735188E+02 -0.18034164734E+02  0.31886041477E+02  0.00000000000E+00 0. -1.
         11    1    3    3    0    0 -0.49434538494E+01 -0.10173768800E+01  0.61348873831E+00  0.50842069559E+01  0.51100000000E-03 0. -1.
        -11    1    3    3    0    0 -0.44545793093E+01  0.97889270268E+01 -0.12938958933E+01  0.10832383671E+02  0.51100000000E-03 0.  1.
        -12    1    3    3    0    0  0.29469690293E+02 -0.25760285335E+02  0.18714571889E+02  0.43385367896E+02  0.00000000000E+00 0.  1.
</event>
<event>
 7    1  0.3449603E-013  0.5930195E+02  0.7816164E-02  0.1266605E+00
        -11   -1    0    0    0    0  0.00000000000E+00  0.00000000000E+00  0.45593999997E+02  0.45594000000E+02  0.51100000000E-03 0.  1.
         11   -1    0    0    0    0 -0.00000000000E+00 -0.00000000000E+00 -0.45593999997E+02  0.45594000000E+02  0.51100000000E-03 0. -1.
    9900012    2    1    2    0    0 -0.18326156464E+02  0.22016148638E+02 -0.14005762444E+02  0.59301949864E+02  0.50000010645E+02 0.  0.
         12    1    1    2    0    0  0.18326156464E+02 -0.22016148638E+02  0.14005762444E+02  0.31886050136E+02  0.00000000000E+00 0. -1.
         11    1    3    3    0    0 -0.35017607987E+01  0.11474551318E+01 -0.77390920380E+01  0.85716117391E+01  0.51100000000E-03 0. -1.
        -11    1    3    3    0    0  0.48696934781E+01 -0.11308444101E+02  0.84055265223E+00  0.12341043375E+02  0.51100000000E-03 0.  1.
         12    1    3    3    0    0 -0.19694089143E+02  0.32177137608E+02 -0.71072230586E+01  0.38389294750E+02  0.00000000000E+00 0. -1.
</event>
<event>
 7    1  0.3449603E-013  0.5930194E+02  0.7816164E-02  0.1266605E+00
        -11   -1    0    0    0    0  0.00000000000E+00  0.00000000000E+00  0.45593999997E+02  0.45594000000E+02  0.51100000000E-03 0.  1.
         11   -1    0    0    0    0 -0.00000000000E+00 -0.00000000000E+00 -0.45593999997E+02  0.45594000000E+02  0.51100000000E-03 0. -1.
    9900012    2    1    2    0    0  0.73425516653E+00  0.31112169944E+02 -0.69436647293E+01  0.59301941461E+02  0.49999995320E+02 0.  0.
         12    1    1    2    0    0 -0.73425516653E+00 -0.31112169944E+02  0.69436647293E+01  0.31886058539E+02  0.00000000000E+00 0. -1.
         11    1    3    3    0    0 -0.25914861997E+00 -0.58178517769E+01 -0.44790512414E+01  0.73468671956E+01  0.51100000000E-03 0. -1.
        -11    1    3    3    0    0 -0.90443694390E+01  0.27150838991E+02  0.12697921391E+02  0.31308239880E+02  0.51100000000E-03 0.  1.
         12    1    3    3    0    0  0.10037773225E+02  0.97791827296E+01 -0.15162534879E+02  0.20646834386E+02  0.00000000000E+00 0. -1.
</event>
<event>
 7    1  0.3449603E-013  0.5930193E+02  0.7816164E-02  0.1266605E+00
        -11   -1    0    0    0    0  0.00000000000E+00  0.00000000000E+00  0.45593999997E+02  0.45594000000E+02  0.51100000000E-03 0.  1.
         11   -1    0    0    0    0 -0.00000000000E+00 -0.00000000000E+00 -0.45593999997E+02  0.45594000000E+02  0.51100000000E-03 0. -1.
    9900012    2    1    2    0    0 -0.30818135048E+02  0.81736231416E+01 -0.39462438537E+00  0.59301932643E+02  0.49999979237E+02 0.  0.
         12    1    1    2    0    0  0.30818135048E+02 -0.81736231416E+01  0.39462438537E+00  0.31886067357E+02  0.00000000000E+00 0. -1.
         11    1    3    3    0    0  0.52409683119E+01  0.10374925491E+02  0.16731949437E+00  0.11624750486E+02  0.51100000000E-03 0.  1.
        -11    1    3    3    0    0 -0.97949257730E+00  0.10362412969E+02 -0.36740770634E+00  0.10415085066E+02  0.51100000000E-03 0. -1.
        -12    1    3    3    0    0 -0.35079610783E+02 -0.12563715319E+02 -0.19453617339E+00  0.37262097091E+02  0.00000000000E+00 0.  1.
</event>
<event>
 7    1  0.3449603E-013  0.5930196E+02  0.7816164E-02  0.1266605E+00
        -11   -1    0    0    0    0  0.00000000000E+00  0.00000000000E+00  0.45593999997E+02  0.45594000000E+02  0.51100000000E-03 0. -1.
         11   -1    0    0    0    0 -0.00000000000E+00 -0.00000000000E+00 -0.45593999997E+02  0.45594000000E+02  0.51100000000E-03 0.  1.
    9900012    2    1    2    0    0 -0.28695917609E+02 -0.31789101629E+01 -0.13533610051E+02  0.59301956685E+02  0.50000023084E+02 0.  0.
         12    1    1    2    0    0  0.28695917609E+02  0.31789101629E+01  0.13533610051E+02  0.31886043315E+02  0.00000000000E+00 0. -1.
         11    1    3    3    0    0 -0.17683390144E+02  0.11744484122E+02 -0.16040341045E+02  0.26606911421E+02  0.51100000000E-03 0. -1.
        -11    1    3    3    0    0 -0.50722658658E+01 -0.11425134650E+01 -0.11214428578E+02  0.12361093262E+02  0.51100000000E-03 0.  1.
         12    1    3    3    0    0 -0.59402615993E+01 -0.13780880820E+02  0.13721159572E+02  0.20333952002E+02  0.00000000000E+00 0. -1.
</event>
<event>
 7    1  0.3449603E-013  0.5930197E+02  0.7816164E-02  0.1266605E+00
        -11   -1    0    0    0    0  0.00000000000E+00  0.00000000000E+00  0.45593999997E+02  0.45594000000E+02  0.51100000000E-03 0.  1.
         11   -1    0    0    0    0 -0.00000000000E+00 -0.00000000000E+00 -0.45593999997E+02  0.45594000000E+02  0.51100000000E-03 0. -1.
    9900012    2    1    2    0    0 -0.11920177060E+02 -0.13880848982E+02  0.26114176681E+02  0.59301971503E+02  0.50000050109E+02 0.  0.
         12    1    1    2    0    0  0.11920177060E+02  0.13880848982E+02 -0.26114176681E+02  0.31886028497E+02  0.00000000000E+00 0. -1.
         11    1    3    3    0    0 -0.23671325113E+01  0.53250828736E+01  0.49551956006E+01  0.76494305433E+01  0.51100000000E-03 0. -1.
        -11    1    3    3    0    0 -0.98121737062E+00  0.13307934439E+02  0.41757717825E+01  0.13982166385E+02  0.51100000000E-03 0.  1.
        -12    1    3    3    0    0 -0.85718271780E+01 -0.32513866295E+02  0.16983209297E+02  0.37670374575E+02  0.00000000000E+00 0.  1.
</event>
<event>
 7    1  0.3449603E-013  0.5930195E+02  0.7816164E-02  0.1266605E+00
        -11   -1    0    0    0    0  0.00000000000E+00  0.00000000000E+00  0.45593999997E+02  0.45594000000E+02  0.51100000000E-03 0. -1.
         11   -1    0    0    0    0 -0.00000000000E+00 -0.00000000000E+00 -0.45593999997E+02  0.45594000000E+02  0.51100000000E-03 0.  1.
    9900012    2    1    2    0    0 -0.28088127941E+02  0.67976268370E+01 -0.13474770871E+02  0.59301951141E+02  0.50000012972E+02 0.  0.
         12    1    1    2    0    0  0.28088127941E+02 -0.67976268370E+01  0.13474770871E+02  0.31886048859E+02  0.00000000000E+00 0. -1.
         11    1    3    3    0    0 -0.29216794685E+02  0.78502988486E+00 -0.17104344622E+01  0.29277345336E+02  0.51100000000E-03 0. -1.
        -11    1    3    3    0    0  0.12229974227E+01  0.15909735852E+02 -0.19317313605E+01  0.16073176534E+02  0.51100000000E-03 0.  1.
         12    1    3    3    0    0 -0.94330678931E-01 -0.98971388999E+01 -0.98326050479E+01  0.13951429271E+02  0.00000000000E+00 0. -1.
</event>
<event>
 7    1  0.3449603E-013  0.5930195E+02  0.7816164E-02  0.1266605E+00
        -11   -1    0    0    0    0  0.00000000000E+00  0.00000000000E+00  0.45593999997E+02  0.45594000000E+02  0.51100000000E-03 0. -1.
         11   -1    0    0    0    0 -0.00000000000E+00 -0.00000000000E+00 -0.45593999997E+02  0.45594000000E+02  0.51100000000E-03 0.  1.
    9900012    2    1    2    0    0  0.23072499183E+02  0.19146702309E+02 -0.10852826659E+02  0.59301948592E+02  0.50000008325E+02 0.  0.
         12    1    1    2    0    0 -0.23072499183E+02 -0.19146702309E+02  0.10852826659E+02  0.31886051408E+02  0.00000000000E+00 0. -1.
         11    1    3    3    0    0  0.96774426364E+00 -0.61115660564E+01 -0.11821584053E+02  0.13343073799E+02  0.51100000000E-03 0. -1.
        -11    1    3    3    0    0  0.17681891590E+02  0.53595294261E+01 -0.11783752179E+02  0.21914165774E+02  0.51100000000E-03 0.  1.
         12    1    3    3    0    0  0.44228633296E+01  0.19898738939E+02  0.12752509573E+02  0.24044709019E+02  0.00000000000E+00 0. -1.
</event>
<event>
 7    1  0.3449603E-013  0.5930195E+02  0.7816164E-02  0.1266605E+00
        -11   -1    0    0    0    0  0.00000000000E+00  0.00000000000E+00  0.45593999997E+02  0.45594000000E+02  0.51100000000E-03 0.  1.
         11   -1    0    0    0    0 -0.00000000000E+00 -0.00000000000E+00 -0.45593999997E+02  0.45594000000E+02  0.51100000000E-03 0. -1.
    9900012    2    1    2    0    0 -0.11150607413E+02  0.61334513209E+01  0.29236357801E+02  0.59301954647E+02  0.50000019367E+02 0.  0.
         12    1    1    2    0    0  0.11150607413E+02 -0.61334513209E+01 -0.29236357801E+02  0.31886045353E+02  0.00000000000E+00 0. -1.
         11    1    3    3    0    0 -0.36838013407E+01  0.19559832549E+02  0.16136746588E+02  0.25623271305E+02  0.51100000000E-03 0. -1.
        -11    1    3    3    0    0 -0.47702200425E+01  0.59609843144E+01 -0.31301173819E+01  0.82514222008E+01  0.51100000000E-03 0.  1.
        -12    1    3    3    0    0 -0.26965860296E+01 -0.19387365542E+02  0.16229728595E+02  0.25427261142E+02  0.00000000000E+00 0.  1.
</event>
<event>
 7    1  0.4901624E-013  0.5930195E+02  0.7816164E-02  0.1266605E+00
        -11   -1    0    0    0    0  0.00000000000E+00  0.00000000000E+00  0.45593999997E+02  0.45594000000E+02  0.51100000000E-03 0. -1.
         11   -1    0    0    0    0 -0.00000000000E+00 -0.00000000000E+00 -0.45593999997E+02  0.45594000000E+02  0.51100000000E-03 0.  1.
    9900012    2    1    2    0    0  0.41734450125E+01 -0.14654770298E+02 -0.28009650257E+02  0.59301945944E+02  0.50000003495E+02 0.  0.
         12    1    1    2    0    0 -0.41734450125E+01  0.14654770298E+02  0.28009650257E+02  0.31886054056E+02  0.00000000000E+00 0. -1.
         11    1    3    3    0    0  0.11540935663E+02 -0.14725469357E+02 -0.10957258049E+02  0.21681654641E+02  0.51100000000E-03 0. -1.
        -11    1    3    3    0    0 -0.12305287310E+02 -0.94099582597E+01 -0.21112293322E+02  0.26185804166E+02  0.51100000000E-03 0.  1.
         12    1    3    3    0    0  0.49377966591E+01  0.94806573181E+01  0.40599011147E+01  0.11434487137E+02  0.00000000000E+00 0. -1.
</event>
<event>
 7    1  0.3449603E-013  0.5930194E+02  0.7816164E-02  0.1266605E+00
        -11   -1    0    0    0    0  0.00000000000E+00  0.00000000000E+00  0.45593999997E+02  0.45594000000E+02  0.51100000000E-03 0.  1.
         11   -1    0    0    0    0 -0.00000000000E+00 -0.00000000000E+00 -0.45593999997E+02  0.45594000000E+02  0.51100000000E-03 0. -1.
    9900012    2    1    2    0    0 -0.67160248913E+01 -0.28006376684E+02  0.13684238353E+02  0.59301944982E+02  0.50000001740E+02 0.  0.
         12    1    1    2    0    0  0.67160248913E+01  0.28006376684E+02 -0.13684238353E+02  0.31886055018E+02  0.00000000000E+00 0. -1.
         11    1    3    3    0    0 -0.11227881710E+02 -0.17762206478E+02  0.51186990677E+01  0.21627815125E+02  0.51100000000E-03 0. -1.
        -11    1    3    3    0    0 -0.48895692528E+01 -0.20251821479E+02  0.11259082670E+02  0.23681450622E+02  0.51100000000E-03 0.  1.
        -12    1    3    3    0    0  0.94014260719E+01  0.10007651274E+02 -0.26935433854E+01  0.13992679235E+02  0.00000000000E+00 0.  1.
</event>
<event>
 7    1  0.3449603E-013  0.5930209E+02  0.7816164E-02  0.1266604E+00
        -11   -1    0    0    0    0  0.00000000000E+00  0.00000000000E+00  0.45593999997E+02  0.45594000000E+02  0.51100000000E-03 0.  1.
         11   -1    0    0    0    0 -0.00000000000E+00 -0.00000000000E+00 -0.45593999997E+02  0.45594000000E+02  0.51100000000E-03 0. -1.
    9900012    2    1    2    0    0  0.24438292211E+02  0.16091245916E+02  0.12670950927E+02  0.59302089025E+02  0.50000264439E+02 0.  0.
         12    1    1    2    0    0 -0.24438292211E+02 -0.16091245916E+02 -0.12670950927E+02  0.31885910975E+02  0.00000000000E+00 0. -1.
         11    1    3    3    0    0 -0.57774549841E+01  0.13627737007E+02  0.44299384864E+01  0.15450519644E+02  0.51100000000E-03 0.  1.
        -11    1    3    3    0    0  0.10010266532E+01  0.11226185811E+02  0.71182027086E+01  0.13330345543E+02  0.51100000000E-03 0. -1.
         12    1    3    3    0    0  0.29214720542E+02 -0.87626769019E+01  0.11228097320E+01  0.30521223838E+02  0.00000000000E+00 0. -1.
</event>
<event>
 7    1  0.3449603E-013  0.5930195E+02  0.7816164E-02  0.1266605E+00
        -11   -1    0    0    0    0  0.00000000000E+00  0.00000000000E+00  0.45593999997E+02  0.45594000000E+02  0.51100000000E-03 0.  1.
         11   -1    0    0    0    0 -0.00000000000E+00 -0.00000000000E+00 -0.45593999997E+02  0.45594000000E+02  0.51100000000E-03 0. -1.
    9900012    2    1    2    0    0  0.24587222816E+01  0.86168864902E+01  0.30601051798E+02  0.59301946321E+02  0.50000004183E+02 0.  0.
         12    1    1    2    0    0 -0.24587222816E+01 -0.86168864902E+01 -0.30601051798E+02  0.31886053679E+02  0.00000000000E+00 0. -1.
         11    1    3    3    0    0  0.80414962125E+01  0.11008757997E+01  0.41195641105E+02  0.41987598588E+02  0.51100000000E-03 0. -1.
        -11    1    3    3    0    0 -0.42560617116E+01  0.18044981289E+01  0.61526355800E+00  0.46635634763E+01  0.51100000000E-03 0.  1.
        -12    1    3    3    0    0 -0.13267122193E+01  0.57115125616E+01 -0.11209852865E+02  0.12650784257E+02  0.00000000000E+00 0.  1.
</event>
<event>
 7    1  0.3449603E-013  0.5930195E+02  0.7816164E-02  0.1266605E+00
        -11   -1    0    0    0    0  0.00000000000E+00  0.00000000000E+00  0.45593999997E+02  0.45594000000E+02  0.51100000000E-03 0.  1.
         11   -1    0    0    0    0 -0.00000000000E+00 -0.00000000000E+00 -0.45593999997E+02  0.45594000000E+02  0.51100000000E-03 0. -1.
    9900012    2    1    2    0    0  0.40860220540E+01  0.73658333088E+01  0.30753361196E+02  0.59301948169E+02  0.50000007552E+02 0.  0.
         12    1    1    2    0    0 -0.40860220540E+01 -0.73658333088E+01 -0.30753361196E+02  0.31886051831E+02  0.00000000000E+00 0. -1.
         11    1    3    3    0    0 -0.59898477779E+01 -0.79632429206E+01  0.89359737506E+01  0.13384436535E+02  0.51100000000E-03 0. -1.
        -11    1    3    3    0    0 -0.12618031562E+02 -0.12710311113E-01  0.99277563960E+01  0.16055380076E+02  0.51100000000E-03 0.  1.
        -12    1    3    3    0    0  0.22693901394E+02  0.15341786541E+02  0.11889631049E+02  0.29862131558E+02  0.00000000000E+00 0.  1.
</event>
<event>
 7    1  0.3449603E-013  0.5930197E+02  0.7816164E-02  0.1266605E+00
        -11   -1    0    0    0    0  0.00000000000E+00  0.00000000000E+00  0.45593999997E+02  0.45594000000E+02  0.51100000000E-03 0.  1.
         11   -1    0    0    0    0 -0.00000000000E+00 -0.00000000000E+00 -0.45593999997E+02  0.45594000000E+02  0.51100000000E-03 0. -1.
    9900012    2    1    2    0    0  0.11593940314E+02  0.28002327765E+02  0.99080324967E+01  0.59301969826E+02  0.50000047050E+02 0.  0.
         12    1    1    2    0    0 -0.11593940314E+02 -0.28002327765E+02 -0.99080324967E+01  0.31886030174E+02  0.00000000000E+00 0. -1.
         11    1    3    3    0    0 -0.59874746262E+01 -0.22096339196E+00  0.80069792725E+00  0.60448155184E+01  0.51100000000E-03 0. -1.
        -11    1    3    3    0    0 -0.12301039968E+02  0.81360879757E+01  0.89480034056E+01  0.17250457300E+02  0.51100000000E-03 0.  1.
        -12    1    3    3    0    0  0.29882454908E+02  0.20087203182E+02  0.15933116389E+00  0.36006697008E+02  0.00000000000E+00 0.  1.
</event>
<event>
 7    1  0.3449603E-013  0.5930195E+02  0.7816164E-02  0.1266605E+00
        -11   -1    0    0    0    0  0.00000000000E+00  0.00000000000E+00  0.45593999997E+02  0.45594000000E+02  0.51100000000E-03 0.  1.
         11   -1    0    0    0    0 -0.00000000000E+00 -0.00000000000E+00 -0.45593999997E+02  0.45594000000E+02  0.51100000000E-03 0. -1.
    9900012    2    1    2    0    0  0.30358375481E+01  0.77412015011E+01  0.30782745274E+02  0.59301954198E+02  0.50000018548E+02 0.  0.
         12    1    1    2    0    0 -0.30358375481E+01 -0.77412015011E+01 -0.30782745274E+02  0.31886045802E+02  0.00000000000E+00 0. -1.
         11    1    3    3    0    0  0.13078674624E+02  0.14618357366E+00 -0.22156273394E+01  0.13265824676E+02  0.51100000000E-03 0. -1.
        -11    1    3    3    0    0  0.70367785593E+01 -0.46607501883E+01  0.21566487224E+01  0.87114854522E+01  0.51100000000E-03 0.  1.
        -12    1    3    3    0    0 -0.17079615636E+02  0.12255768116E+02  0.30841723891E+02  0.37324644070E+02  0.00000000000E+00 0.  1.
</event>
<event>
 7    1  0.3449603E-013  0.5930197E+02  0.7816164E-02  0.1266605E+00
        -11   -1    0    0    0    0  0.00000000000E+00  0.00000000000E+00  0.45593999997E+02  0.45594000000E+02  0.51100000000E-03 0.  1.
         11   -1    0    0    0    0 -0.00000000000E+00 -0.00000000000E+00 -0.45593999997E+02  0.45594000000E+02  0.51100000000E-03 0. -1.
    9900012    2    1    2    0    0  0.17042349373E+02 -0.26629952514E+02 -0.41379493089E+01  0.59301973789E+02  0.50000054277E+02 0.  0.
         12    1    1    2    0    0 -0.17042349373E+02  0.26629952514E+02  0.41379493089E+01  0.31886026211E+02  0.00000000000E+00 0. -1.
         11    1    3    3    0    0  0.29508807774E+02 -0.89801664234E+01 -0.80193426565E+01  0.31870409193E+02  0.51100000000E-03 0. -1.
        -11    1    3    3    0    0  0.21955067317E+00 -0.99800358921E+01 -0.38659528319E+01  0.10704901236E+02  0.51100000000E-03 0.  1.
        -12    1    3    3    0    0 -0.12686009074E+02 -0.76697501987E+01  0.77473461795E+01  0.16726663360E+02  0.00000000000E+00 0.  1.
</event>
<event>
 7    1  0.3449603E-013  0.5930194E+02  0.7816164E-02  0.1266605E+00
        -11   -1    0    0    0    0  0.00000000000E+00  0.00000000000E+00  0.45593999997E+02  0.45594000000E+02  0.51100000000E-03 0.  1.
         11   -1    0    0    0    0 -0.00000000000E+00 -0.00000000000E+00 -0.45593999997E+02  0.45594000000E+02  0.51100000000E-03 0. -1.
    9900012    2    1    2    0    0  0.12871616710E+02  0.27910069181E+02 -0.84894365941E+01  0.59301937024E+02  0.49999987227E+02 0.  0.
         12    1    1    2    0    0 -0.12871616710E+02 -0.27910069181E+02  0.84894365941E+01  0.31886062976E+02  0.00000000000E+00 0. -1.
         11    1    3    3    0    0 -0.10479186437E+01  0.70026602260E+01  0.31164042495E+00  0.70874892410E+01  0.51100000000E-03 0. -1.
        -11    1    3    3    0    0  0.23620185149E+01  0.30075122530E+02 -0.17709069860E+02  0.34981470556E+02  0.51100000000E-03 0.  1.
         12    1    3    3    0    0  0.11557516839E+02 -0.91677135751E+01  0.89079928409E+01  0.17232977228E+02  0.00000000000E+00 0. -1.
</event>
<event>
 7    1  0.3449603E-013  0.5930196E+02  0.7816164E-02  0.1266605E+00
        -11   -1    0    0    0    0  0.00000000000E+00  0.00000000000E+00  0.45593999997E+02  0.45594000000E+02  0.51100000000E-03 0.  1.
         11   -1    0    0    0    0 -0.00000000000E+00 -0.00000000000E+00 -0.45593999997E+02  0.45594000000E+02  0.51100000000E-03 0. -1.
    9900012    2    1    2    0    0 -0.16732232360E+02 -0.26218932291E+01  0.27016245047E+02  0.59301961985E+02  0.50000032750E+02 0.  0.
         12    1    1    2    0    0  0.16732232360E+02  0.26218932291E+01 -0.27016245047E+02  0.31886038015E+02  0.00000000000E+00 0. -1.
         11    1    3    3    0    0  0.24945543626E+00  0.82502131381E+01 -0.20107539263E+00  0.82564324265E+01  0.51100000000E-03 0. -1.
        -11    1    3    3    0    0 -0.26466492872E+02 -0.20795565186E+01  0.77184565847E+01  0.27647321255E+02  0.51100000000E-03 0.  1.
         12    1    3    3    0    0  0.94848050765E+01 -0.87925498486E+01  0.19498863855E+02  0.23398208303E+02  0.00000000000E+00 0. -1.
</event>
<event>
 7    1  0.3449603E-013  0.5930194E+02  0.7816164E-02  0.1266605E+00
        -11   -1    0    0    0    0  0.00000000000E+00  0.00000000000E+00  0.45593999997E+02  0.45594000000E+02  0.51100000000E-03 0. -1.
         11   -1    0    0    0    0 -0.00000000000E+00 -0.00000000000E+00 -0.45593999997E+02  0.45594000000E+02  0.51100000000E-03 0.  1.
    9900012    2    1    2    0    0  0.77534802945E+01 -0.19760884810E+02 -0.23793099008E+02  0.59301943713E+02  0.49999999426E+02 0.  0.
         12    1    1    2    0    0 -0.77534802945E+01  0.19760884810E+02  0.23793099008E+02  0.31886056287E+02  0.00000000000E+00 0. -1.
         11    1    3    3    0    0  0.13094351806E+01 -0.10662790408E+02 -0.10872425380E+02  0.15284611662E+02  0.51100000000E-03 0. -1.
        -11    1    3    3    0    0  0.26986943968E+01 -0.22293983462E+02 -0.18611452710E+02  0.29166604573E+02  0.51100000000E-03 0.  1.
         12    1    3    3    0    0  0.37453507171E+01  0.13195889060E+02  0.56907790821E+01  0.14850727478E+02  0.00000000000E+00 0. -1.
</event>
<event>
 7    1  0.3449603E-013  0.5930196E+02  0.7816164E-02  0.1266605E+00
        -11   -1    0    0    0    0  0.00000000000E+00  0.00000000000E+00  0.45593999997E+02  0.45594000000E+02  0.51100000000E-03 0.  1.
         11   -1    0    0    0    0 -0.00000000000E+00 -0.00000000000E+00 -0.45593999997E+02  0.45594000000E+02  0.51100000000E-03 0. -1.
    9900012    2    1    2    0    0  0.28267854672E+02 -0.98328343502E+01  0.10998334422E+02  0.59301959179E+02  0.50000027633E+02 0.  0.
         12    1    1    2    0    0 -0.28267854672E+02  0.98328343502E+01 -0.10998334422E+02  0.31886040821E+02  0.00000000000E+00 0. -1.
         11    1    3    3    0    0 -0.79277780031E+01  0.29247877059E+01 -0.86350737670E+01  0.12081744345E+02  0.51100000000E-03 0. -1.
        -11    1    3    3    0    0  0.27191762153E+01  0.32272244937E+01 -0.15563736515E+01  0.44979102289E+01  0.51100000000E-03 0.  1.
        -12    1    3    3    0    0  0.33476456460E+02 -0.15984846550E+02  0.21189781841E+02  0.42722304606E+02  0.00000000000E+00 0.  1.
</event>
<event>
 7    1  0.3449603E-013  0.5930198E+02  0.7816164E-02  0.1266605E+00
        -11   -1    0    0    0    0  0.00000000000E+00  0.00000000000E+00  0.45593999997E+02  0.45594000000E+02  0.51100000000E-03 0.  1.
         11   -1    0    0    0    0 -0.00000000000E+00 -0.00000000000E+00 -0.45593999997E+02  0.45594000000E+02  0.51100000000E-03 0. -1.
    9900012    2    1    2    0    0 -0.20254146762E+02 -0.24596126939E+02 -0.12321705469E+01  0.59301981658E+02  0.50000068629E+02 0.  0.
         12    1    1    2    0    0  0.20254146762E+02  0.24596126939E+02  0.12321705469E+01  0.31886018342E+02  0.00000000000E+00 0. -1.
         11    1    3    3    0    0 -0.40852343185E+01  0.24836441262E+01 -0.12061397156E+02  0.12974395138E+02  0.51100000000E-03 0. -1.
        -11    1    3    3    0    0  0.56336809391E+01  0.38105471633E+01 -0.60142098684E+00  0.68279087627E+01  0.51100000000E-03 0.  1.
        -12    1    3    3    0    0 -0.21802593383E+02 -0.30890318228E+02  0.11430647596E+02  0.39499677757E+02  0.00000000000E+00 0.  1.
</event>
<event>
 7    1  0.3449603E-013  0.5930194E+02  0.7816164E-02  0.1266605E+00
        -11   -1    0    0    0    0  0.00000000000E+00  0.00000000000E+00  0.45593999997E+02  0.45594000000E+02  0.51100000000E-03 0.  1.
         11   -1    0    0    0    0 -0.00000000000E+00 -0.00000000000E+00 -0.45593999997E+02  0.45594000000E+02  0.51100000000E-03 0. -1.
    9900012    2    1    2    0    0  0.22814898819E+02  0.10668732409E+01  0.22250006207E+02  0.59301943442E+02  0.49999998931E+02 0.  0.
         12    1    1    2    0    0 -0.22814898819E+02 -0.10668732409E+01 -0.22250006207E+02  0.31886056558E+02  0.00000000000E+00 0. -1.
         11    1    3    3    0    0 -0.10173200813E+02 -0.63666660355E+00  0.95366786913E+01  0.13958782177E+02  0.51100000000E-03 0. -1.
        -11    1    3    3    0    0  0.14435290190E+02 -0.13193081667E+02  0.37174350145E+01  0.19906138000E+02  0.51100000000E-03 0.  1.
         12    1    3    3    0    0  0.18552809442E+02  0.14896621511E+02  0.89958925010E+01  0.25437023264E+02  0.00000000000E+00 0. -1.
</event>
<event>
 7    1  0.3449603E-013  0.5930195E+02  0.7816164E-02  0.1266605E+00
        -11   -1    0    0    0    0  0.00000000000E+00  0.00000000000E+00  0.45593999997E+02  0.45594000000E+02  0.51100000000E-03 0.  1.
         11   -1    0    0    0    0 -0.00000000000E+00 -0.00000000000E+00 -0.45593999997E+02  0.45594000000E+02  0.51100000000E-03 0. -1.
    9900012    2    1    2    0    0  0.12212329261E+02 -0.13771701607E+02  0.26036888899E+02  0.59301947647E+02  0.50000006601E+02 0.  0.
         12    1    1    2    0    0 -0.12212329261E+02  0.13771701607E+02 -0.26036888899E+02  0.31886052353E+02  0.00000000000E+00 0. -1.
         11    1    3    3    0    0  0.15037615338E+01 -0.13662384486E+02  0.71741093687E+01  0.15504512056E+02  0.51100000000E-03 0. -1.
        -11    1    3    3    0    0  0.12521363730E+02 -0.10560300582E+02  0.26200741407E+02  0.30899568745E+02  0.51100000000E-03 0.  1.
        -12    1    3    3    0    0 -0.18127960029E+01  0.10450983462E+02 -0.73379618771E+01  0.12897866846E+02  0.00000000000E+00 0.  1.
</event>
<event>
 7    1  0.3449603E-013  0.5930199E+02  0.7816164E-02  0.1266605E+00
        -11   -1    0    0    0    0  0.00000000000E+00  0.00000000000E+00  0.45593999997E+02  0.45594000000E+02  0.51100000000E-03 0.  1.
         11   -1    0    0    0    0 -0.00000000000E+00 -0.00000000000E+00 -0.45593999997E+02  0.45594000000E+02  0.51100000000E-03 0. -1.
    9900012    2    1    2    0    0 -0.65497391311E+01 -0.95319125064E+01  0.29714665648E+02  0.59301987498E+02  0.50000079279E+02 0.  0.
         12    1    1    2    0    0  0.65497391311E+01  0.95319125064E+01 -0.29714665648E+02  0.31886012502E+02  0.00000000000E+00 0. -1.
         11    1    3    3    0    0 -0.37047986483E+01  0.10223745845E+02  0.96444275438E+01  0.14534974889E+02  0.51100000000E-03 0. -1.
        -11    1    3    3    0    0  0.26010852844E+01  0.34397041842E+01 -0.73002776977E+01  0.84788716382E+01  0.51100000000E-03 0.  1.
        -12    1    3    3    0    0 -0.54460257672E+01 -0.23195362535E+02  0.27370515802E+02  0.36288140970E+02  0.00000000000E+00 0.  1.
</event>
<event>
 7    1  0.3449603E-013  0.5930197E+02  0.7816164E-02  0.1266605E+00
        -11   -1    0    0    0    0  0.00000000000E+00  0.00000000000E+00  0.45593999997E+02  0.45594000000E+02  0.51100000000E-03 0. -1.
         11   -1    0    0    0    0 -0.00000000000E+00 -0.00000000000E+00 -0.45593999997E+02  0.45594000000E+02  0.51100000000E-03 0.  1.
    9900012    2    1    2    0    0 -0.13871503377E+02  0.78266321790E+01 -0.27623251971E+02  0.59301971294E+02  0.50000049727E+02 0.  0.
         12    1    1    2    0    0  0.13871503377E+02 -0.78266321790E+01  0.27623251971E+02  0.31886028706E+02  0.00000000000E+00 0. -1.
         11    1    3    3    0    0  0.34815417143E+01  0.21690303366E+02 -0.62563241984E+01  0.22841453228E+02  0.51100000000E-03 0. -1.
        -11    1    3    3    0    0  0.22529350298E+01 -0.85846986391E+01 -0.92321224239E+01  0.12806437900E+02  0.51100000000E-03 0.  1.
        -12    1    3    3    0    0 -0.19605980121E+02 -0.52789725479E+01 -0.12134805349E+02  0.23654080166E+02  0.00000000000E+00 0.  1.
</event>
<event>
 7    1  0.3449603E-013  0.5930196E+02  0.7816164E-02  0.1266605E+00
        -11   -1    0    0    0    0  0.00000000000E+00  0.00000000000E+00  0.45593999997E+02  0.45594000000E+02  0.51100000000E-03 0.  1.
         11   -1    0    0    0    0 -0.00000000000E+00 -0.00000000000E+00 -0.45593999997E+02  0.45594000000E+02  0.51100000000E-03 0. -1.
    9900012    2    1    2    0    0  0.14880134385E+01 -0.12435731314E+02  0.29323333079E+02  0.59301961360E+02  0.50000031609E+02 0.  0.
         12    1    1    2    0    0 -0.14880134385E+01  0.12435731314E+02 -0.29323333079E+02  0.31886038640E+02  0.00000000000E+00 0. -1.
         11    1    3    3    0    0  0.16051002293E+02 -0.43269660418E+01  0.25656833045E+01  0.16820821645E+02  0.51100000000E-03 0. -1.
        -11    1    3    3    0    0 -0.57487060128E+01 -0.48346765065E+01 -0.52217097285E+01  0.91481129472E+01  0.51100000000E-03 0.  1.
        -12    1    3    3    0    0 -0.88142828415E+01 -0.32740887660E+01  0.31979359503E+02  0.33333026767E+02  0.00000000000E+00 0.  1.
</event>
<event>
 7    1  0.3449603E-013  0.5930195E+02  0.7816164E-02  0.1266605E+00
        -11   -1    0    0    0    0  0.00000000000E+00  0.00000000000E+00  0.45593999997E+02  0.45594000000E+02  0.51100000000E-03 0.  1.
         11   -1    0    0    0    0 -0.00000000000E+00 -0.00000000000E+00 -0.45593999997E+02  0.45594000000E+02  0.51100000000E-03 0. -1.
    9900012    2    1    2    0    0 -0.27843056004E+02  0.52229725977E+01  0.14635745979E+02  0.59301948649E+02  0.50000008429E+02 0.  0.
         12    1    1    2    0    0  0.27843056004E+02 -0.52229725977E+01 -0.14635745979E+02  0.31886051351E+02  0.00000000000E+00 0. -1.
         11    1    3    3    0    0  0.21156014779E+00  0.17954684205E+02  0.19413728693E+00  0.17956980039E+02  0.51100000000E-03 0. -1.
        -11    1    3    3    0    0 -0.65505512536E+01  0.54584810684E+01  0.94713581054E+01  0.12744071638E+02  0.51100000000E-03 0.  1.
         12    1    3    3    0    0 -0.21504064898E+02 -0.18190192675E+02  0.49702505865E+01  0.28600896972E+02  0.00000000000E+00 0. -1.
</event>
<event>
 7    1  0.3449603E-013  0.5930195E+02  0.7816164E-02  0.1266605E+00
        -11   -1    0    0    0    0  0.00000000000E+00  0.00000000000E+00  0.45593999997E+02  0.45594000000E+02  0.51100000000E-03 0.  1.
         11   -1    0    0    0    0 -0.00000000000E+00 -0.00000000000E+00 -0.45593999997E+02  0.45594000000E+02  0.51100000000E-03 0. -1.
    9900012    2    1    2    0    0  0.13738076103E+02 -0.28760696943E+02 -0.89874524925E+00  0.59301950281E+02  0.50000011404E+02 0.  0.
         12    1    1    2    0    0 -0.13738076103E+02  0.28760696943E+02  0.89874524925E+00  0.31886049719E+02  0.00000000000E+00 0. -1.
         11    1    3    3    0    0 -0.27457510943E+01 -0.21179517530E+02  0.75009729097E+01  0.22635717499E+02  0.51100000000E-03 0. -1.
        -11    1    3    3    0    0  0.40779523312E+01 -0.17618337414E+02  0.10602689675E+01  0.18115178139E+02  0.51100000000E-03 0.  1.
         12    1    3    3    0    0  0.12405874866E+02  0.10037158000E+02 -0.94599871265E+01  0.18551054643E+02  0.00000000000E+00 0. -1.
</event>
<event>
 7    1  0.3449603E-013  0.5930197E+02  0.7816164E-02  0.1266605E+00
        -11   -1    0    0    0    0  0.00000000000E+00  0.00000000000E+00  0.45593999997E+02  0.45594000000E+02  0.51100000000E-03 0. -1.
         11   -1    0    0    0    0 -0.00000000000E+00 -0.00000000000E+00 -0.45593999997E+02  0.45594000000E+02  0.51100000000E-03 0.  1.
    9900012    2    1    2    0    0 -0.18988792286E+02  0.23759479692E+02 -0.95724641916E+01  0.59301965777E+02  0.50000039666E+02 0.  0.
         12    1    1    2    0    0  0.18988792286E+02 -0.23759479692E+02  0.95724641916E+01  0.31886034223E+02  0.00000000000E+00 0. -1.
         11    1    3    3    0    0 -0.14260965790E+02 -0.74544634924E+00 -0.50770867684E+00  0.14289457788E+02  0.51100000000E-03 0. -1.
        -11    1    3    3    0    0  0.10377998066E+02  0.87020933750E+01  0.93263911297E+01  0.16444173580E+02  0.51100000000E-03 0.  1.
        -12    1    3    3    0    0 -0.15105824563E+02  0.15802832667E+02 -0.18391146644E+02  0.28568334409E+02  0.00000000000E+00 0.  1.
</event>
<event>
 7    1  0.3449603E-013  0.5930194E+02  0.7816164E-02  0.1266605E+00
        -11   -1    0    0    0    0  0.00000000000E+00  0.00000000000E+00  0.45593999997E+02  0.45594000000E+02  0.51100000000E-03 0.  1.
         11   -1    0    0    0    0 -0.00000000000E+00 -0.00000000000E+00 -0.45593999997E+02  0.45594000000E+02  0.51100000000E-03 0. -1.
    9900012    2    1    2    0    0  0.93203471738E+01  0.22298301148E+02  0.20799948000E+02  0.59301938119E+02  0.49999989223E+02 0.  0.
         12    1    1    2    0    0 -0.93203471738E+01 -0.22298301148E+02 -0.20799948000E+02  0.31886061881E+02  0.00000000000E+00 0. -1.
         11    1    3    3    0    0 -0.81615895278E+01  0.74470918872E+01 -0.82562138059E+01  0.13792599025E+02  0.51100000000E-03 0. -1.
        -11    1    3    3    0    0  0.14597797311E+02  0.14605807084E+02  0.49566403668E+01  0.21236609213E+02  0.51100000000E-03 0.  1.
        -12    1    3    3    0    0  0.28841393908E+01  0.24540217678E+00  0.24099521439E+02  0.24272729880E+02  0.00000000000E+00 0.  1.
</event>
<event>
 7    1  0.3449603E-013  0.5930194E+02  0.7816164E-02  0.1266605E+00
        -11   -1    0    0    0    0  0.00000000000E+00  0.00000000000E+00  0.45593999997E+02  0.45594000000E+02  0.51100000000E-03 0.  1.
         11   -1    0    0    0    0 -0.00000000000E+00 -0.00000000000E+00 -0.45593999997E+02  0.45594000000E+02  0.51100000000E-03 0. -1.
    9900012    2    1    2    0    0  0.37542612289E+01  0.51453992063E+01  0.31243423703E+02  0.59301935096E+02  0.49999983711E+02 0.  0.
         12    1    1    2    0    0 -0.37542612289E+01 -0.51453992063E+01 -0.31243423703E+02  0.31886064904E+02  0.00000000000E+00 0. -1.
         11    1    3    3    0    0  0.11993828680E+02  0.13646353060E+02  0.10648427904E+02  0.21058582463E+02  0.51100000000E-03 0. -1.
        -11    1    3    3    0    0  0.10678411893E+02 -0.31167243960E+01  0.22547957829E+01  0.11350178668E+02  0.51100000000E-03 0.  1.
        -12    1    3    3    0    0 -0.18917979344E+02 -0.53842294579E+01  0.18340200016E+02  0.26893173965E+02  0.00000000000E+00 0.  1.
</event>
<event>
 7    1  0.3449603E-013  0.5930197E+02  0.7816164E-02  0.1266605E+00
        -11   -1    0    0    0    0  0.00000000000E+00  0.00000000000E+00  0.45593999997E+02  0.45594000000E+02  0.51100000000E-03 0.  1.
         11   -1    0    0    0    0 -0.00000000000E+00 -0.00000000000E+00 -0.45593999997E+02  0.45594000000E+02  0.51100000000E-03 0. -1.
    9900012    2    1    2    0    0  0.26859918355E+02  0.10914780654E+02  0.13271434581E+02  0.59301974431E+02  0.50000055448E+02 0.  0.
         12    1    1    2    0    0 -0.26859918355E+02 -0.10914780654E+02 -0.13271434581E+02  0.31886025569E+02  0.00000000000E+00 0. -1.
         11    1    3    3    0    0  0.75128283080E+01 -0.14656582947E+02  0.11065636529E+02  0.19842034293E+02  0.51100000000E-03 0. -1.
        -11    1    3    3    0    0  0.10219885577E+02  0.71468255312E+01  0.11437178615E+02  0.16921354299E+02  0.51100000000E-03 0.  1.
        -12    1    3    3    0    0  0.91272044696E+01  0.18424538069E+02 -0.92313805623E+01  0.22538585838E+02  0.00000000000E+00 0.  1.
</event>
<event>
 7    1  0.3449603E-013  0.5930194E+02  0.7816164E-02  0.1266605E+00
        -11   -1    0    0    0    0  0.00000000000E+00  0.00000000000E+00  0.45593999997E+02  0.45594000000E+02  0.51100000000E-03 0.  1.
         11   -1    0    0    0    0 -0.00000000000E+00 -0.00000000000E+00 -0.45593999997E+02  0.45594000000E+02  0.51100000000E-03 0. -1.
    9900012    2    1    2    0    0 -0.84157021432E+01  0.74600362343E+01  0.29836969614E+02  0.59301938171E+02  0.49999989320E+02 0.  0.
         12    1    1    2    0    0  0.84157021432E+01 -0.74600362343E+01 -0.29836969614E+02  0.31886061829E+02  0.00000000000E+00 0. -1.
         11    1    3    3    0    0  0.71129583687E+01 -0.11164365711E+02  0.94696900525E+00  0.13271548103E+02  0.51100000000E-03 0. -1.
        -11    1    3    3    0    0 -0.66856165436E+01 -0.27879097209E+00 -0.34599277924E+01  0.75330135778E+01  0.51100000000E-03 0.  1.
        -12    1    3    3    0    0 -0.88430439683E+01  0.18903192918E+02  0.32349928401E+02  0.38497376491E+02  0.00000000000E+00 0.  1.
</event>
<event>
 7    1  0.3449603E-013  0.5930196E+02  0.7816164E-02  0.1266605E+00
        -11   -1    0    0    0    0  0.00000000000E+00  0.00000000000E+00  0.45593999997E+02  0.45594000000E+02  0.51100000000E-03 0. -1.
         11   -1    0    0    0    0 -0.00000000000E+00 -0.00000000000E+00 -0.45593999997E+02  0.45594000000E+02  0.51100000000E-03 0.  1.
    9900012    2    1    2    0    0  0.38892754142E+00 -0.15246435132E+02 -0.28002042390E+02  0.59301961882E+02  0.50000032562E+02 0.  0.
         12    1    1    2    0    0 -0.38892754142E+00  0.15246435132E+02  0.28002042390E+02  0.31886038118E+02  0.00000000000E+00 0. -1.
         11    1    3    3    0    0  0.57214418263E+01 -0.75804395308E+01  0.81924326680E+01  0.12542484337E+02  0.51100000000E-03 0. -1.
        -11    1    3    3    0    0 -0.16040589203E+02 -0.48152209512E+01 -0.13526308857E+02  0.21527839797E+02  0.51100000000E-03 0.  1.
        -12    1    3    3    0    0  0.10708074918E+02 -0.28507746499E+01 -0.22668166201E+02  0.25231637749E+02  0.00000000000E+00 0.  1.
</event>
<event>
 7    1  0.3449603E-013  0.5930196E+02  0.7816164E-02  0.1266605E+00
        -11   -1    0    0    0    0  0.00000000000E+00  0.00000000000E+00  0.45593999997E+02  0.45594000000E+02  0.51100000000E-03 0.  1.
         11   -1    0    0    0    0 -0.00000000000E+00 -0.00000000000E+00 -0.45593999997E+02  0.45594000000E+02  0.51100000000E-03 0. -1.
    9900012    2    1    2    0    0  0.11456865166E+02  0.27289401844E+01  0.29631273556E+02  0.59301964710E+02  0.50000037720E+02 0.  0.
         12    1    1    2    0    0 -0.11456865166E+02 -0.27289401844E+01 -0.29631273556E+02  0.31886035290E+02  0.00000000000E+00 0. -1.
         11    1    3    3    0    0  0.21994752266E+02  0.50821992365E+01  0.74793000759E+01  0.23781038796E+02  0.51100000000E-03 0. -1.
        -11    1    3    3    0    0  0.84630007989E+01 -0.50574226099E+00  0.88333760234E+01  0.12243638756E+02  0.51100000000E-03 0.  1.
         12    1    3    3    0    0 -0.19000887899E+02 -0.18475167911E+01  0.13318597456E+02  0.23277287158E+02  0.00000000000E+00 0. -1.
</event>
<event>
 7    1  0.3449603E-013  0.5930190E+02  0.7816164E-02  0.1266605E+00
        -11   -1    0    0    0    0  0.00000000000E+00  0.00000000000E+00  0.45593999997E+02  0.45594000000E+02  0.51100000000E-03 0. -1.
         11   -1    0    0    0    0 -0.00000000000E+00 -0.00000000000E+00 -0.45593999997E+02  0.45594000000E+02  0.51100000000E-03 0.  1.
    9900012    2    1    2    0    0  0.34275516105E+01 -0.40462216267E+01 -0.31442060535E+02  0.59301902870E+02  0.49999924937E+02 0.  0.
         12    1    1    2    0    0 -0.34275516105E+01  0.40462216267E+01  0.31442060535E+02  0.31886097130E+02  0.00000000000E+00 0. -1.
         11    1    3    3    0    0 -0.15335285824E+02  0.38096965937E+00 -0.15055147061E+02  0.21493570725E+02  0.51100000000E-03 0. -1.
        -11    1    3    3    0    0 -0.15887526994E+01 -0.11443737688E+02 -0.15351203348E+01  0.11655035912E+02  0.51100000000E-03 0.  1.
        -12    1    3    3    0    0  0.20351590134E+02  0.70165464018E+01 -0.14851793139E+02  0.26153296233E+02  0.00000000000E+00 0.  1.
</event>
<event>
 7    1  0.3449603E-013  0.5930201E+02  0.7816164E-02  0.1266605E+00
        -11   -1    0    0    0    0  0.00000000000E+00  0.00000000000E+00  0.45593999997E+02  0.45594000000E+02  0.51100000000E-03 0.  1.
         11   -1    0    0    0    0 -0.00000000000E+00 -0.00000000000E+00 -0.45593999997E+02  0.45594000000E+02  0.51100000000E-03 0. -1.
    9900012    2    1    2    0    0  0.18257125416E+02  0.11646348348E+02  0.23404197905E+02  0.59302007184E+02  0.50000115181E+02 0.  0.
         12    1    1    2    0    0 -0.18257125416E+02 -0.11646348348E+02 -0.23404197905E+02  0.31885992816E+02  0.00000000000E+00 0. -1.
         11    1    3    3    0    0  0.23366275818E+02  0.13023999123E+02  0.65044663480E+01  0.27530264828E+02  0.51100000000E-03 0. -1.
        -11    1    3    3    0    0  0.44357776805E+01 -0.10259442575E+02  0.10177876262E+01  0.11223554584E+02  0.51100000000E-03 0.  1.
         12    1    3    3    0    0 -0.95449280828E+01  0.88817918000E+01  0.15881943931E+02  0.20548187772E+02  0.00000000000E+00 0. -1.
</event>
<event>
 7    1  0.3449603E-013  0.5930194E+02  0.7816164E-02  0.1266605E+00
        -11   -1    0    0    0    0  0.00000000000E+00  0.00000000000E+00  0.45593999997E+02  0.45594000000E+02  0.51100000000E-03 0.  1.
         11   -1    0    0    0    0 -0.00000000000E+00 -0.00000000000E+00 -0.45593999997E+02  0.45594000000E+02  0.51100000000E-03 0. -1.
    9900012    2    1    2    0    0  0.22157863479E+01  0.30312074262E+02  0.96430914512E+01  0.59301940853E+02  0.49999994210E+02 0.  0.
         12    1    1    2    0    0 -0.22157863479E+01 -0.30312074262E+02 -0.96430914512E+01  0.31886059147E+02  0.00000000000E+00 0. -1.
         11    1    3    3    0    0 -0.60520227101E+01 -0.12372901553E+02  0.23527558769E+01  0.13973229126E+02  0.51100000000E-03 0. -1.
        -11    1    3    3    0    0  0.49326677043E+01  0.63171547613E+01 -0.33039440162E+00  0.80216466939E+01  0.51100000000E-03 0.  1.
        -12    1    3    3    0    0  0.33351413538E+01  0.36367821054E+02  0.76207299760E+01  0.37307065033E+02  0.00000000000E+00 0.  1.
</event>
<event>
 7    1  0.3449603E-013  0.5930234E+02  0.7816164E-02  0.1266603E+00
        -11   -1    0    0    0    0  0.00000000000E+00  0.00000000000E+00  0.45593999997E+02  0.45594000000E+02  0.51100000000E-03 0.  1.
         11   -1    0    0    0    0 -0.00000000000E+00 -0.00000000000E+00 -0.45593999997E+02  0.45594000000E+02  0.51100000000E-03 0. -1.
    9900012    2    1    2    0    0 -0.24178347687E+02  0.19938522370E+02  0.58786260434E+01  0.59302338406E+02  0.50000719246E+02 0.  0.
         12    1    1    2    0    0  0.24178347687E+02 -0.19938522370E+02 -0.58786260434E+01  0.31885661594E+02  0.00000000000E+00 0. -1.
         11    1    3    3    0    0 -0.13344505828E+02  0.30622530629E+02 -0.61024113710E+00  0.33409394074E+02  0.51100000000E-03 0. -1.
        -11    1    3    3    0    0 -0.78338658724E+01  0.37606529522E+01  0.69585976828E+01  0.11132566959E+02  0.51100000000E-03 0.  1.
        -12    1    3    3    0    0 -0.29999759864E+01 -0.14444661211E+02 -0.46973050231E+00  0.14760377372E+02  0.00000000000E+00 0.  1.
</event>
<event>
 7    1  0.3449603E-013  0.5930195E+02  0.7816164E-02  0.1266605E+00
        -11   -1    0    0    0    0  0.00000000000E+00  0.00000000000E+00  0.45593999997E+02  0.45594000000E+02  0.51100000000E-03 0.  1.
         11   -1    0    0    0    0 -0.00000000000E+00 -0.00000000000E+00 -0.45593999997E+02  0.45594000000E+02  0.51100000000E-03 0. -1.
    9900012    2    1    2    0    0  0.25167768748E+02  0.18755422509E+02 -0.56158709250E+01  0.59301945627E+02  0.50000002917E+02 0.  0.
         12    1    1    2    0    0 -0.25167768748E+02 -0.18755422509E+02  0.56158709250E+01  0.31886054373E+02  0.00000000000E+00 0. -1.
         11    1    3    3    0    0  0.52717651728E+01  0.23221493092E+02 -0.19767061613E+02  0.30947794340E+02  0.51100000000E-03 0. -1.
        -11    1    3    3    0    0  0.59349137236E+01  0.40019813511E+01  0.68817974126E+00  0.71911506213E+01  0.51100000000E-03 0.  1.
        -12    1    3    3    0    0  0.13961089852E+02 -0.84680519343E+01  0.13463010947E+02  0.21163000665E+02  0.00000000000E+00 0.  1.
</event>
<event>
 7    1  0.3449603E-013  0.5930196E+02  0.7816164E-02  0.1266605E+00
        -11   -1    0    0    0    0  0.00000000000E+00  0.00000000000E+00  0.45593999997E+02  0.45594000000E+02  0.51100000000E-03 0. -1.
         11   -1    0    0    0    0 -0.00000000000E+00 -0.00000000000E+00 -0.45593999997E+02  0.45594000000E+02  0.51100000000E-03 0.  1.
    9900012    2    1    2    0    0 -0.18995847057E+02  0.21133093251E+02 -0.14466166035E+02  0.59301956101E+02  0.50000022020E+02 0.  0.
         12    1    1    2    0    0  0.18995847057E+02 -0.21133093251E+02  0.14466166035E+02  0.31886043899E+02  0.00000000000E+00 0. -1.
         11    1    3    3    0    0  0.78732881074E+00  0.56824381402E+01 -0.89517729617E+01  0.10632225980E+02  0.51100000000E-03 0. -1.
        -11    1    3    3    0    0 -0.84954584720E+01  0.12542697015E+02 -0.23068553563E+02  0.27598011284E+02  0.51100000000E-03 0.  1.
         12    1    3    3    0    0 -0.11287717395E+02  0.29079580954E+01  0.17554160490E+02  0.21071718838E+02  0.00000000000E+00 0. -1.
</event>
<event>
 7    1  0.3790324E-013  0.5930195E+02  0.7816164E-02  0.1266605E+00
        -11   -1    0    0    0    0  0.00000000000E+00  0.00000000000E+00  0.45593999997E+02  0.45594000000E+02  0.51100000000E-03 0.  1.
         11   -1    0    0    0    0 -0.00000000000E+00 -0.00000000000E+00 -0.45593999997E+02  0.45594000000E+02  0.51100000000E-03 0. -1.
    9900012    2    1    2    0    0  0.19037999594E+01 -0.31742208736E+02 -0.23511846429E+01  0.59301947580E+02  0.50000006478E+02 0.  0.
         12    1    1    2    0    0 -0.19037999594E+01  0.31742208736E+02  0.23511846429E+01  0.31886052420E+02  0.00000000000E+00 0. -1.
         11    1    3    3    0    0 -0.48415149392E+01 -0.22599843279E+02 -0.10572699201E+02  0.25416041230E+02  0.51100000000E-03 0. -1.
        -11    1    3    3    0    0 -0.35443719478E+01 -0.17633027608E+02 -0.42084065179E+00  0.17990645965E+02  0.51100000000E-03 0.  1.
         12    1    3    3    0    0  0.10289686846E+02  0.84906621508E+01  0.86423552096E+01  0.15895260386E+02  0.00000000000E+00 0. -1.
</event>
<event>
 7    1  0.3449603E-013  0.5930202E+02  0.7816164E-02  0.1266605E+00
        -11   -1    0    0    0    0  0.00000000000E+00  0.00000000000E+00  0.45593999997E+02  0.45594000000E+02  0.51100000000E-03 0.  1.
         11   -1    0    0    0    0 -0.00000000000E+00 -0.00000000000E+00 -0.45593999997E+02  0.45594000000E+02  0.51100000000E-03 0. -1.
    9900012    2    1    2    0    0 -0.23612847148E+02  0.70147011412E+01  0.20247057472E+02  0.59302016891E+02  0.50000132885E+02 0.  0.
         12    1    1    2    0    0  0.23612847148E+02 -0.70147011412E+01 -0.20247057472E+02  0.31885983109E+02  0.00000000000E+00 0. -1.
         11    1    3    3    0    0  0.32675559284E+01  0.14588969135E+01 -0.89841284329E+01  0.96705669901E+01  0.51100000000E-03 0. -1.
        -11    1    3    3    0    0 -0.15228482104E+02  0.17359851620E+02  0.13380079383E+02  0.26688904812E+02  0.51100000000E-03 0.  1.
        -12    1    3    3    0    0 -0.11651920972E+02 -0.11804047393E+02  0.15851106522E+02  0.22942545089E+02  0.00000000000E+00 0.  1.
</event>
<event>
 7    1  0.3449603E-013  0.5930196E+02  0.7816164E-02  0.1266605E+00
        -11   -1    0    0    0    0  0.00000000000E+00  0.00000000000E+00  0.45593999997E+02  0.45594000000E+02  0.51100000000E-03 0. -1.
         11   -1    0    0    0    0 -0.00000000000E+00 -0.00000000000E+00 -0.45593999997E+02  0.45594000000E+02  0.51100000000E-03 0.  1.
    9900012    2    1    2    0    0  0.16706803147E+02  0.24516441442E+01 -0.27047953347E+02  0.59301959000E+02  0.50000027305E+02 0.  0.
         12    1    1    2    0    0 -0.16706803147E+02 -0.24516441442E+01  0.27047953347E+02  0.31886041000E+02  0.00000000000E+00 0. -1.
         11    1    3    3    0    0 -0.16723174983E+01  0.12181866248E+02 -0.11331058912E+01  0.12348216079E+02  0.51100000000E-03 0. -1.
        -11    1    3    3    0    0  0.17989557431E+02  0.86324026134E+01 -0.86549145972E+01  0.21749714904E+02  0.51100000000E-03 0.  1.
        -12    1    3    3    0    0  0.38956321413E+00 -0.18362624717E+02 -0.17259932859E+02  0.25204028017E+02  0.00000000000E+00 0.  1.
</event>
<event>
 7    1  0.3449603E-013  0.5930200E+02  0.7816164E-02  0.1266605E+00
        -11   -1    0    0    0    0  0.00000000000E+00  0.00000000000E+00  0.45593999997E+02  0.45594000000E+02  0.51100000000E-03 0.  1.
         11   -1    0    0    0    0 -0.00000000000E+00 -0.00000000000E+00 -0.45593999997E+02  0.45594000000E+02  0.51100000000E-03 0. -1.
    9900012    2    1    2    0    0 -0.14775901561E+02  0.68659470881E+00  0.28247443135E+02  0.59302004282E+02  0.50000109889E+02 0.  0.
         12    1    1    2    0    0  0.14775901561E+02 -0.68659470881E+00 -0.28247443135E+02  0.31885995718E+02  0.00000000000E+00 0. -1.
         11    1    3    3    0    0  0.11400416886E+02  0.71767358027E+01  0.40403202506E+01  0.14064111417E+02  0.51100000000E-03 0. -1.
        -11    1    3    3    0    0 -0.20279491531E+01 -0.12364609666E+02  0.12734050287E+02  0.17864831008E+02  0.51100000000E-03 0.  1.
        -12    1    3    3    0    0 -0.24148369295E+02  0.58744685726E+01  0.11473072598E+02  0.27373061857E+02  0.00000000000E+00 0.  1.
</event>
<event>
 7    1  0.3449603E-013  0.5930195E+02  0.7816164E-02  0.1266605E+00
        -11   -1    0    0    0    0  0.00000000000E+00  0.00000000000E+00  0.45593999997E+02  0.45594000000E+02  0.51100000000E-03 0. -1.
         11   -1    0    0    0    0 -0.00000000000E+00 -0.00000000000E+00 -0.45593999997E+02  0.45594000000E+02  0.51100000000E-03 0.  1.
    9900012    2    1    2    0    0  0.14263776910E+02 -0.19599803873E+02 -0.20715037710E+02  0.59301946137E+02  0.50000003847E+02 0.  0.
         12    1    1    2    0    0 -0.14263776910E+02  0.19599803873E+02  0.20715037710E+02  0.31886053863E+02  0.00000000000E+00 0. -1.
         11    1    3    3    0    0  0.16179934349E+02 -0.53414029789E+01  0.67325969788E+01  0.18320718426E+02  0.51100000000E-03 0. -1.
        -11    1    3    3    0    0  0.30391256684E+01 -0.21186527959E+02 -0.22823083115E+02  0.31288949726E+02  0.51100000000E-03 0.  1.
        -12    1    3    3    0    0 -0.49552831071E+01  0.69281270645E+01 -0.46245515734E+01  0.96922779855E+01  0.00000000000E+00 0.  1.
</event>
<event>
 7    1  0.3449603E-013  0.5930193E+02  0.7816164E-02  0.1266605E+00
        -11   -1    0    0    0    0  0.00000000000E+00  0.00000000000E+00  0.45593999997E+02  0.45594000000E+02  0.51100000000E-03 0.  1.
         11   -1    0    0    0    0 -0.00000000000E+00 -0.00000000000E+00 -0.45593999997E+02  0.45594000000E+02  0.51100000000E-03 0. -1.
    9900012    2    1    2    0    0 -0.73829685361E+01  0.19593191641E+02  0.24048291224E+02  0.59301926333E+02  0.49999967729E+02 0.  0.
         12    1    1    2    0    0  0.73829685361E+01 -0.19593191641E+02 -0.24048291224E+02  0.31886073667E+02  0.00000000000E+00 0. -1.
         11    1    3    3    0    0 -0.85785425929E+01  0.47999581875E+01 -0.19987670350E+00  0.98321382505E+01  0.51100000000E-03 0. -1.
        -11    1    3    3    0    0 -0.13229065818E+02  0.14631843353E+02 -0.16818956664E+01  0.19797166353E+02  0.51100000000E-03 0.  1.
        -12    1    3    3    0    0  0.14424639875E+02  0.16139010004E+00  0.25930063594E+02  0.29672621729E+02  0.00000000000E+00 0.  1.
</event>
<event>
 7    1  0.3449603E-013  0.5930194E+02  0.7816164E-02  0.1266605E+00
        -11   -1    0    0    0    0  0.00000000000E+00  0.00000000000E+00  0.45593999997E+02  0.45594000000E+02  0.51100000000E-03 0. -1.
         11   -1    0    0    0    0 -0.00000000000E+00 -0.00000000000E+00 -0.45593999997E+02  0.45594000000E+02  0.51100000000E-03 0.  1.
    9900012    2    1    2    0    0 -0.25376063319E+02 -0.19119758861E+02 -0.26852952544E+01  0.59301943815E+02  0.49999999611E+02 0.  0.
         12    1    1    2    0    0  0.25376063319E+02  0.19119758861E+02  0.26852952544E+01  0.31886056185E+02  0.00000000000E+00 0. -1.
         11    1    3    3    0    0 -0.23496528032E+02 -0.17358531615E+02 -0.15307563728E+01  0.29253182130E+02  0.51100000000E-03 0. -1.
        -11    1    3    3    0    0 -0.15612351226E+02 -0.38683022891E+01  0.23294785470E+00  0.16086128756E+02  0.51100000000E-03 0.  1.
         12    1    3    3    0    0  0.13732815939E+02  0.21070750438E+01 -0.13874867363E+01  0.13962632928E+02  0.00000000000E+00 0. -1.
</event>
<event>
 7    1  0.3449603E-013  0.5930192E+02  0.7816164E-02  0.1266605E+00
        -11   -1    0    0    0    0  0.00000000000E+00  0.00000000000E+00  0.45593999997E+02  0.45594000000E+02  0.51100000000E-03 0.  1.
         11   -1    0    0    0    0 -0.00000000000E+00 -0.00000000000E+00 -0.45593999997E+02  0.45594000000E+02  0.51100000000E-03 0. -1.
    9900012    2    1    2    0    0 -0.68468071108E+01 -0.15127095668E+02  0.27221577766E+02  0.59301920168E+02  0.49999956486E+02 0.  0.
         12    1    1    2    0    0  0.68468071108E+01  0.15127095668E+02 -0.27221577766E+02  0.31886079832E+02  0.00000000000E+00 0. -1.
         11    1    3    3    0    0 -0.28430302738E+01  0.55185320184E+00 -0.90716227955E+01  0.95226941303E+01  0.51100000000E-03 0. -1.
        -11    1    3    3    0    0  0.95582779407E+01 -0.11904390299E+02  0.60531849837E+01  0.16423039739E+02  0.51100000000E-03 0.  1.
        -12    1    3    3    0    0 -0.13562054778E+02 -0.37745585714E+01  0.30240015578E+02  0.33356186298E+02  0.00000000000E+00 0.  1.
</event>
<event>
 7    1  0.3572327E-013  0.5930196E+02  0.7816164E-02  0.1266605E+00
        -11   -1    0    0    0    0  0.00000000000E+00  0.00000000000E+00  0.45593999997E+02  0.45594000000E+02  0.51100000000E-03 0.  1.
         11   -1    0    0    0    0 -0.00000000000E+00 -0.00000000000E+00 -0.45593999997E+02  0.45594000000E+02  0.51100000000E-03 0. -1.
    9900012    2    1    2    0    0 -0.19385793837E+02 -0.13736715498E+02 -0.21265308940E+02  0.59301957291E+02  0.50000024188E+02 0.  0.
         12    1    1    2    0    0  0.19385793837E+02  0.13736715498E+02  0.21265308940E+02  0.31886042709E+02  0.00000000000E+00 0. -1.
         11    1    3    3    0    0  0.27798106047E+01 -0.10173778116E+02 -0.48653156179E+01  0.11614835534E+02  0.51100000000E-03 0. -1.
        -11    1    3    3    0    0 -0.98085459970E+01  0.15156441791E+02 -0.17616070369E+02  0.25224021048E+02  0.51100000000E-03 0.  1.
         12    1    3    3    0    0 -0.12357058445E+02 -0.18719379174E+02  0.12160770470E+01  0.22463100708E+02  0.00000000000E+00 0. -1.
</event>
<event>
 7    1  0.3529451E-013  0.5930195E+02  0.7816164E-02  0.1266605E+00
        -11   -1    0    0    0    0  0.00000000000E+00  0.00000000000E+00  0.45593999997E+02  0.45594000000E+02  0.51100000000E-03 0.  1.
         11   -1    0    0    0    0 -0.00000000000E+00 -0.00000000000E+00 -0.45593999997E+02  0.45594000000E+02  0.51100000000E-03 0. -1.
    9900012    2    1    2    0    0 -0.27885850470E+02 -0.56180467796E+01  0.14406139619E+02  0.59301953448E+02  0.50000017180E+02 0.  0.
         12    1    1    2    0    0  0.27885850470E+02  0.56180467796E+01 -0.14406139619E+02  0.31886046552E+02  0.00000000000E+00 0. -1.
         11    1    3    3    0    0 -0.89205170769E+01 -0.69409903391E+01 -0.82869624572E+01  0.14015231673E+02  0.51100000000E-03 0. -1.
        -11    1    3    3    0    0 -0.15522071142E+02 -0.10750567358E+02  0.26159674512E+02  0.32262020425E+02  0.51100000000E-03 0.  1.
         12    1    3    3    0    0 -0.34432622504E+01  0.12073510917E+02 -0.34665724365E+01  0.13024701350E+02  0.00000000000E+00 0. -1.
</event>
<event>
 7    1  0.3449603E-013  0.5930194E+02  0.7816164E-02  0.1266605E+00
        -11   -1    0    0    0    0  0.00000000000E+00  0.00000000000E+00  0.45593999997E+02  0.45594000000E+02  0.51100000000E-03 0. -1.
         11   -1    0    0    0    0 -0.00000000000E+00 -0.00000000000E+00 -0.45593999997E+02  0.45594000000E+02  0.51100000000E-03 0.  1.
    9900012    2    1    2    0    0 -0.44156551257E+01 -0.29676553111E+02 -0.10794670991E+02  0.59301941345E+02  0.49999995108E+02 0.  0.
         12    1    1    2    0    0  0.44156551257E+01  0.29676553111E+02  0.10794670991E+02  0.31886058655E+02  0.00000000000E+00 0. -1.
         11    1    3    3    0    0  0.60439438653E+01 -0.11971676024E+02 -0.12488292764E+02  0.18325057727E+02  0.51100000000E-03 0. -1.
        -11    1    3    3    0    0  0.10389907880E+02  0.11180347695E+01 -0.57374364217E+01  0.11921340715E+02  0.51100000000E-03 0.  1.
         12    1    3    3    0    0 -0.20849506871E+02 -0.18822911856E+02  0.74310581948E+01  0.29055542903E+02  0.00000000000E+00 0. -1.
</event>
<event>
 7    1  0.3449603E-013  0.5930195E+02  0.7816164E-02  0.1266605E+00
        -11   -1    0    0    0    0  0.00000000000E+00  0.00000000000E+00  0.45593999997E+02  0.45594000000E+02  0.51100000000E-03 0. -1.
         11   -1    0    0    0    0 -0.00000000000E+00 -0.00000000000E+00 -0.45593999997E+02  0.45594000000E+02  0.51100000000E-03 0.  1.
    9900012    2    1    2    0    0 -0.25608043861E+01  0.29070289911E+02 -0.12848363608E+02  0.59301954118E+02  0.50000018402E+02 0.  0.
         12    1    1    2    0    0  0.25608043861E+01 -0.29070289911E+02  0.12848363608E+02  0.31886045882E+02  0.00000000000E+00 0. -1.
         11    1    3    3    0    0 -0.31538961839E+01  0.22442804658E+02  0.14660013664E+01  0.22710695769E+02  0.51100000000E-03 0. -1.
        -11    1    3    3    0    0 -0.12032463213E+02  0.12076852748E+02 -0.43539675163E+00  0.17053448738E+02  0.51100000000E-03 0.  1.
         12    1    3    3    0    0  0.12625555011E+02 -0.54493674950E+01 -0.13878968223E+02  0.19537809610E+02  0.00000000000E+00 0. -1.
</event>
<event>
 7    1  0.3449603E-013  0.5930193E+02  0.7816164E-02  0.1266605E+00
        -11   -1    0    0    0    0  0.00000000000E+00  0.00000000000E+00  0.45593999997E+02  0.45594000000E+02  0.51100000000E-03 0. -1.
         11   -1    0    0    0    0 -0.00000000000E+00 -0.00000000000E+00 -0.45593999997E+02  0.45594000000E+02  0.51100000000E-03 0.  1.
    9900012    2    1    2    0    0 -0.26846889753E+02  0.10364922601E+02  0.13730773117E+02  0.59301933446E+02  0.49999980701E+02 0.  0.
         12    1    1    2    0    0  0.26846889753E+02 -0.10364922601E+02 -0.13730773117E+02  0.31886066554E+02  0.00000000000E+00 0. -1.
         11    1    3    3    0    0  0.37622945145E+01  0.42952313374E+01  0.18021475336E+02  0.18904429264E+02  0.51100000000E-03 0. -1.
        -11    1    3    3    0    0  0.42392154988E+01  0.22827150442E+01  0.10813838303E+01  0.49346861367E+01  0.51100000000E-03 0.  1.
         12    1    3    3    0    0 -0.34848399766E+02  0.37869762194E+01 -0.53720860499E+01  0.35462818045E+02  0.00000000000E+00 0. -1.
</event>
<event>
 7    1  0.3449603E-013  0.5930192E+02  0.7816164E-02  0.1266605E+00
        -11   -1    0    0    0    0  0.00000000000E+00  0.00000000000E+00  0.45593999997E+02  0.45594000000E+02  0.51100000000E-03 0.  1.
         11   -1    0    0    0    0 -0.00000000000E+00 -0.00000000000E+00 -0.45593999997E+02  0.45594000000E+02  0.51100000000E-03 0. -1.
    9900012    2    1    2    0    0 -0.17773611385E+02 -0.26428613549E+02  0.15327610650E+01  0.59301917891E+02  0.49999952333E+02 0.  0.
         12    1    1    2    0    0  0.17773611385E+02  0.26428613549E+02 -0.15327610650E+01  0.31886082109E+02  0.00000000000E+00 0. -1.
         11    1    3    3    0    0 -0.15333077550E+01 -0.15464045780E+02  0.35419756797E+01  0.15938423277E+02  0.51100000000E-03 0. -1.
        -11    1    3    3    0    0 -0.20694154969E+02 -0.11531946986E+02 -0.16054624319E+02  0.28617910710E+02  0.51100000000E-03 0.  1.
         12    1    3    3    0    0  0.44538513388E+01  0.56737921728E+00  0.14045409704E+02  0.14745583904E+02  0.00000000000E+00 0. -1.
</event>
<event>
 7    1  0.3449603E-013  0.5930194E+02  0.7816164E-02  0.1266605E+00
        -11   -1    0    0    0    0  0.00000000000E+00  0.00000000000E+00  0.45593999997E+02  0.45594000000E+02  0.51100000000E-03 0. -1.
         11   -1    0    0    0    0 -0.00000000000E+00 -0.00000000000E+00 -0.45593999997E+02  0.45594000000E+02  0.51100000000E-03 0.  1.
    9900012    2    1    2    0    0 -0.14866501753E+02 -0.21245898531E+02 -0.18555848013E+02  0.59301943890E+02  0.49999999749E+02 0.  0.
         12    1    1    2    0    0  0.14866501753E+02  0.21245898531E+02  0.18555848013E+02  0.31886056110E+02  0.00000000000E+00 0. -1.
         11    1    3    3    0    0  0.16349843503E+01  0.68043422077E+01  0.30909500687E+01  0.76502430872E+01  0.51100000000E-03 0. -1.
        -11    1    3    3    0    0  0.45265410360E+01 -0.71047376425E+01 -0.20257580446E+02  0.21939380951E+02  0.51100000000E-03 0.  1.
        -12    1    3    3    0    0 -0.21028027139E+02 -0.20945503096E+02 -0.13892176355E+01  0.29712319852E+02  0.00000000000E+00 0.  1.
</event>
<event>
 7    1  0.3449603E-013  0.5930197E+02  0.7816164E-02  0.1266605E+00
        -11   -1    0    0    0    0  0.00000000000E+00  0.00000000000E+00  0.45593999997E+02  0.45594000000E+02  0.51100000000E-03 0. -1.
         11   -1    0    0    0    0 -0.00000000000E+00 -0.00000000000E+00 -0.45593999997E+02  0.45594000000E+02  0.51100000000E-03 0.  1.
    9900012    2    1    2    0    0  0.88146918538E+01  0.92637414505E+00 -0.30629427962E+02  0.59301971417E+02  0.50000049951E+02 0.  0.
         12    1    1    2    0    0 -0.88146918538E+01 -0.92637414505E+00  0.30629427962E+02  0.31886028583E+02  0.00000000000E+00 0. -1.
         11    1    3    3    0    0  0.40028122840E+01  0.80308257315E+01  0.98831688355E+01  0.13348921103E+02  0.51100000000E-03 0. -1.
        -11    1    3    3    0    0 -0.16289863198E+01 -0.89842908603E+01 -0.63110218385E+01  0.11099552946E+02  0.51100000000E-03 0.  1.
        -12    1    3    3    0    0  0.64408658896E+01  0.18798392738E+01 -0.34201574959E+02  0.34853497368E+02  0.00000000000E+00 0.  1.
</event>
<event>
 7    1  0.3449603E-013  0.5930191E+02  0.7816164E-02  0.1266605E+00
        -11   -1    0    0    0    0  0.00000000000E+00  0.00000000000E+00  0.45593999997E+02  0.45594000000E+02  0.51100000000E-03 0. -1.
         11   -1    0    0    0    0 -0.00000000000E+00 -0.00000000000E+00 -0.45593999997E+02  0.45594000000E+02  0.51100000000E-03 0.  1.
    9900012    2    1    2    0    0 -0.29617685329E+02  0.44861956882E+00 -0.11803133280E+02  0.59301913708E+02  0.49999944704E+02 0.  0.
         12    1    1    2    0    0  0.29617685329E+02 -0.44861956882E+00  0.11803133280E+02  0.31886086292E+02  0.00000000000E+00 0. -1.
         11    1    3    3    0    0  0.84416567144E+01 -0.44905503241E+01 -0.13695422887E+02  0.16703030222E+02  0.51100000000E-03 0. -1.
        -11    1    3    3    0    0 -0.24192686143E+01 -0.17529583686E+01  0.53952058985E+01  0.61671687684E+01  0.51100000000E-03 0.  1.
        -12    1    3    3    0    0 -0.35640073429E+02  0.66921282616E+01 -0.35029162921E+01  0.36431714718E+02  0.00000000000E+00 0.  1.
</event>
<event>
 7    1  0.3775236E-013  0.5930195E+02  0.7816164E-02  0.1266605E+00
        -11   -1    0    0    0    0  0.00000000000E+00  0.00000000000E+00  0.45593999997E+02  0.45594000000E+02  0.51100000000E-03 0. -1.
         11   -1    0    0    0    0 -0.00000000000E+00 -0.00000000000E+00 -0.45593999997E+02  0.45594000000E+02  0.51100000000E-03 0.  1.
    9900012    2    1    2    0    0 -0.20323024594E+02  0.24208734380E+00 -0.24569008530E+02  0.59301951090E+02  0.50000012880E+02 0.  0.
         12    1    1    2    0    0  0.20323024594E+02 -0.24208734380E+00  0.24569008530E+02  0.31886048910E+02  0.00000000000E+00 0. -1.
         11    1    3    3    0    0 -0.11931012957E+02 -0.12354612313E+02 -0.18737510634E+02  0.25418100255E+02  0.51100000000E-03 0. -1.
        -11    1    3    3    0    0 -0.41252000670E+01  0.34762982402E+01 -0.17592671348E+02  0.18401195897E+02  0.51100000000E-03 0.  1.
         12    1    3    3    0    0 -0.42668115701E+01  0.91204014164E+01  0.11761173451E+02  0.15482654938E+02  0.00000000000E+00 0. -1.
</event>
<event>
 7    1  0.3449603E-013  0.5930207E+02  0.7816164E-02  0.1266604E+00
        -11   -1    0    0    0    0  0.00000000000E+00  0.00000000000E+00  0.45593999997E+02  0.45594000000E+02  0.51100000000E-03 0. -1.
         11   -1    0    0    0    0 -0.00000000000E+00 -0.00000000000E+00 -0.45593999997E+02  0.45594000000E+02  0.51100000000E-03 0.  1.
    9900012    2    1    2    0    0  0.30160577046E+02 -0.68797262965E+01 -0.77279679806E+01  0.59302070018E+02  0.50000229776E+02 0.  0.
         12    1    1    2    0    0 -0.30160577046E+02  0.68797262965E+01  0.77279679806E+01  0.31885929982E+02  0.00000000000E+00 0. -1.
         11    1    3    3    0    0  0.33220310591E+00 -0.26837413531E+01  0.57617695714E+01  0.63648107128E+01  0.51100000000E-03 0. -1.
        -11    1    3    3    0    0 -0.42753315562E+01  0.53595655060E+01  0.87503521622E+01  0.11116297295E+02  0.51100000000E-03 0.  1.
        -12    1    3    3    0    0  0.34103705497E+02 -0.95555504494E+01 -0.22240089714E+02  0.41820962011E+02  0.00000000000E+00 0.  1.
</event>
<event>
 7    1  0.3449603E-013  0.5930198E+02  0.7816164E-02  0.1266605E+00
        -11   -1    0    0    0    0  0.00000000000E+00  0.00000000000E+00  0.45593999997E+02  0.45594000000E+02  0.51100000000E-03 0. -1.
         11   -1    0    0    0    0 -0.00000000000E+00 -0.00000000000E+00 -0.45593999997E+02  0.45594000000E+02  0.51100000000E-03 0.  1.
    9900012    2    1    2    0    0  0.18584298828E+02  0.31927204552E+01 -0.25712807243E+02  0.59301982952E+02  0.50000070989E+02 0.  0.
         12    1    1    2    0    0 -0.18584298828E+02 -0.31927204552E+01  0.25712807243E+02  0.31886017048E+02  0.00000000000E+00 0. -1.
         11    1    3    3    0    0 -0.66650029531E+01 -0.14322083109E+01 -0.28072646237E+02  0.28888526304E+02  0.51100000000E-03 0. -1.
        -11    1    3    3    0    0  0.51577135731E+01  0.62562574035E+01 -0.43079655129E+01  0.91815757429E+01  0.51100000000E-03 0.  1.
        -12    1    3    3    0    0  0.20091588208E+02 -0.16313286373E+01  0.66678045067E+01  0.21231880906E+02  0.00000000000E+00 0.  1.
</event>
<event>
 7    1  0.3449603E-013  0.5930195E+02  0.7816164E-02  0.1266605E+00
        -11   -1    0    0    0    0  0.00000000000E+00  0.00000000000E+00  0.45593999997E+02  0.45594000000E+02  0.51100000000E-03 0.  1.
         11   -1    0    0    0    0 -0.00000000000E+00 -0.00000000000E+00 -0.45593999997E+02  0.45594000000E+02  0.51100000000E-03 0. -1.
    9900012    2    1    2    0    0 -0.57337366274E+01  0.16604085816E+02  0.26611069301E+02  0.59301946453E+02  0.50000004423E+02 0.  0.
         12    1    1    2    0    0  0.57337366274E+01 -0.16604085816E+02 -0.26611069301E+02  0.31886053547E+02  0.00000000000E+00 0. -1.
         11    1    3    3    0    0  0.18244833475E+01  0.17353229987E+02  0.93766487394E+00  0.17474053512E+02  0.51100000000E-03 0. -1.
        -11    1    3    3    0    0 -0.68845161006E+01  0.15212473605E+02  0.16143366989E+02  0.23225507812E+02  0.51100000000E-03 0.  1.
         12    1    3    3    0    0 -0.67370387424E+00 -0.15961617776E+02  0.95300374376E+01  0.18602385129E+02  0.00000000000E+00 0. -1.
</event>
<event>
 7    1  0.3449603E-013  0.5930195E+02  0.7816164E-02  0.1266605E+00
        -11   -1    0    0    0    0  0.00000000000E+00  0.00000000000E+00  0.45593999997E+02  0.45594000000E+02  0.51100000000E-03 0. -1.
         11   -1    0    0    0    0 -0.00000000000E+00 -0.00000000000E+00 -0.45593999997E+02  0.45594000000E+02  0.51100000000E-03 0.  1.
    9900012    2    1    2    0    0  0.30847856899E+02  0.91507986382E+00 -0.80182523885E+01  0.59301952616E+02  0.50000015663E+02 0.  0.
         12    1    1    2    0    0 -0.30847856899E+02 -0.91507986382E+00  0.80182523885E+01  0.31886047384E+02  0.00000000000E+00 0. -1.
         11    1    3    3    0    0  0.91272970621E+01  0.11153289277E+02  0.11625888552E+02  0.18516606013E+02  0.51100000000E-03 0. -1.
        -11    1    3    3    0    0  0.38807028286E+01 -0.15290071477E+02 -0.34053457998E+01  0.16138231640E+02  0.51100000000E-03 0.  1.
        -12    1    3    3    0    0  0.17839857008E+02  0.50518620637E+01 -0.16238795141E+02  0.24647114963E+02  0.00000000000E+00 0.  1.
</event>
<event>
 7    1  0.3449603E-013  0.5930198E+02  0.7816164E-02  0.1266605E+00
        -11   -1    0    0    0    0  0.00000000000E+00  0.00000000000E+00  0.45593999997E+02  0.45594000000E+02  0.51100000000E-03 0. -1.
         11   -1    0    0    0    0 -0.00000000000E+00 -0.00000000000E+00 -0.45593999997E+02  0.45594000000E+02  0.51100000000E-03 0.  1.
    9900012    2    1    2    0    0 -0.31809392098E+02 -0.22070809511E+01  0.97967908204E-01  0.59301980655E+02  0.50000066800E+02 0.  0.
         12    1    1    2    0    0  0.31809392098E+02  0.22070809511E+01 -0.97967908204E-01  0.31886019345E+02  0.00000000000E+00 0. -1.
         11    1    3    3    0    0 -0.64596853212E+01  0.85840232170E+01 -0.38220950110E+01  0.11402692646E+02  0.51100000000E-03 0. -1.
        -11    1    3    3    0    0 -0.35789937413E+02 -0.99859125389E+01  0.17031599703E+01  0.37195951707E+02  0.51100000000E-03 0.  1.
         12    1    3    3    0    0  0.10440230637E+02 -0.80519162916E+00  0.22169029489E+01  0.10703336302E+02  0.00000000000E+00 0. -1.
</event>
<event>
 7    1  0.3449603E-013  0.5930193E+02  0.7816164E-02  0.1266605E+00
        -11   -1    0    0    0    0  0.00000000000E+00  0.00000000000E+00  0.45593999997E+02  0.45594000000E+02  0.51100000000E-03 0.  1.
         11   -1    0    0    0    0 -0.00000000000E+00 -0.00000000000E+00 -0.45593999997E+02  0.45594000000E+02  0.51100000000E-03 0. -1.
    9900012    2    1    2    0    0  0.21502674243E+02 -0.15148475848E+01  0.23495988892E+02  0.59301933187E+02  0.49999980230E+02 0.  0.
         12    1    1    2    0    0 -0.21502674243E+02  0.15148475848E+01 -0.23495988892E+02  0.31886066813E+02  0.00000000000E+00 0. -1.
         11    1    3    3    0    0 -0.95353772522E+01  0.56541264627E+01 -0.72755011695E+01  0.13259920170E+02  0.51100000000E-03 0. -1.
        -11    1    3    3    0    0  0.13761166748E+02 -0.95539791270E+01  0.16387388743E+02  0.23434904256E+02  0.51100000000E-03 0.  1.
        -12    1    3    3    0    0  0.17276884747E+02  0.23850050795E+01  0.14384101318E+02  0.22607108761E+02  0.00000000000E+00 0.  1.
</event>
<event>
 7    1  0.3449603E-013  0.5930194E+02  0.7816164E-02  0.1266605E+00
        -11   -1    0    0    0    0  0.00000000000E+00  0.00000000000E+00  0.45593999997E+02  0.45594000000E+02  0.51100000000E-03 0.  1.
         11   -1    0    0    0    0 -0.00000000000E+00 -0.00000000000E+00 -0.45593999997E+02  0.45594000000E+02  0.51100000000E-03 0. -1.
    9900012    2    1    2    0    0 -0.14661195747E+02 -0.10569828425E+02  0.26268782681E+02  0.59301939139E+02  0.49999991084E+02 0.  0.
         12    1    1    2    0    0  0.14661195747E+02  0.10569828425E+02 -0.26268782681E+02  0.31886060861E+02  0.00000000000E+00 0. -1.
         11    1    3    3    0    0 -0.18904728660E+02 -0.43476107337E+00  0.38348010803E+01  0.19294649064E+02  0.51100000000E-03 0. -1.
        -11    1    3    3    0    0  0.57767320021E+01  0.39780104487E+01 -0.53401283113E+01  0.88154506633E+01  0.51100000000E-03 0.  1.
        -12    1    3    3    0    0 -0.15331990894E+01 -0.14113077800E+02  0.27774109913E+02  0.31191839412E+02  0.00000000000E+00 0.  1.
</event>
<event>
 7    1  0.3449603E-013  0.5930189E+02  0.7816164E-02  0.1266605E+00
        -11   -1    0    0    0    0  0.00000000000E+00  0.00000000000E+00  0.45593999997E+02  0.45594000000E+02  0.51100000000E-03 0. -1.
         11   -1    0    0    0    0 -0.00000000000E+00 -0.00000000000E+00 -0.45593999997E+02  0.45594000000E+02  0.51100000000E-03 0.  1.
    9900012    2    1    2    0    0  0.23792416130E+02  0.21184600140E+02  0.13629221751E+01  0.59301891657E+02  0.49999904489E+02 0.  0.
         12    1    1    2    0    0 -0.23792416130E+02 -0.21184600140E+02 -0.13629221751E+01  0.31886108343E+02  0.00000000000E+00 0. -1.
         11    1    3    3    0    0 -0.37716844990E+01  0.63873070070E+01  0.77688305870E-01  0.74181756851E+01  0.51100000000E-03 0. -1.
        -11    1    3    3    0    0  0.23353221926E+02  0.55169192678E+01  0.19560923158E+02  0.30958667406E+02  0.51100000000E-03 0.  1.
         12    1    3    3    0    0  0.42108787037E+01  0.92803738648E+01 -0.18275689288E+02  0.20925048566E+02  0.00000000000E+00 0. -1.
</event>
<event>
 7    1  0.3449603E-013  0.5930195E+02  0.7816164E-02  0.1266605E+00
        -11   -1    0    0    0    0  0.00000000000E+00  0.00000000000E+00  0.45593999997E+02  0.45594000000E+02  0.51100000000E-03 0.  1.
         11   -1    0    0    0    0 -0.00000000000E+00 -0.00000000000E+00 -0.45593999997E+02  0.45594000000E+02  0.51100000000E-03 0. -1.
    9900012    2    1    2    0    0 -0.96285486156E+01  0.21483456738E+02  0.21505169969E+02  0.59301949801E+02  0.50000010530E+02 0.  0.
         12    1    1    2    0    0  0.96285486156E+01 -0.21483456738E+02 -0.21505169969E+02  0.31886050199E+02  0.00000000000E+00 0. -1.
         11    1    3    3    0    0  0.39275379511E+01  0.39694036546E+01  0.16025109182E+02  0.16970145676E+02  0.51100000000E-03 0. -1.
        -11    1    3    3    0    0  0.39533477620E+01  0.15014866207E+02  0.15553898317E+02  0.21977236379E+02  0.51100000000E-03 0.  1.
         12    1    3    3    0    0 -0.17509434329E+02  0.24991868767E+01 -0.10073837530E+02  0.20354567746E+02  0.00000000000E+00 0. -1.
</event>
<event>
 7    1  0.3449603E-013  0.5930198E+02  0.7816164E-02  0.1266605E+00
        -11   -1    0    0    0    0  0.00000000000E+00  0.00000000000E+00  0.45593999997E+02  0.45594000000E+02  0.51100000000E-03 0.  1.
         11   -1    0    0    0    0 -0.00000000000E+00 -0.00000000000E+00 -0.45593999997E+02  0.45594000000E+02  0.51100000000E-03 0. -1.
    9900012    2    1    2    0    0 -0.16863853999E+02 -0.14822512472E+02  0.22641158439E+02  0.59301976367E+02  0.50000058979E+02 0.  0.
         12    1    1    2    0    0  0.16863853999E+02  0.14822512472E+02 -0.22641158439E+02  0.31886023633E+02  0.00000000000E+00 0. -1.
         11    1    3    3    0    0 -0.25223029211E+02 -0.81232295995E+00  0.21253091499E+02  0.32993256427E+02  0.51100000000E-03 0. -1.
        -11    1    3    3    0    0  0.34531755884E+01  0.22135255996E+01  0.72871505490E+01  0.83622174457E+01  0.51100000000E-03 0.  1.
        -12    1    3    3    0    0  0.49059996233E+01 -0.16223715112E+02 -0.58990836090E+01  0.17946502494E+02  0.00000000000E+00 0.  1.
</event>
<event>
 7    1  0.3449603E-013  0.5930194E+02  0.7816164E-02  0.1266605E+00
        -11   -1    0    0    0    0  0.00000000000E+00  0.00000000000E+00  0.45593999997E+02  0.45594000000E+02  0.51100000000E-03 0. -1.
         11   -1    0    0    0    0 -0.00000000000E+00 -0.00000000000E+00 -0.45593999997E+02  0.45594000000E+02  0.51100000000E-03 0.  1.
    9900012    2    1    2    0    0 -0.98500526584E+01 -0.26966831239E+02 -0.13873978129E+02  0.59301940451E+02  0.49999993476E+02 0.  0.
         12    1    1    2    0    0  0.98500526584E+01  0.26966831239E+02  0.13873978129E+02  0.31886059549E+02  0.00000000000E+00 0. -1.
         11    1    3    3    0    0 -0.42335917618E+01 -0.46219349267E+00 -0.11392480178E+02  0.12162463850E+02  0.51100000000E-03 0. -1.
        -11    1    3    3    0    0 -0.51879852124E+01 -0.26521341795E+02 -0.17447754896E+02  0.32167078082E+02  0.51100000000E-03 0.  1.
         12    1    3    3    0    0 -0.42847568425E+00  0.16704048471E-01  0.14966256945E+02  0.14972398518E+02  0.00000000000E+00 0. -1.
</event>
<event>
 7    1  0.3449603E-013  0.5930194E+02  0.7816164E-02  0.1266605E+00
        -11   -1    0    0    0    0  0.00000000000E+00  0.00000000000E+00  0.45593999997E+02  0.45594000000E+02  0.51100000000E-03 0. -1.
         11   -1    0    0    0    0 -0.00000000000E+00 -0.00000000000E+00 -0.45593999997E+02  0.45594000000E+02  0.51100000000E-03 0.  1.
    9900012    2    1    2    0    0  0.16189576832E+02 -0.68826355894E+01 -0.26594126459E+02  0.59301942972E+02  0.49999998075E+02 0.  0.
         12    1    1    2    0    0 -0.16189576832E+02  0.68826355894E+01  0.26594126459E+02  0.31886057028E+02  0.00000000000E+00 0. -1.
         11    1    3    3    0    0  0.28091556660E+01  0.95618497299E+01  0.68183209836E+01  0.12075173999E+02  0.51100000000E-03 0. -1.
        -11    1    3    3    0    0  0.11376009835E+02 -0.15325981577E+02 -0.64207666174E+01  0.20137665090E+02  0.51100000000E-03 0.  1.
         12    1    3    3    0    0  0.20044113310E+01 -0.11185037426E+01 -0.26991680825E+02  0.27089103883E+02  0.00000000000E+00 0. -1.
</event>
<event>
 7    1  0.3449603E-013  0.5930196E+02  0.7816164E-02  0.1266605E+00
        -11   -1    0    0    0    0  0.00000000000E+00  0.00000000000E+00  0.45593999997E+02  0.45594000000E+02  0.51100000000E-03 0.  1.
         11   -1    0    0    0    0 -0.00000000000E+00 -0.00000000000E+00 -0.45593999997E+02  0.45594000000E+02  0.51100000000E-03 0. -1.
    9900012    2    1    2    0    0  0.25288221100E+02  0.18322450643E+02 -0.64430899774E+01  0.59301957091E+02  0.50000023825E+02 0.  0.
         12    1    1    2    0    0 -0.25288221100E+02 -0.18322450643E+02  0.64430899774E+01  0.31886042909E+02  0.00000000000E+00 0. -1.
         11    1    3    3    0    0  0.71730474861E+01 -0.76865772710E+01  0.36791849953E+01  0.11138782827E+02  0.51100000000E-03 0. -1.
        -11    1    3    3    0    0 -0.61406212365E+01 -0.47728026498E+01 -0.41321980487E+00  0.77883005317E+01  0.51100000000E-03 0.  1.
        -12    1    3    3    0    0  0.24255794850E+02  0.30781830563E+02 -0.97090551678E+01  0.40374873732E+02  0.00000000000E+00 0.  1.
</event>
<event>
 7    1  0.3449603E-013  0.5930183E+02  0.7816164E-02  0.1266605E+00
        -11   -1    0    0    0    0  0.00000000000E+00  0.00000000000E+00  0.45593999997E+02  0.45594000000E+02  0.51100000000E-03 0. -1.
         11   -1    0    0    0    0 -0.00000000000E+00 -0.00000000000E+00 -0.45593999997E+02  0.45594000000E+02  0.51100000000E-03 0.  1.
    9900012    2    1    2    0    0  0.13257037795E+02  0.27271941509E+02  0.98600204803E+01  0.59301829822E+02  0.49999791716E+02 0.  0.
         12    1    1    2    0    0 -0.13257037795E+02 -0.27271941509E+02 -0.98600204803E+01  0.31886170178E+02  0.00000000000E+00 0. -1.
         11    1    3    3    0    0  0.30818227803E+01  0.13919254551E+02 -0.15961703775E+02  0.21401384688E+02  0.51100000000E-03 0. -1.
        -11    1    3    3    0    0  0.62475813579E+01 -0.37528236734E+01  0.79244899024E+00  0.73310254406E+01  0.51100000000E-03 0.  1.
         12    1    3    3    0    0  0.39276336563E+01  0.17105510631E+02  0.25029275265E+02  0.30569419693E+02  0.00000000000E+00 0. -1.
</event>
<event>
 7    1  0.3449603E-013  0.5930177E+02  0.7816164E-02  0.1266605E+00
        -11   -1    0    0    0    0  0.00000000000E+00  0.00000000000E+00  0.45593999997E+02  0.45594000000E+02  0.51100000000E-03 0.  1.
         11   -1    0    0    0    0 -0.00000000000E+00 -0.00000000000E+00 -0.45593999997E+02  0.45594000000E+02  0.51100000000E-03 0. -1.
    9900012    2    1    2    0    0  0.31184909332E+02 -0.55790203092E+01  0.36204821380E+01  0.59301765845E+02  0.49999675036E+02 0.  0.
         12    1    1    2    0    0 -0.31184909332E+02  0.55790203092E+01 -0.36204821380E+01  0.31886234155E+02  0.00000000000E+00 0. -1.
         11    1    3    3    0    0  0.60405942271E+01  0.90737485222E+00 -0.19510853258E+02  0.20444693758E+02  0.51100000000E-03 0. -1.
        -11    1    3    3    0    0  0.22769331453E+01  0.28413881450E-02 -0.28465501959E+01  0.36451722731E+01  0.51100000000E-03 0.  1.
        -12    1    3    3    0    0  0.22867381960E+02 -0.64892365496E+01  0.25977885592E+02  0.35211899814E+02  0.00000000000E+00 0.  1.
</event>
<event>
 7    1  0.3449603E-013  0.5930190E+02  0.7816164E-02  0.1266605E+00
        -11   -1    0    0    0    0  0.00000000000E+00  0.00000000000E+00  0.45593999997E+02  0.45594000000E+02  0.51100000000E-03 0.  1.
         11   -1    0    0    0    0 -0.00000000000E+00 -0.00000000000E+00 -0.45593999997E+02  0.45594000000E+02  0.51100000000E-03 0. -1.
    9900012    2    1    2    0    0  0.41657435049E+01  0.36881412686E+01  0.31396937316E+02  0.59301898360E+02  0.49999916713E+02 0.  0.
         12    1    1    2    0    0 -0.41657435049E+01 -0.36881412686E+01 -0.31396937316E+02  0.31886101640E+02  0.00000000000E+00 0. -1.
         11    1    3    3    0    0 -0.19316407969E+01 -0.98355887241E+01  0.80495902675E+00  0.10055744677E+02  0.51100000000E-03 0. -1.
        -11    1    3    3    0    0 -0.10468018356E+02 -0.63529759210E+01  0.63679141876E+01  0.13801813023E+02  0.51100000000E-03 0.  1.
        -12    1    3    3    0    0  0.16565402658E+02  0.19876705914E+02  0.24224064102E+02  0.35444340660E+02  0.00000000000E+00 0.  1.
</event>
<event>
 7    1  0.3449603E-013  0.5930201E+02  0.7816164E-02  0.1266605E+00
        -11   -1    0    0    0    0  0.00000000000E+00  0.00000000000E+00  0.45593999997E+02  0.45594000000E+02  0.51100000000E-03 0. -1.
         11   -1    0    0    0    0 -0.00000000000E+00 -0.00000000000E+00 -0.45593999997E+02  0.45594000000E+02  0.51100000000E-03 0.  1.
    9900012    2    1    2    0    0 -0.13515107069E+01 -0.79122149679E+01 -0.30859146243E+02  0.59302005680E+02  0.50000112439E+02 0.  0.
         12    1    1    2    0    0  0.13515107069E+01  0.79122149679E+01  0.30859146243E+02  0.31885994320E+02  0.00000000000E+00 0. -1.
         11    1    3    3    0    0 -0.42905010682E+01 -0.16011119365E+02 -0.72187424606E+00  0.16591728223E+02  0.51100000000E-03 0. -1.
        -11    1    3    3    0    0  0.15474707684E+02  0.22001233994E+01 -0.11122960055E+02  0.19184039239E+02  0.51100000000E-03 0.  1.
        -12    1    3    3    0    0 -0.12535717323E+02  0.58987809979E+01 -0.19014311942E+02  0.23526238218E+02  0.00000000000E+00 0.  1.
</event>
<event>
 7    1  0.3449603E-013  0.5930196E+02  0.7816164E-02  0.1266605E+00
        -11   -1    0    0    0    0  0.00000000000E+00  0.00000000000E+00  0.45593999997E+02  0.45594000000E+02  0.51100000000E-03 0.  1.
         11   -1    0    0    0    0 -0.00000000000E+00 -0.00000000000E+00 -0.45593999997E+02  0.45594000000E+02  0.51100000000E-03 0. -1.
    9900012    2    1    2    0    0  0.23056479244E+02  0.21351127074E+02  0.54081316474E+01  0.59301956809E+02  0.50000023310E+02 0.  0.
         12    1    1    2    0    0 -0.23056479244E+02 -0.21351127074E+02 -0.54081316474E+01  0.31886043191E+02  0.00000000000E+00 0. -1.
         11    1    3    3    0    0  0.92036470499E+01  0.45851344538E+01 -0.76546169198E+01  0.12818882066E+02  0.51100000000E-03 0. -1.
        -11    1    3    3    0    0  0.22380714270E+02  0.40409267064E+01 -0.44947278268E+01  0.23182494223E+02  0.51100000000E-03 0.  1.
        -12    1    3    3    0    0 -0.85278820760E+01  0.12725065914E+02  0.17557476394E+02  0.23300580519E+02  0.00000000000E+00 0.  1.
</event>
<event>
 7    1  0.3449603E-013  0.5930196E+02  0.7816164E-02  0.1266605E+00
        -11   -1    0    0    0    0  0.00000000000E+00  0.00000000000E+00  0.45593999997E+02  0.45594000000E+02  0.51100000000E-03 0.  1.
         11   -1    0    0    0    0 -0.00000000000E+00 -0.00000000000E+00 -0.45593999997E+02  0.45594000000E+02  0.51100000000E-03 0. -1.
    9900012    2    1    2    0    0 -0.29213208536E+02  0.12399298410E+02 -0.30927919759E+01  0.59301960481E+02  0.50000030006E+02 0.  0.
         12    1    1    2    0    0  0.29213208536E+02 -0.12399298410E+02  0.30927919759E+01  0.31886039519E+02  0.00000000000E+00 0. -1.
         11    1    3    3    0    0 -0.18568150276E+02  0.62754673982E+01  0.52413032057E+01  0.20288641041E+02  0.51100000000E-03 0. -1.
        -11    1    3    3    0    0 -0.13664654935E+02  0.19463017212E+02 -0.17803702459E+01  0.23847464267E+02  0.51100000000E-03 0.  1.
         12    1    3    3    0    0  0.30195966753E+01 -0.13339186201E+02 -0.65537249357E+01  0.15165855172E+02  0.00000000000E+00 0. -1.
</event>
<event>
 7    1  0.3449603E-013  0.5930195E+02  0.7816164E-02  0.1266605E+00
        -11   -1    0    0    0    0  0.00000000000E+00  0.00000000000E+00  0.45593999997E+02  0.45594000000E+02  0.51100000000E-03 0.  1.
         11   -1    0    0    0    0 -0.00000000000E+00 -0.00000000000E+00 -0.45593999997E+02  0.45594000000E+02  0.51100000000E-03 0. -1.
    9900012    2    1    2    0    0 -0.21601519049E+01  0.16138976672E+02  0.27415091322E+02  0.59301952010E+02  0.50000014557E+02 0.  0.
         12    1    1    2    0    0  0.21601519049E+01 -0.16138976672E+02 -0.27415091322E+02  0.31886047990E+02  0.00000000000E+00 0. -1.
         11    1    3    3    0    0 -0.10987080214E+02  0.21447717258E+01  0.11801527061E+01  0.11256497593E+02  0.51100000000E-03 0. -1.
        -11    1    3    3    0    0 -0.13489211949E+02  0.10834360151E+02  0.80364895004E+01  0.19076880317E+02  0.51100000000E-03 0.  1.
         12    1    3    3    0    0  0.22316140258E+02  0.31598447953E+01  0.18198449115E+02  0.28968574100E+02  0.00000000000E+00 0. -1.
</event>
<event>
 7    1  0.3449603E-013  0.5930192E+02  0.7816164E-02  0.1266605E+00
        -11   -1    0    0    0    0  0.00000000000E+00  0.00000000000E+00  0.45593999997E+02  0.45594000000E+02  0.51100000000E-03 0. -1.
         11   -1    0    0    0    0 -0.00000000000E+00 -0.00000000000E+00 -0.45593999997E+02  0.45594000000E+02  0.51100000000E-03 0.  1.
    9900012    2    1    2    0    0 -0.39327016873E+01 -0.26251787636E+02 -0.17666338654E+02  0.59301921249E+02  0.49999958458E+02 0.  0.
         12    1    1    2    0    0  0.39327016873E+01  0.26251787636E+02  0.17666338654E+02  0.31886078751E+02  0.00000000000E+00 0. -1.
         11    1    3    3    0    0  0.82215849006E+01 -0.17302108435E+02  0.32066746189E+01  0.19422671725E+02  0.51100000000E-03 0. -1.
        -11    1    3    3    0    0  0.99342198804E+01 -0.29816440870E+01 -0.10493763864E+02  0.14754592722E+02  0.51100000000E-03 0.  1.
         12    1    3    3    0    0 -0.22088506468E+02 -0.59680351142E+01 -0.10379249409E+02  0.25124656802E+02  0.00000000000E+00 0. -1.
</event>
<event>
 7    1  0.3449603E-013  0.5930193E+02  0.7816164E-02  0.1266605E+00
        -11   -1    0    0    0    0  0.00000000000E+00  0.00000000000E+00  0.45593999997E+02  0.45594000000E+02  0.51100000000E-03 0. -1.
         11   -1    0    0    0    0 -0.00000000000E+00 -0.00000000000E+00 -0.45593999997E+02  0.45594000000E+02  0.51100000000E-03 0.  1.
    9900012    2    1    2    0    0  0.27075367191E+02 -0.11134525281E+02 -0.12635991172E+02  0.59301930398E+02  0.49999975143E+02 0.  0.
         12    1    1    2    0    0 -0.27075367191E+02  0.11134525281E+02  0.12635991172E+02  0.31886069602E+02  0.00000000000E+00 0. -1.
         11    1    3    3    0    0 -0.84400351724E+01 -0.13643627437E+02  0.36491089865E+01  0.16452925576E+02  0.51100000000E-03 0. -1.
        -11    1    3    3    0    0 -0.18577584449E+01  0.82208678932E+00 -0.18558452468E+01  0.27515913523E+01  0.51100000000E-03 0.  1.
        -12    1    3    3    0    0  0.37373160808E+02  0.16870153672E+01 -0.14429254912E+02  0.40097413470E+02  0.00000000000E+00 0.  1.
</event>
<event>
 7    1  0.3449603E-013  0.5930196E+02  0.7816164E-02  0.1266605E+00
        -11   -1    0    0    0    0  0.00000000000E+00  0.00000000000E+00  0.45593999997E+02  0.45594000000E+02  0.51100000000E-03 0.  1.
         11   -1    0    0    0    0 -0.00000000000E+00 -0.00000000000E+00 -0.45593999997E+02  0.45594000000E+02  0.51100000000E-03 0. -1.
    9900012    2    1    2    0    0  0.28560208136E+02  0.22284224712E+01 -0.14002444580E+02  0.59301955878E+02  0.50000021613E+02 0.  0.
         12    1    1    2    0    0 -0.28560208136E+02 -0.22284224712E+01  0.14002444580E+02  0.31886044122E+02  0.00000000000E+00 0. -1.
         11    1    3    3    0    0  0.55643342636E+01 -0.15281941055E+02  0.84052361668E+01  0.18307035082E+02  0.51100000000E-03 0. -1.
        -11    1    3    3    0    0 -0.29600869038E+01  0.39833614427E+01 -0.43801985153E+01  0.66193218803E+01  0.51100000000E-03 0.  1.
        -12    1    3    3    0    0  0.25955960776E+02  0.13527002084E+02 -0.18027482232E+02  0.34375598916E+02  0.00000000000E+00 0.  1.
</event>
<event>
 7    1  0.3449603E-013  0.5930194E+02  0.7816164E-02  0.1266605E+00
        -11   -1    0    0    0    0  0.00000000000E+00  0.00000000000E+00  0.45593999997E+02  0.45594000000E+02  0.51100000000E-03 0. -1.
         11   -1    0    0    0    0 -0.00000000000E+00 -0.00000000000E+00 -0.45593999997E+02  0.45594000000E+02  0.51100000000E-03 0.  1.
    9900012    2    1    2    0    0  0.26436963382E+02 -0.30979475960E+01 -0.17555926592E+02  0.59301939241E+02  0.49999991271E+02 0.  0.
         12    1    1    2    0    0 -0.26436963382E+02  0.30979475960E+01  0.17555926592E+02  0.31886060759E+02  0.00000000000E+00 0. -1.
         11    1    3    3    0    0  0.39538901211E+01 -0.15445676677E+02 -0.51484136888E+01  0.16754352833E+02  0.51100000000E-03 0. -1.
        -11    1    3    3    0    0 -0.33182136341E+01  0.11624070811E+02 -0.11554105460E+02  0.16722048834E+02  0.51100000000E-03 0.  1.
        -12    1    3    3    0    0  0.25801286895E+02  0.72365826958E+00 -0.85340744329E+00  0.25825537574E+02  0.00000000000E+00 0.  1.
</event>
<event>
 7    1  0.3449603E-013  0.5930178E+02  0.7816164E-02  0.1266605E+00
        -11   -1    0    0    0    0  0.00000000000E+00  0.00000000000E+00  0.45593999997E+02  0.45594000000E+02  0.51100000000E-03 0.  1.
         11   -1    0    0    0    0 -0.00000000000E+00 -0.00000000000E+00 -0.45593999997E+02  0.45594000000E+02  0.51100000000E-03 0. -1.
    9900012    2    1    2    0    0 -0.95385535795E+01  0.21815711644E+02  0.21208995201E+02  0.59301784227E+02  0.49999708560E+02 0.  0.
         12    1    1    2    0    0  0.95385535795E+01 -0.21815711644E+02 -0.21208995201E+02  0.31886215773E+02  0.00000000000E+00 0. -1.
         11    1    3    3    0    0 -0.13919046815E+01  0.39973167418E+01  0.15712406089E+02  0.16272542676E+02  0.51100000000E-03 0.  1.
        -11    1    3    3    0    0  0.14788643392E+02  0.25272706238E+01  0.34058470611E+01  0.15384760792E+02  0.51100000000E-03 0. -1.
        -12    1    3    3    0    0 -0.22935292290E+02  0.15291124278E+02  0.20907420510E+01  0.27644480759E+02  0.00000000000E+00 0.  1.
</event>
<event>
 7    1  0.3449603E-013  0.5930199E+02  0.7816164E-02  0.1266605E+00
        -11   -1    0    0    0    0  0.00000000000E+00  0.00000000000E+00  0.45593999997E+02  0.45594000000E+02  0.51100000000E-03 0.  1.
         11   -1    0    0    0    0 -0.00000000000E+00 -0.00000000000E+00 -0.45593999997E+02  0.45594000000E+02  0.51100000000E-03 0. -1.
    9900012    2    1    2    0    0  0.82917173584E+01  0.24103712066E+02  0.19156628875E+02  0.59301985166E+02  0.50000075027E+02 0.  0.
         12    1    1    2    0    0 -0.82917173584E+01 -0.24103712066E+02 -0.19156628875E+02  0.31886014834E+02  0.00000000000E+00 0. -1.
         11    1    3    3    0    0 -0.33836470868E+00 -0.76186786741E+01  0.63340403137E+01  0.99135675905E+01  0.51100000000E-03 0. -1.
        -11    1    3    3    0    0 -0.68673385423E+01  0.14642992038E+02  0.19542367799E+02  0.25366940965E+02  0.51100000000E-03 0.  1.
         12    1    3    3    0    0  0.15497420609E+02  0.17079398702E+02 -0.67197792371E+01  0.24021476611E+02  0.00000000000E+00 0. -1.
</event>
<event>
 7    1  0.3449603E-013  0.5930192E+02  0.7816164E-02  0.1266605E+00
        -11   -1    0    0    0    0  0.00000000000E+00  0.00000000000E+00  0.45593999997E+02  0.45594000000E+02  0.51100000000E-03 0.  1.
         11   -1    0    0    0    0 -0.00000000000E+00 -0.00000000000E+00 -0.45593999997E+02  0.45594000000E+02  0.51100000000E-03 0. -1.
    9900012    2    1    2    0    0  0.20587841626E+01  0.17067234042E+02  0.26855039233E+02  0.59301918361E+02  0.49999953190E+02 0.  0.
         12    1    1    2    0    0 -0.20587841626E+01 -0.17067234042E+02 -0.26855039233E+02  0.31886081639E+02  0.00000000000E+00 0. -1.
         11    1    3    3    0    0  0.41162208977E+01  0.12042663247E+01  0.24482955450E+02  0.24855756671E+02  0.51100000000E-03 0. -1.
        -11    1    3    3    0    0 -0.15502362856E+01  0.70231225912E+01  0.16371486221E+02  0.17881639881E+02  0.51100000000E-03 0.  1.
         12    1    3    3    0    0 -0.50720044944E+00  0.88398451263E+01 -0.13999402438E+02  0.16564521810E+02  0.00000000000E+00 0. -1.
</event>
<event>
 7    1  0.3449603E-013  0.5930196E+02  0.7816164E-02  0.1266605E+00
        -11   -1    0    0    0    0  0.00000000000E+00  0.00000000000E+00  0.45593999997E+02  0.45594000000E+02  0.51100000000E-03 0.  1.
         11   -1    0    0    0    0 -0.00000000000E+00 -0.00000000000E+00 -0.45593999997E+02  0.45594000000E+02  0.51100000000E-03 0. -1.
    9900012    2    1    2    0    0 -0.35020936176E+00  0.18917584973E+02  0.25665582818E+02  0.59301955887E+02  0.50000021628E+02 0.  0.
         12    1    1    2    0    0  0.35020936176E+00 -0.18917584973E+02 -0.25665582818E+02  0.31886044113E+02  0.00000000000E+00 0. -1.
         11    1    3    3    0    0  0.27023112925E+01 -0.54574226040E+00  0.12596355098E+02  0.12894513676E+02  0.51100000000E-03 0. -1.
        -11    1    3    3    0    0  0.27497508381E+00  0.13854234850E+02  0.27376579911E+02  0.30683750788E+02  0.51100000000E-03 0.  1.
         12    1    3    3    0    0 -0.33274957381E+01  0.56090923830E+01 -0.14307352190E+02  0.15723691422E+02  0.00000000000E+00 0. -1.
</event>
<event>
 7    1  0.3449603E-013  0.5930194E+02  0.7816164E-02  0.1266605E+00
        -11   -1    0    0    0    0  0.00000000000E+00  0.00000000000E+00  0.45593999997E+02  0.45594000000E+02  0.51100000000E-03 0.  1.
         11   -1    0    0    0    0 -0.00000000000E+00 -0.00000000000E+00 -0.45593999997E+02  0.45594000000E+02  0.51100000000E-03 0. -1.
    9900012    2    1    2    0    0  0.11221114250E+02  0.26946932560E+02  0.12832385612E+02  0.59301941920E+02  0.49999996155E+02 0.  0.
         12    1    1    2    0    0 -0.11221114250E+02 -0.26946932560E+02 -0.12832385612E+02  0.31886058080E+02  0.00000000000E+00 0. -1.
         11    1    3    3    0    0  0.80521691882E+01  0.11438283077E+02 -0.15272201704E+02  0.20710188158E+02  0.51100000000E-03 0. -1.
        -11    1    3    3    0    0  0.79449783711E+01  0.97207608837E+01  0.37429578068E+01  0.13100595669E+02  0.51100000000E-03 0.  1.
        -12    1    3    3    0    0 -0.47760333089E+01  0.57878885994E+01  0.24361629509E+02  0.25491158093E+02  0.00000000000E+00 0.  1.
</event>
<event>
 7    1  0.3449603E-013  0.5930194E+02  0.7816164E-02  0.1266605E+00
        -11   -1    0    0    0    0  0.00000000000E+00  0.00000000000E+00  0.45593999997E+02  0.45594000000E+02  0.51100000000E-03 0. -1.
         11   -1    0    0    0    0 -0.00000000000E+00 -0.00000000000E+00 -0.45593999997E+02  0.45594000000E+02  0.51100000000E-03 0.  1.
    9900012    2    1    2    0    0  0.95619503855E+01 -0.30413773324E+02 -0.54065458913E+00  0.59301940188E+02  0.49999992997E+02 0.  0.
         12    1    1    2    0    0 -0.95619503855E+01  0.30413773324E+02  0.54065458913E+00  0.31886059812E+02  0.00000000000E+00 0. -1.
         11    1    3    3    0    0  0.27312656294E+01  0.25230198834E+01  0.95295368853E+01  0.10229248007E+02  0.51100000000E-03 0. -1.
        -11    1    3    3    0    0  0.71155143528E+01  0.55745565740E+01 -0.46988769119E+01  0.10187525215E+02  0.51100000000E-03 0.  1.
        -12    1    3    3    0    0 -0.28482959664E+00 -0.38511349781E+02 -0.53713145625E+01  0.38885166967E+02  0.00000000000E+00 0.  1.
</event>
<event>
 7    1  0.3449603E-013  0.5930194E+02  0.7816164E-02  0.1266605E+00
        -11   -1    0    0    0    0  0.00000000000E+00  0.00000000000E+00  0.45593999997E+02  0.45594000000E+02  0.51100000000E-03 0.  1.
         11   -1    0    0    0    0 -0.00000000000E+00 -0.00000000000E+00 -0.45593999997E+02  0.45594000000E+02  0.51100000000E-03 0. -1.
    9900012    2    1    2    0    0 -0.12243537001E+02 -0.10608885936E+00  0.29441562127E+02  0.59301936686E+02  0.49999986611E+02 0.  0.
         12    1    1    2    0    0  0.12243537001E+02  0.10608885936E+00 -0.29441562127E+02  0.31886063314E+02  0.00000000000E+00 0. -1.
         11    1    3    3    0    0 -0.12167102779E+01  0.12346926821E-01  0.12475724108E+02  0.12534920368E+02  0.51100000000E-03 0. -1.
        -11    1    3    3    0    0 -0.14937769306E+02  0.45386502047E+01  0.29196137685E+02  0.33108167474E+02  0.51100000000E-03 0.  1.
         12    1    3    3    0    0  0.39109425827E+01 -0.46570859909E+01 -0.12230299666E+02  0.13658848844E+02  0.00000000000E+00 0. -1.
</event>
<event>
 7    1  0.3449603E-013  0.5930192E+02  0.7816164E-02  0.1266605E+00
        -11   -1    0    0    0    0  0.00000000000E+00  0.00000000000E+00  0.45593999997E+02  0.45594000000E+02  0.51100000000E-03 0. -1.
         11   -1    0    0    0    0 -0.00000000000E+00 -0.00000000000E+00 -0.45593999997E+02  0.45594000000E+02  0.51100000000E-03 0.  1.
    9900012    2    1    2    0    0 -0.46327794623E+01  0.22495747442E+02 -0.22117885558E+02  0.59301919023E+02  0.49999954398E+02 0.  0.
         12    1    1    2    0    0  0.46327794623E+01 -0.22495747442E+02  0.22117885558E+02  0.31886080977E+02  0.00000000000E+00 0. -1.
         11    1    3    3    0    0 -0.59534422626E+01  0.17429342746E+02  0.49938500625E+01  0.19083081566E+02  0.51100000000E-03 0.  1.
        -11    1    3    3    0    0 -0.32301578170E+01 -0.74904114546E+01  0.18157848265E+01  0.83568689160E+01  0.51100000000E-03 0. -1.
         12    1    3    3    0    0  0.45508206173E+01  0.12556816150E+02 -0.28927520447E+02  0.31861968541E+02  0.00000000000E+00 0. -1.
</event>
<event>
 7    1  0.3449603E-013  0.5930193E+02  0.7816164E-02  0.1266605E+00
        -11   -1    0    0    0    0  0.00000000000E+00  0.00000000000E+00  0.45593999997E+02  0.45594000000E+02  0.51100000000E-03 0. -1.
         11   -1    0    0    0    0 -0.00000000000E+00 -0.00000000000E+00 -0.45593999997E+02  0.45594000000E+02  0.51100000000E-03 0.  1.
    9900012    2    1    2    0    0  0.31444457151E+02 -0.32731164889E+01 -0.41538268719E+01  0.59301930083E+02  0.49999974569E+02 0.  0.
         12    1    1    2    0    0 -0.31444457151E+02  0.32731164889E+01  0.41538268719E+01  0.31886069917E+02  0.00000000000E+00 0. -1.
         11    1    3    3    0    0  0.84572554556E+01  0.82735429306E+00 -0.99179998816E+01  0.13060490300E+02  0.51100000000E-03 0.  1.
        -11    1    3    3    0    0  0.61333276856E+01  0.12469959236E+02  0.15376925518E+02  0.20726008552E+02  0.51100000000E-03 0. -1.
         12    1    3    3    0    0  0.16853874009E+02 -0.16570430018E+02 -0.96127525085E+01  0.25515431231E+02  0.00000000000E+00 0. -1.
</event>
<event>
 7    1  0.3449603E-013  0.5930195E+02  0.7816164E-02  0.1266605E+00
        -11   -1    0    0    0    0  0.00000000000E+00  0.00000000000E+00  0.45593999997E+02  0.45594000000E+02  0.51100000000E-03 0.  1.
         11   -1    0    0    0    0 -0.00000000000E+00 -0.00000000000E+00 -0.45593999997E+02  0.45594000000E+02  0.51100000000E-03 0. -1.
    9900012    2    1    2    0    0  0.20602739256E+02  0.14946587456E+02  0.19205392808E+02  0.59301945771E+02  0.50000003178E+02 0.  0.
         12    1    1    2    0    0 -0.20602739256E+02 -0.14946587456E+02 -0.19205392808E+02  0.31886054229E+02  0.00000000000E+00 0. -1.
         11    1    3    3    0    0  0.10480683262E+02 -0.75457949912E+01  0.11841653273E+01  0.12968654189E+02  0.51100000000E-03 0. -1.
        -11    1    3    3    0    0  0.18801757463E+02  0.23487490527E+02  0.47708457284E+01  0.30461931393E+02  0.51100000000E-03 0.  1.
         12    1    3    3    0    0 -0.86797014690E+01 -0.99510807938E+00  0.13250381752E+02  0.15871360189E+02  0.00000000000E+00 0. -1.
</event>
<event>
 7    1  0.3449603E-013  0.5930205E+02  0.7816164E-02  0.1266604E+00
        -11   -1    0    0    0    0  0.00000000000E+00  0.00000000000E+00  0.45593999997E+02  0.45594000000E+02  0.51100000000E-03 0. -1.
         11   -1    0    0    0    0 -0.00000000000E+00 -0.00000000000E+00 -0.45593999997E+02  0.45594000000E+02  0.51100000000E-03 0.  1.
    9900012    2    1    2    0    0  0.36533410735E+01 -0.86438933770E+01 -0.30473756979E+02  0.59302052341E+02  0.50000197537E+02 0.  0.
         12    1    1    2    0    0 -0.36533410735E+01  0.86438933770E+01  0.30473756979E+02  0.31885947659E+02  0.00000000000E+00 0. -1.
         11    1    3    3    0    0  0.31131597831E-01 -0.67191427296E+01  0.40451273462E+01  0.78428887347E+01  0.51100000000E-03 0. -1.
        -11    1    3    3    0    0 -0.99722790462E+00 -0.16197561236E+02 -0.29321772184E+01  0.16491001091E+02  0.51100000000E-03 0.  1.
        -12    1    3    3    0    0  0.46194373803E+01  0.14272810589E+02 -0.31586707107E+02  0.34968162515E+02  0.00000000000E+00 0.  1.
</event>
<event>
 7    1  0.3449603E-013  0.5930199E+02  0.7816164E-02  0.1266605E+00
        -11   -1    0    0    0    0  0.00000000000E+00  0.00000000000E+00  0.45593999997E+02  0.45594000000E+02  0.51100000000E-03 0.  1.
         11   -1    0    0    0    0 -0.00000000000E+00 -0.00000000000E+00 -0.45593999997E+02  0.45594000000E+02  0.51100000000E-03 0. -1.
    9900012    2    1    2    0    0 -0.22043816824E+02  0.24069649276E-01  0.23038814147E+02  0.59301993714E+02  0.50000090616E+02 0.  0.
         12    1    1    2    0    0  0.22043816824E+02 -0.24069649276E-01 -0.23038814147E+02  0.31886006286E+02  0.00000000000E+00 0. -1.
         11    1    3    3    0    0 -0.11491634200E+02 -0.20087668645E+02  0.82275585711E+01  0.24561449641E+02  0.51100000000E-03 0.  1.
        -11    1    3    3    0    0 -0.52362666489E+01 -0.16132193719E+01 -0.29109841750E+01  0.62044173206E+01  0.51100000000E-03 0. -1.
        -12    1    3    3    0    0 -0.53159159753E+01  0.21724957666E+02  0.17722239751E+02  0.28536126753E+02  0.00000000000E+00 0.  1.
</event>
<event>
 7    1  0.3449603E-013  0.5930197E+02  0.7816164E-02  0.1266605E+00
        -11   -1    0    0    0    0  0.00000000000E+00  0.00000000000E+00  0.45593999997E+02  0.45594000000E+02  0.51100000000E-03 0. -1.
         11   -1    0    0    0    0 -0.00000000000E+00 -0.00000000000E+00 -0.45593999997E+02  0.45594000000E+02  0.51100000000E-03 0.  1.
    9900012    2    1    2    0    0  0.23190723863E+02 -0.18161984803E+02  0.12208673856E+02  0.59301967281E+02  0.50000042408E+02 0.  0.
         12    1    1    2    0    0 -0.23190723863E+02  0.18161984803E+02 -0.12208673856E+02  0.31886032719E+02  0.00000000000E+00 0. -1.
         11    1    3    3    0    0  0.13104296582E+02 -0.21099427973E+02  0.81238286097E+01  0.26132451879E+02  0.51100000000E-03 0. -1.
        -11    1    3    3    0    0  0.24039185032E+01 -0.12904750724E+02  0.76674511948E+01  0.15202013798E+02  0.51100000000E-03 0.  1.
         12    1    3    3    0    0  0.76825087780E+01  0.15842193894E+02 -0.35826059488E+01  0.17967501604E+02  0.00000000000E+00 0. -1.
</event>
<event>
 7    1  0.3449603E-013  0.5930192E+02  0.7816164E-02  0.1266605E+00
        -11   -1    0    0    0    0  0.00000000000E+00  0.00000000000E+00  0.45593999997E+02  0.45594000000E+02  0.51100000000E-03 0.  1.
         11   -1    0    0    0    0 -0.00000000000E+00 -0.00000000000E+00 -0.45593999997E+02  0.45594000000E+02  0.51100000000E-03 0. -1.
    9900012    2    1    2    0    0 -0.17946969564E+02 -0.99821920252E+01  0.24392298094E+02  0.59301920271E+02  0.49999956674E+02 0.  0.
         12    1    1    2    0    0  0.17946969564E+02  0.99821920252E+01 -0.24392298094E+02  0.31886079729E+02  0.00000000000E+00 0. -1.
         11    1    3    3    0    0 -0.27865429629E+02 -0.55874068520E+01  0.21901509856E+02  0.35880042056E+02  0.51100000000E-03 0. -1.
        -11    1    3    3    0    0  0.43281171624E+00 -0.10744935569E+02  0.47989631839E+01  0.11775865754E+02  0.51100000000E-03 0.  1.
         12    1    3    3    0    0  0.94856483496E+01  0.63501503955E+01 -0.23081749451E+01  0.11646012461E+02  0.00000000000E+00 0. -1.
</event>
<event>
 7    1  0.3449603E-013  0.5930193E+02  0.7816164E-02  0.1266605E+00
        -11   -1    0    0    0    0  0.00000000000E+00  0.00000000000E+00  0.45593999997E+02  0.45594000000E+02  0.51100000000E-03 0.  1.
         11   -1    0    0    0    0 -0.00000000000E+00 -0.00000000000E+00 -0.45593999997E+02  0.45594000000E+02  0.51100000000E-03 0. -1.
    9900012    2    1    2    0    0  0.19485202996E+02 -0.16582746406E+02  0.19027893836E+02  0.59301931600E+02  0.49999977335E+02 0.  0.
         12    1    1    2    0    0 -0.19485202996E+02  0.16582746406E+02 -0.19027893836E+02  0.31886068400E+02  0.00000000000E+00 0. -1.
         11    1    3    3    0    0  0.11347771519E+02 -0.98585222077E+01 -0.44663173066E+01  0.15681529553E+02  0.51100000000E-03 0.  1.
        -11    1    3    3    0    0  0.21588383185E+02 -0.84787830741E+00  0.17344171771E+02  0.27705549640E+02  0.51100000000E-03 0. -1.
         12    1    3    3    0    0 -0.13450951708E+02 -0.58763458912E+01  0.61500393724E+01  0.15914852408E+02  0.00000000000E+00 0. -1.
</event>
<event>
 7    1  0.3449603E-013  0.5930194E+02  0.7816164E-02  0.1266605E+00
        -11   -1    0    0    0    0  0.00000000000E+00  0.00000000000E+00  0.45593999997E+02  0.45594000000E+02  0.51100000000E-03 0.  1.
         11   -1    0    0    0    0 -0.00000000000E+00 -0.00000000000E+00 -0.45593999997E+02  0.45594000000E+02  0.51100000000E-03 0. -1.
    9900012    2    1    2    0    0  0.14457286171E+02  0.31048430367E+01  0.28250092748E+02  0.59301938563E+02  0.49999990033E+02 0.  0.
         12    1    1    2    0    0 -0.14457286171E+02 -0.31048430367E+01 -0.28250092748E+02  0.31886061437E+02  0.00000000000E+00 0. -1.
         11    1    3    3    0    0  0.10076738203E+01 -0.15502778721E+02  0.72687724378E+01  0.17151868925E+02  0.51100000000E-03 0. -1.
        -11    1    3    3    0    0  0.38225076110E+01  0.72097954782E+01 -0.67959186257E+01  0.10619662212E+02  0.51100000000E-03 0.  1.
        -12    1    3    3    0    0  0.96271047397E+01  0.11397826279E+02  0.27777238936E+02  0.31530407426E+02  0.00000000000E+00 0.  1.
</event>
<event>
 7    1  0.3449603E-013  0.5930194E+02  0.7816164E-02  0.1266605E+00
        -11   -1    0    0    0    0  0.00000000000E+00  0.00000000000E+00  0.45593999997E+02  0.45594000000E+02  0.51100000000E-03 0. -1.
         11   -1    0    0    0    0 -0.00000000000E+00 -0.00000000000E+00 -0.45593999997E+02  0.45594000000E+02  0.51100000000E-03 0.  1.
    9900012    2    1    2    0    0  0.40876626563E+01 -0.20339988997E+02 -0.24213560287E+02  0.59301942857E+02  0.49999997865E+02 0.  0.
         12    1    1    2    0    0 -0.40876626563E+01  0.20339988997E+02  0.24213560287E+02  0.31886057143E+02  0.00000000000E+00 0. -1.
         11    1    3    3    0    0 -0.36303874758E+01 -0.61286924403E+01 -0.15168415669E+02  0.16757727126E+02  0.51100000000E-03 0. -1.
        -11    1    3    3    0    0 -0.62634622124E+01  0.79736527726E+01 -0.12499002448E+02  0.16094569266E+02  0.51100000000E-03 0.  1.
         12    1    3    3    0    0  0.13981512344E+02 -0.22184949329E+02  0.34538578305E+01  0.26449646464E+02  0.00000000000E+00 0. -1.
</event>
<event>
 7    1  0.3449603E-013  0.5930193E+02  0.7816164E-02  0.1266605E+00
        -11   -1    0    0    0    0  0.00000000000E+00  0.00000000000E+00  0.45593999997E+02  0.45594000000E+02  0.51100000000E-03 0.  1.
         11   -1    0    0    0    0 -0.00000000000E+00 -0.00000000000E+00 -0.45593999997E+02  0.45594000000E+02  0.51100000000E-03 0. -1.
    9900012    2    1    2    0    0 -0.14037139954E+02 -0.85884913226E+01  0.27311499395E+02  0.59301929679E+02  0.49999973831E+02 0.  0.
         12    1    1    2    0    0  0.14037139954E+02  0.85884913226E+01 -0.27311499395E+02  0.31886070321E+02  0.00000000000E+00 0. -1.
         11    1    3    3    0    0  0.46826228979E+01 -0.24062393980E+01  0.60135664699E+01  0.79924919264E+01  0.51100000000E-03 0. -1.
        -11    1    3    3    0    0 -0.14785719013E+02 -0.12543450862E+02  0.32497295824E+02  0.37842170688E+02  0.51100000000E-03 0.  1.
         12    1    3    3    0    0 -0.39340438388E+01  0.63611989376E+01 -0.11199362898E+02  0.13467267064E+02  0.00000000000E+00 0. -1.
</event>
<event>
 7    1  0.3449603E-013  0.5930194E+02  0.7816164E-02  0.1266605E+00
        -11   -1    0    0    0    0  0.00000000000E+00  0.00000000000E+00  0.45593999997E+02  0.45594000000E+02  0.51100000000E-03 0.  1.
         11   -1    0    0    0    0 -0.00000000000E+00 -0.00000000000E+00 -0.45593999997E+02  0.45594000000E+02  0.51100000000E-03 0. -1.
    9900012    2    1    2    0    0  0.20349331269E+02  0.14240911100E+02  0.19995542745E+02  0.59301944087E+02  0.50000000107E+02 0.  0.
         12    1    1    2    0    0 -0.20349331269E+02 -0.14240911100E+02 -0.19995542745E+02  0.31886055913E+02  0.00000000000E+00 0. -1.
         11    1    3    3    0    0  0.11151345089E+01 -0.31879008142E+00 -0.10868711085E+01  0.15894782655E+01  0.51100000000E-03 0. -1.
        -11    1    3    3    0    0 -0.10899428099E+01  0.28578854157E+02  0.76510124873E+01  0.29605352094E+02  0.51100000000E-03 0.  1.
        -12    1    3    3    0    0  0.20324139570E+02 -0.14019152976E+02  0.13431401366E+02  0.28107113727E+02  0.00000000000E+00 0.  1.
</event>
<event>
 7    1  0.3449603E-013  0.5930194E+02  0.7816164E-02  0.1266605E+00
        -11   -1    0    0    0    0  0.00000000000E+00  0.00000000000E+00  0.45593999997E+02  0.45594000000E+02  0.51100000000E-03 0.  1.
         11   -1    0    0    0    0 -0.00000000000E+00 -0.00000000000E+00 -0.45593999997E+02  0.45594000000E+02  0.51100000000E-03 0. -1.
    9900012    2    1    2    0    0 -0.20983615130E+01 -0.31783635577E+02  0.14554208422E+01  0.59301939388E+02  0.49999991537E+02 0.  0.
         12    1    1    2    0    0  0.20983615130E+01  0.31783635577E+02 -0.14554208422E+01  0.31886060612E+02  0.00000000000E+00 0. -1.
         11    1    3    3    0    0 -0.16242332014E+02 -0.53683078415E+01  0.16059308026E+00  0.17107246088E+02  0.51100000000E-03 0. -1.
        -11    1    3    3    0    0 -0.51421838757E+01 -0.52361454114E+00  0.77061089016E+01  0.92790269891E+01  0.51100000000E-03 0.  1.
         12    1    3    3    0    0  0.19286154376E+02 -0.25891713195E+02 -0.64112811397E+01  0.32915666310E+02  0.00000000000E+00 0. -1.
</event>
<event>
 7    1  0.3449603E-013  0.5930191E+02  0.7816164E-02  0.1266605E+00
        -11   -1    0    0    0    0  0.00000000000E+00  0.00000000000E+00  0.45593999997E+02  0.45594000000E+02  0.51100000000E-03 0.  1.
         11   -1    0    0    0    0 -0.00000000000E+00 -0.00000000000E+00 -0.45593999997E+02  0.45594000000E+02  0.51100000000E-03 0. -1.
    9900012    2    1    2    0    0 -0.74079400037E+01  0.78974811584E+01  0.29991245959E+02  0.59301911844E+02  0.49999941304E+02 0.  0.
         12    1    1    2    0    0  0.74079400037E+01 -0.78974811584E+01 -0.29991245959E+02  0.31886088156E+02  0.00000000000E+00 0. -1.
         11    1    3    3    0    0 -0.55762662135E+01 -0.12726780476E+02  0.36641854361E+01  0.14369827464E+02  0.51100000000E-03 0. -1.
        -11    1    3    3    0    0  0.72759869638E+01  0.11755059214E+02  0.28831896064E+02  0.31974984509E+02  0.51100000000E-03 0.  1.
         12    1    3    3    0    0 -0.91076607540E+01  0.88692024205E+01 -0.25048355417E+01  0.12957099871E+02  0.00000000000E+00 0. -1.
</event>
<event>
 7    1  0.3449603E-013  0.5930195E+02  0.7816164E-02  0.1266605E+00
        -11   -1    0    0    0    0  0.00000000000E+00  0.00000000000E+00  0.45593999997E+02  0.45594000000E+02  0.51100000000E-03 0. -1.
         11   -1    0    0    0    0 -0.00000000000E+00 -0.00000000000E+00 -0.45593999997E+02  0.45594000000E+02  0.51100000000E-03 0.  1.
    9900012    2    1    2    0    0 -0.99410946934E+01 -0.29776166687E+02 -0.55923863931E+01  0.59301948946E+02  0.50000008969E+02 0.  0.
         12    1    1    2    0    0  0.99410946934E+01  0.29776166687E+02  0.55923863931E+01  0.31886051054E+02  0.00000000000E+00 0. -1.
         11    1    3    3    0    0  0.71587858940E+01  0.75696004413E+01  0.55916133159E+01  0.11824263447E+02  0.51100000000E-03 0. -1.
        -11    1    3    3    0    0  0.43978793952E+01 -0.47122805687E+01 -0.44274157784E+01  0.78197789015E+01  0.51100000000E-03 0.  1.
        -12    1    3    3    0    0 -0.21497759983E+02 -0.32633486559E+02 -0.67565839307E+01  0.39657906598E+02  0.00000000000E+00 0.  1.
</event>
<event>
 7    1  0.3449603E-013  0.5930192E+02  0.7816164E-02  0.1266605E+00
        -11   -1    0    0    0    0  0.00000000000E+00  0.00000000000E+00  0.45593999997E+02  0.45594000000E+02  0.51100000000E-03 0.  1.
         11   -1    0    0    0    0 -0.00000000000E+00 -0.00000000000E+00 -0.45593999997E+02  0.45594000000E+02  0.51100000000E-03 0. -1.
    9900012    2    1    2    0    0  0.27350649201E+02  0.52153533224E+00  0.16382680019E+02  0.59301918155E+02  0.49999952814E+02 0.  0.
         12    1    1    2    0    0 -0.27350649201E+02 -0.52153533224E+00 -0.16382680019E+02  0.31886081845E+02  0.00000000000E+00 0. -1.
         11    1    3    3    0    0 -0.99773708480E+01  0.56817179514E+01  0.21149002813E+01  0.11674872649E+02  0.51100000000E-03 0. -1.
        -11    1    3    3    0    0 -0.32487725692E+01 -0.19258733833E+00  0.45740562752E+01  0.56136979042E+01  0.51100000000E-03 0.  1.
        -12    1    3    3    0    0  0.40576792619E+02 -0.49675952808E+01  0.96937234628E+01  0.42013347601E+02  0.00000000000E+00 0.  1.
</event>
<event>
 7    1  0.3449603E-013  0.5930173E+02  0.7816164E-02  0.1266606E+00
        -11   -1    0    0    0    0  0.00000000000E+00  0.00000000000E+00  0.45593999997E+02  0.45594000000E+02  0.51100000000E-03 0.  1.
         11   -1    0    0    0    0 -0.00000000000E+00 -0.00000000000E+00 -0.45593999997E+02  0.45594000000E+02  0.51100000000E-03 0. -1.
    9900012    2    1    2    0    0 -0.10290028905E+02  0.99465972552E+01  0.28494120874E+02  0.59301726837E+02  0.49999603895E+02 0.  0.
         12    1    1    2    0    0  0.10290028905E+02 -0.99465972552E+01 -0.28494120874E+02  0.31886273163E+02  0.00000000000E+00 0. -1.
         11    1    3    3    0    0  0.34387795622E+01  0.18655479052E+02  0.21720450852E+02  0.28837997313E+02  0.51100000000E-03 0. -1.
        -11    1    3    3    0    0  0.57184361646E+00  0.69286221880E+01  0.61214971368E+01  0.92631278736E+01  0.51100000000E-03 0.  1.
         12    1    3    3    0    0 -0.14300652084E+02 -0.15637503985E+02  0.65217288502E+00  0.21200601651E+02  0.00000000000E+00 0. -1.
</event>
<event>
 7    1  0.3449603E-013  0.5930192E+02  0.7816164E-02  0.1266605E+00
        -11   -1    0    0    0    0  0.00000000000E+00  0.00000000000E+00  0.45593999997E+02  0.45594000000E+02  0.51100000000E-03 0.  1.
         11   -1    0    0    0    0 -0.00000000000E+00 -0.00000000000E+00 -0.45593999997E+02  0.45594000000E+02  0.51100000000E-03 0. -1.
    9900012    2    1    2    0    0  0.13034891297E+02  0.23077966470E+02  0.17726284225E+02  0.59301920279E+02  0.49999956688E+02 0.  0.
         12    1    1    2    0    0 -0.13034891297E+02 -0.23077966470E+02 -0.17726284225E+02  0.31886079721E+02  0.00000000000E+00 0. -1.
         11    1    3    3    0    0  0.17434445812E+01  0.13402027427E+02 -0.12676191109E+02  0.18529429550E+02  0.51100000000E-03 0. -1.
        -11    1    3    3    0    0 -0.59635348004E+01 -0.58062156246E+00  0.27251475289E+01  0.65823474559E+01  0.51100000000E-03 0.  1.
        -12    1    3    3    0    0  0.17254981516E+02  0.10256560605E+02  0.27677327805E+02  0.34190143273E+02  0.00000000000E+00 0.  1.
</event>
<event>
 7    1  0.3449603E-013  0.5930196E+02  0.7816164E-02  0.1266605E+00
        -11   -1    0    0    0    0  0.00000000000E+00  0.00000000000E+00  0.45593999997E+02  0.45594000000E+02  0.51100000000E-03 0.  1.
         11   -1    0    0    0    0 -0.00000000000E+00 -0.00000000000E+00 -0.45593999997E+02  0.45594000000E+02  0.51100000000E-03 0. -1.
    9900012    2    1    2    0    0 -0.29914020878E+02  0.96288196506E+01 -0.53997102486E+01  0.59301957854E+02  0.50000025216E+02 0.  0.
         12    1    1    2    0    0  0.29914020878E+02 -0.96288196506E+01  0.53997102486E+01  0.31886042146E+02  0.00000000000E+00 0. -1.
         11    1    3    3    0    0 -0.81598073334E+01  0.14988786507E+02 -0.12480338022E+02  0.21142493090E+02  0.51100000000E-03 0. -1.
        -11    1    3    3    0    0 -0.28778308799E+02 -0.24408373975E+01  0.91145572749E+01  0.30285704534E+02  0.51100000000E-03 0.  1.
         12    1    3    3    0    0  0.70240952541E+01 -0.29191294588E+01 -0.20339295015E+01  0.78737602296E+01  0.00000000000E+00 0. -1.
</event>
<event>
 7    1  0.3449603E-013  0.5930186E+02  0.7816164E-02  0.1266605E+00
        -11   -1    0    0    0    0  0.00000000000E+00  0.00000000000E+00  0.45593999997E+02  0.45594000000E+02  0.51100000000E-03 0.  1.
         11   -1    0    0    0    0 -0.00000000000E+00 -0.00000000000E+00 -0.45593999997E+02  0.45594000000E+02  0.51100000000E-03 0. -1.
    9900012    2    1    2    0    0 -0.22532592363E+02  0.19248087759E+02  0.11769415401E+02  0.59301862889E+02  0.49999852022E+02 0.  0.
         12    1    1    2    0    0  0.22532592363E+02 -0.19248087759E+02 -0.11769415401E+02  0.31886137111E+02  0.00000000000E+00 0. -1.
         11    1    3    3    0    0 -0.75726713059E+01  0.10372391275E+02 -0.52760519295E+01  0.13884112348E+02  0.51100000000E-03 0. -1.
        -11    1    3    3    0    0  0.12798426721E+02  0.12382921916E+01  0.22674831142E+01  0.13056591210E+02  0.51100000000E-03 0.  1.
        -12    1    3    3    0    0 -0.27758347779E+02  0.76374042931E+01  0.14777984216E+02  0.32361159331E+02  0.00000000000E+00 0.  1.
</event>
<event>
 7    1  0.3449603E-013  0.5930200E+02  0.7816164E-02  0.1266605E+00
        -11   -1    0    0    0    0  0.00000000000E+00  0.00000000000E+00  0.45593999997E+02  0.45594000000E+02  0.51100000000E-03 0.  1.
         11   -1    0    0    0    0 -0.00000000000E+00 -0.00000000000E+00 -0.45593999997E+02  0.45594000000E+02  0.51100000000E-03 0. -1.
    9900012    2    1    2    0    0  0.11749580007E+02 -0.25755742801E+02 -0.14673301835E+02  0.59302004574E+02  0.50000110421E+02 0.  0.
         12    1    1    2    0    0 -0.11749580007E+02  0.25755742801E+02  0.14673301835E+02  0.31885995426E+02  0.00000000000E+00 0. -1.
         11    1    3    3    0    0 -0.12819144134E+02 -0.86549039507E+01  0.68681842683E+01  0.16923645415E+02  0.51100000000E-03 0. -1.
        -11    1    3    3    0    0  0.18187135595E+02 -0.38465032664E+01 -0.31942019653E+01  0.18861877292E+02  0.51100000000E-03 0.  1.
        -12    1    3    3    0    0  0.63815885464E+01 -0.13254335584E+02 -0.18347284138E+02  0.23516481867E+02  0.00000000000E+00 0.  1.
</event>
<event>
 7    1  0.3449603E-013  0.5930197E+02  0.7816164E-02  0.1266605E+00
        -11   -1    0    0    0    0  0.00000000000E+00  0.00000000000E+00  0.45593999997E+02  0.45594000000E+02  0.51100000000E-03 0.  1.
         11   -1    0    0    0    0 -0.00000000000E+00 -0.00000000000E+00 -0.45593999997E+02  0.45594000000E+02  0.51100000000E-03 0. -1.
    9900012    2    1    2    0    0  0.51638201123E+01 -0.15117729990E+02  0.27595439834E+02  0.59301967042E+02  0.50000041972E+02 0.  0.
         12    1    1    2    0    0 -0.51638201123E+01  0.15117729990E+02 -0.27595439834E+02  0.31886032958E+02  0.00000000000E+00 0. -1.
         11    1    3    3    0    0 -0.95626769372E+01 -0.33525591306E+01  0.82970459934E+01  0.13096771183E+02  0.51100000000E-03 0. -1.
        -11    1    3    3    0    0  0.48870608424E+01  0.43061330213E+01  0.25537489868E+02  0.26355066577E+02  0.51100000000E-03 0.  1.
         12    1    3    3    0    0  0.98394362071E+01 -0.16071303880E+02 -0.62390960272E+01  0.19850129282E+02  0.00000000000E+00 0. -1.
</event>
<event>
 7    1  0.3449603E-013  0.5930200E+02  0.7816164E-02  0.1266605E+00
        -11   -1    0    0    0    0  0.00000000000E+00  0.00000000000E+00  0.45593999997E+02  0.45594000000E+02  0.51100000000E-03 0. -1.
         11   -1    0    0    0    0 -0.00000000000E+00 -0.00000000000E+00 -0.45593999997E+02  0.45594000000E+02  0.51100000000E-03 0.  1.
    9900012    2    1    2    0    0 -0.91146576065E+01 -0.24189957786E+02 -0.18667784819E+02  0.59301996315E+02  0.50000095360E+02 0.  0.
         12    1    1    2    0    0  0.91146576065E+01  0.24189957786E+02  0.18667784819E+02  0.31886003685E+02  0.00000000000E+00 0. -1.
         11    1    3    3    0    0 -0.16443982148E+01 -0.78625048017E+01 -0.67078336183E+01  0.10465087642E+02  0.51100000000E-03 0. -1.
        -11    1    3    3    0    0  0.63029054021E+01 -0.26926103095E+02 -0.14578995487E+02  0.31261617905E+02  0.51100000000E-03 0.  1.
         12    1    3    3    0    0 -0.13773164794E+02  0.10598650111E+02  0.26190442866E+01  0.17575290768E+02  0.00000000000E+00 0. -1.
</event>
<event>
 7    1  0.3449603E-013  0.5930197E+02  0.7816164E-02  0.1266605E+00
        -11   -1    0    0    0    0  0.00000000000E+00  0.00000000000E+00  0.45593999997E+02  0.45594000000E+02  0.51100000000E-03 0.  1.
         11   -1    0    0    0    0 -0.00000000000E+00 -0.00000000000E+00 -0.45593999997E+02  0.45594000000E+02  0.51100000000E-03 0. -1.
    9900012    2    1    2    0    0 -0.20209469339E+02 -0.85951644604E+01  0.23117517668E+02  0.59301966597E+02  0.50000041160E+02 0.  0.
         12    1    1    2    0    0  0.20209469339E+02  0.85951644604E+01 -0.23117517668E+02  0.31886033403E+02  0.00000000000E+00 0. -1.
         11    1    3    3    0    0  0.64085660827E+01  0.28034467723E-01 -0.96218316365E+00  0.64804553752E+01  0.51100000000E-03 0. -1.
        -11    1    3    3    0    0  0.33213348835E+01  0.90377392029E+01  0.13316707395E+02  0.16433097438E+02  0.51100000000E-03 0.  1.
        -12    1    3    3    0    0 -0.29939370305E+02 -0.17660938131E+02  0.10762993437E+02  0.36388413783E+02  0.00000000000E+00 0.  1.
</event>
<event>
 7    1  0.3449603E-013  0.5930195E+02  0.7816164E-02  0.1266605E+00
        -11   -1    0    0    0    0  0.00000000000E+00  0.00000000000E+00  0.45593999997E+02  0.45594000000E+02  0.51100000000E-03 0.  1.
         11   -1    0    0    0    0 -0.00000000000E+00 -0.00000000000E+00 -0.45593999997E+02  0.45594000000E+02  0.51100000000E-03 0. -1.
    9900012    2    1    2    0    0  0.11861130227E+02  0.87646177084E+01  0.28270399485E+02  0.59301946295E+02  0.50000004135E+02 0.  0.
         12    1    1    2    0    0 -0.11861130227E+02 -0.87646177084E+01 -0.28270399485E+02  0.31886053705E+02  0.00000000000E+00 0. -1.
         11    1    3    3    0    0  0.53772461779E+01 -0.11919474433E+01  0.15160645335E+02  0.16130117247E+02  0.51100000000E-03 0. -1.
        -11    1    3    3    0    0 -0.12070125420E+02  0.49371147405E+01  0.19021252041E+02  0.23062329871E+02  0.51100000000E-03 0.  1.
         12    1    3    3    0    0  0.18554009470E+02  0.50194504113E+01 -0.59114978908E+01  0.20109499177E+02  0.00000000000E+00 0. -1.
</event>
<event>
 7    1  0.3449603E-013  0.5930192E+02  0.7816164E-02  0.1266605E+00
        -11   -1    0    0    0    0  0.00000000000E+00  0.00000000000E+00  0.45593999997E+02  0.45594000000E+02  0.51100000000E-03 0. -1.
         11   -1    0    0    0    0 -0.00000000000E+00 -0.00000000000E+00 -0.45593999997E+02  0.45594000000E+02  0.51100000000E-03 0.  1.
    9900012    2    1    2    0    0 -0.10232540415E+02  0.25253336812E+01 -0.30093847906E+02  0.59301923488E+02  0.49999962540E+02 0.  0.
         12    1    1    2    0    0  0.10232540415E+02 -0.25253336812E+01  0.30093847906E+02  0.31886076512E+02  0.00000000000E+00 0. -1.
         11    1    3    3    0    0 -0.22775972750E+02 -0.69398316341E+01 -0.19504891966E+02  0.30779002724E+02  0.51100000000E-03 0. -1.
        -11    1    3    3    0    0 -0.18377060420E+01 -0.47800874606E+01 -0.57703748551E+01  0.77151555952E+01  0.51100000000E-03 0.  1.
         12    1    3    3    0    0  0.14381138377E+02  0.14245252776E+02 -0.48185810853E+01  0.20807765169E+02  0.00000000000E+00 0. -1.
</event>
<event>
 7    1  0.3449603E-013  0.5930197E+02  0.7816164E-02  0.1266605E+00
        -11   -1    0    0    0    0  0.00000000000E+00  0.00000000000E+00  0.45593999997E+02  0.45594000000E+02  0.51100000000E-03 0.  1.
         11   -1    0    0    0    0 -0.00000000000E+00 -0.00000000000E+00 -0.45593999997E+02  0.45594000000E+02  0.51100000000E-03 0. -1.
    9900012    2    1    2    0    0  0.73903953444E+01  0.20696498158E+01  0.30948623803E+02  0.59301973139E+02  0.50000053092E+02 0.  0.
         12    1    1    2    0    0 -0.73903953444E+01 -0.20696498158E+01 -0.30948623803E+02  0.31886026861E+02  0.00000000000E+00 0. -1.
         11    1    3    3    0    0 -0.18816151430E+00 -0.62289961873E+01 -0.95477142441E+01  0.11401519452E+02  0.51100000000E-03 0. -1.
        -11    1    3    3    0    0 -0.59798112720E+01  0.48542967504E+01  0.37200432638E+01  0.85534239890E+01  0.51100000000E-03 0.  1.
         12    1    3    3    0    0  0.13558368131E+02  0.34443492527E+01  0.36776294783E+02  0.39347029698E+02  0.00000000000E+00 0. -1.
</event>
<event>
 7    1  0.3449603E-013  0.5930195E+02  0.7816164E-02  0.1266605E+00
        -11   -1    0    0    0    0  0.00000000000E+00  0.00000000000E+00  0.45593999997E+02  0.45594000000E+02  0.51100000000E-03 0.  1.
         11   -1    0    0    0    0 -0.00000000000E+00 -0.00000000000E+00 -0.45593999997E+02  0.45594000000E+02  0.51100000000E-03 0. -1.
    9900012    2    1    2    0    0  0.60284947933E+01  0.23264209602E+02 -0.20956002119E+02  0.59301949403E+02  0.50000009802E+02 0.  0.
         12    1    1    2    0    0 -0.60284947933E+01 -0.23264209602E+02  0.20956002119E+02  0.31886050597E+02  0.00000000000E+00 0. -1.
         11    1    3    3    0    0  0.11076507000E+02  0.42096697439E+01  0.18007872891E+01  0.11985539696E+02  0.51100000000E-03 0. -1.
        -11    1    3    3    0    0  0.55053172038E+00  0.22812781438E+02  0.78002159355E+00  0.22832750952E+02  0.51100000000E-03 0.  1.
         12    1    3    3    0    0 -0.55985439270E+01 -0.37582415798E+01 -0.23536811002E+02  0.24483658755E+02  0.00000000000E+00 0. -1.
</event>
<event>
 7    1  0.3449603E-013  0.5930195E+02  0.7816164E-02  0.1266605E+00
        -11   -1    0    0    0    0  0.00000000000E+00  0.00000000000E+00  0.45593999997E+02  0.45594000000E+02  0.51100000000E-03 0. -1.
         11   -1    0    0    0    0 -0.00000000000E+00 -0.00000000000E+00 -0.45593999997E+02  0.45594000000E+02  0.51100000000E-03 0.  1.
    9900012    2    1    2    0    0 -0.19305300700E+02 -0.25193968975E+02 -0.30478630907E+01  0.59301950116E+02  0.50000011103E+02 0.  0.
         12    1    1    2    0    0  0.19305300700E+02  0.25193968975E+02  0.30478630907E+01  0.31886049884E+02  0.00000000000E+00 0. -1.
         11    1    3    3    0    0 -0.20720157635E+02 -0.11563766510E+02  0.13858155488E+02  0.27478975638E+02  0.51100000000E-03 0. -1.
        -11    1    3    3    0    0 -0.55670248214E+01  0.37681841020E+01 -0.95624844896E+01  0.11688972866E+02  0.51100000000E-03 0.  1.
        -12    1    3    3    0    0  0.69818817566E+01 -0.17398386566E+02 -0.73435340895E+01  0.20134001612E+02  0.00000000000E+00 0.  1.
</event>
<event>
 7    1  0.3449603E-013  0.5930193E+02  0.7816164E-02  0.1266605E+00
        -11   -1    0    0    0    0  0.00000000000E+00  0.00000000000E+00  0.45593999997E+02  0.45594000000E+02  0.51100000000E-03 0.  1.
         11   -1    0    0    0    0 -0.00000000000E+00 -0.00000000000E+00 -0.45593999997E+02  0.45594000000E+02  0.51100000000E-03 0. -1.
    9900012    2    1    2    0    0  0.19317328283E+02 -0.32334467399E+00  0.25366468419E+02  0.59301930254E+02  0.49999974881E+02 0.  0.
         12    1    1    2    0    0 -0.19317328283E+02  0.32334467399E+00 -0.25366468419E+02  0.31886069746E+02  0.00000000000E+00 0. -1.
         11    1    3    3    0    0 -0.18778064122E+01 -0.72251439874E+01  0.21110208252E+02  0.22391287486E+02  0.51100000000E-03 0. -1.
        -11    1    3    3    0    0  0.20067333138E+02 -0.12877285085E+01  0.13721097883E+02  0.24343882832E+02  0.51100000000E-03 0.  1.
         12    1    3    3    0    0  0.11278015567E+01  0.81895278219E+01 -0.94648377160E+01  0.12566759936E+02  0.00000000000E+00 0. -1.
</event>
<event>
 7    1  0.3449603E-013  0.5930195E+02  0.7816164E-02  0.1266605E+00
        -11   -1    0    0    0    0  0.00000000000E+00  0.00000000000E+00  0.45593999997E+02  0.45594000000E+02  0.51100000000E-03 0. -1.
         11   -1    0    0    0    0 -0.00000000000E+00 -0.00000000000E+00 -0.45593999997E+02  0.45594000000E+02  0.51100000000E-03 0.  1.
    9900012    2    1    2    0    0 -0.21733789486E+01 -0.22965332921E+02 -0.22013403934E+02  0.59301952189E+02  0.50000014884E+02 0.  0.
         12    1    1    2    0    0  0.21733789486E+01  0.22965332921E+02  0.22013403934E+02  0.31886047811E+02  0.00000000000E+00 0. -1.
         11    1    3    3    0    0 -0.59502770345E+01 -0.26909662146E+01  0.10518097826E+02  0.12380528183E+02  0.51100000000E-03 0. -1.
        -11    1    3    3    0    0 -0.27942066423E+01 -0.13351950725E+01  0.41150394144E+01  0.51501345890E+01  0.51100000000E-03 0.  1.
        -12    1    3    3    0    0  0.65711047281E+01 -0.18939171634E+02 -0.36646541174E+02  0.41771289417E+02  0.00000000000E+00 0.  1.
</event>
<event>
 7    1  0.3449603E-013  0.5930193E+02  0.7816164E-02  0.1266605E+00
        -11   -1    0    0    0    0  0.00000000000E+00  0.00000000000E+00  0.45593999997E+02  0.45594000000E+02  0.51100000000E-03 0. -1.
         11   -1    0    0    0    0 -0.00000000000E+00 -0.00000000000E+00 -0.45593999997E+02  0.45594000000E+02  0.51100000000E-03 0.  1.
    9900012    2    1    2    0    0  0.22116877012E+02  0.43092616994E+01 -0.22560935117E+02  0.59301925006E+02  0.49999965309E+02 0.  0.
         12    1    1    2    0    0 -0.22116877012E+02 -0.43092616994E+01  0.22560935117E+02  0.31886074994E+02  0.00000000000E+00 0. -1.
         11    1    3    3    0    0 -0.15778653191E+01  0.11353299646E+02  0.65092374239E+01  0.13181701101E+02  0.51100000000E-03 0. -1.
        -11    1    3    3    0    0 -0.20367987334E+01 -0.89125127168E+01 -0.12392064326E+02  0.15399502932E+02  0.51100000000E-03 0.  1.
        -12    1    3    3    0    0  0.25731541065E+02  0.18684747702E+01 -0.16678108214E+02  0.30720720974E+02  0.00000000000E+00 0.  1.
</event>
<event>
 7    1  0.3449603E-013  0.5930197E+02  0.7816164E-02  0.1266605E+00
        -11   -1    0    0    0    0  0.00000000000E+00  0.00000000000E+00  0.45593999997E+02  0.45594000000E+02  0.51100000000E-03 0. -1.
         11   -1    0    0    0    0 -0.00000000000E+00 -0.00000000000E+00 -0.45593999997E+02  0.45594000000E+02  0.51100000000E-03 0.  1.
    9900012    2    1    2    0    0  0.20177494142E+02  0.24689741470E+02 -0.65263948519E-01  0.59301970722E+02  0.50000048684E+02 0.  0.
         12    1    1    2    0    0 -0.20177494142E+02 -0.24689741470E+02  0.65263948519E-01  0.31886029278E+02  0.00000000000E+00 0. -1.
         11    1    3    3    0    0  0.28100604913E+02  0.48468921067E+00  0.12101644235E+01  0.28130826833E+02  0.51100000000E-03 0. -1.
        -11    1    3    3    0    0  0.40205372777E+01 -0.13604410596E+00  0.82734242608E-01  0.40236890059E+01  0.51100000000E-03 0.  1.
        -12    1    3    3    0    0 -0.11943648048E+02  0.24341096365E+02 -0.13581626147E+01  0.27147454883E+02  0.00000000000E+00 0.  1.
</event>
<event>
 7    1  0.3449603E-013  0.5930192E+02  0.7816164E-02  0.1266605E+00
        -11   -1    0    0    0    0  0.00000000000E+00  0.00000000000E+00  0.45593999997E+02  0.45594000000E+02  0.51100000000E-03 0.  1.
         11   -1    0    0    0    0 -0.00000000000E+00 -0.00000000000E+00 -0.45593999997E+02  0.45594000000E+02  0.51100000000E-03 0. -1.
    9900012    2    1    2    0    0 -0.25235130269E+02  0.10346262310E+02  0.16518624549E+02  0.59301923094E+02  0.49999961822E+02 0.  0.
         12    1    1    2    0    0  0.25235130269E+02 -0.10346262310E+02 -0.16518624549E+02  0.31886076906E+02  0.00000000000E+00 0. -1.
         11    1    3    3    0    0 -0.17457659878E+02 -0.32178484332E+01 -0.90861147047E+01  0.19941963736E+02  0.51100000000E-03 0. -1.
        -11    1    3    3    0    0  0.72118739579E+01  0.53441767294E+00  0.36205433337E+00  0.72407052029E+01  0.51100000000E-03 0.  1.
        -12    1    3    3    0    0 -0.14989344349E+02  0.13029693070E+02  0.25242684920E+02  0.32119254155E+02  0.00000000000E+00 0.  1.
</event>
<event>
 7    1  0.3449603E-013  0.5930194E+02  0.7816164E-02  0.1266605E+00
        -11   -1    0    0    0    0  0.00000000000E+00  0.00000000000E+00  0.45593999997E+02  0.45594000000E+02  0.51100000000E-03 0.  1.
         11   -1    0    0    0    0 -0.00000000000E+00 -0.00000000000E+00 -0.45593999997E+02  0.45594000000E+02  0.51100000000E-03 0. -1.
    9900012    2    1    2    0    0 -0.26294690289E+02 -0.65029737283E+01  0.16823247753E+02  0.59301936121E+02  0.49999985581E+02 0.  0.
         12    1    1    2    0    0  0.26294690289E+02  0.65029737283E+01 -0.16823247753E+02  0.31886063879E+02  0.00000000000E+00 0. -1.
         11    1    3    3    0    0 -0.25389326686E+02 -0.51831401889E+00 -0.17180971686E+01  0.25452670138E+02  0.51100000000E-03 0. -1.
        -11    1    3    3    0    0 -0.11373009071E+02 -0.76113261912E+00 -0.60203933828E+00  0.11414337906E+02  0.51100000000E-03 0.  1.
        -12    1    3    3    0    0  0.10467645469E+02 -0.52235270903E+01  0.19143384260E+02  0.22434928078E+02  0.00000000000E+00 0.  1.
</event>
<event>
 7    1  0.3449603E-013  0.5930193E+02  0.7816164E-02  0.1266605E+00
        -11   -1    0    0    0    0  0.00000000000E+00  0.00000000000E+00  0.45593999997E+02  0.45594000000E+02  0.51100000000E-03 0.  1.
         11   -1    0    0    0    0 -0.00000000000E+00 -0.00000000000E+00 -0.45593999997E+02  0.45594000000E+02  0.51100000000E-03 0. -1.
    9900012    2    1    2    0    0  0.26291900514E+02  0.73110365508E+01  0.16492609023E+02  0.59301930307E+02  0.49999974976E+02 0.  0.
         12    1    1    2    0    0 -0.26291900514E+02 -0.73110365508E+01 -0.16492609023E+02  0.31886069693E+02  0.00000000000E+00 0. -1.
         11    1    3    3    0    0 -0.91618184212E+01  0.13494338649E+02  0.67196632138E+01  0.17640577267E+02  0.51100000000E-03 0. -1.
        -11    1    3    3    0    0  0.20607465784E+02  0.15969144694E+01 -0.25941069563E+01  0.20831398729E+02  0.51100000000E-03 0.  1.
        -12    1    3    3    0    0  0.14846253151E+02 -0.77802165671E+01  0.12367052765E+02  0.20829954310E+02  0.00000000000E+00 0.  1.
</event>
<event>
 7    1  0.3449603E-013  0.5930202E+02  0.7816164E-02  0.1266604E+00
        -11   -1    0    0    0    0  0.00000000000E+00  0.00000000000E+00  0.45593999997E+02  0.45594000000E+02  0.51100000000E-03 0.  1.
         11   -1    0    0    0    0 -0.00000000000E+00 -0.00000000000E+00 -0.45593999997E+02  0.45594000000E+02  0.51100000000E-03 0. -1.
    9900012    2    1    2    0    0  0.23041322791E+01 -0.25892279205E+02 -0.18466091935E+02  0.59302020332E+02  0.50000139161E+02 0.  0.
         12    1    1    2    0    0 -0.23041322791E+01  0.25892279205E+02  0.18466091935E+02  0.31885979668E+02  0.00000000000E+00 0. -1.
         11    1    3    3    0    0  0.61686391911E+01 -0.18872297331E+02  0.37536724015E-01  0.19854901795E+02  0.51100000000E-03 0. -1.
        -11    1    3    3    0    0  0.41563158450E+01  0.16879332755E+01  0.86947428483E+01  0.97837944380E+01  0.51100000000E-03 0.  1.
         12    1    3    3    0    0 -0.80208227570E+01 -0.87079151494E+01 -0.27198371508E+02  0.29663324099E+02  0.00000000000E+00 0. -1.
</event>
<event>
 7    1  0.3449603E-013  0.5930194E+02  0.7816164E-02  0.1266605E+00
        -11   -1    0    0    0    0  0.00000000000E+00  0.00000000000E+00  0.45593999997E+02  0.45594000000E+02  0.51100000000E-03 0. -1.
         11   -1    0    0    0    0 -0.00000000000E+00 -0.00000000000E+00 -0.45593999997E+02  0.45594000000E+02  0.51100000000E-03 0.  1.
    9900012    2    1    2    0    0 -0.12329454431E+02  0.27880254201E+02 -0.93486349799E+01  0.59301937263E+02  0.49999987663E+02 0.  0.
         12    1    1    2    0    0  0.12329454431E+02 -0.27880254201E+02  0.93486349799E+01  0.31886062737E+02  0.00000000000E+00 0. -1.
         11    1    3    3    0    0 -0.16418103689E+02  0.85942008168E+01  0.62541154361E+01  0.19558332663E+02  0.51100000000E-03 0. -1.
        -11    1    3    3    0    0  0.69270727024E+00  0.25159228394E+02 -0.28903612956E+01  0.25334182549E+02  0.51100000000E-03 0.  1.
         12    1    3    3    0    0  0.33959419871E+01 -0.58731750101E+01 -0.12712389120E+02  0.14409422050E+02  0.00000000000E+00 0. -1.
</event>
<event>
 7    1  0.3449603E-013  0.5930193E+02  0.7816164E-02  0.1266605E+00
        -11   -1    0    0    0    0  0.00000000000E+00  0.00000000000E+00  0.45593999997E+02  0.45594000000E+02  0.51100000000E-03 0. -1.
         11   -1    0    0    0    0 -0.00000000000E+00 -0.00000000000E+00 -0.45593999997E+02  0.45594000000E+02  0.51100000000E-03 0.  1.
    9900012    2    1    2    0    0  0.30224914741E+01  0.13245833072E+02 -0.28846734530E+02  0.59301927154E+02  0.49999969227E+02 0.  0.
         12    1    1    2    0    0 -0.30224914741E+01 -0.13245833072E+02  0.28846734530E+02  0.31886072846E+02  0.00000000000E+00 0. -1.
         11    1    3    3    0    0  0.16057465596E+02  0.15677202992E+02 -0.66361594730E+01  0.23402040676E+02  0.51100000000E-03 0. -1.
        -11    1    3    3    0    0 -0.61465631529E+01  0.11237319916E+02 -0.87004232983E+01  0.15484022841E+02  0.51100000000E-03 0.  1.
        -12    1    3    3    0    0 -0.68884109686E+01 -0.13668689837E+02 -0.13510151759E+02  0.20415863637E+02  0.00000000000E+00 0.  1.
</event>
<event>
 7    1  0.3449603E-013  0.5930193E+02  0.7816164E-02  0.1266605E+00
        -11   -1    0    0    0    0  0.00000000000E+00  0.00000000000E+00  0.45593999997E+02  0.45594000000E+02  0.51100000000E-03 0.  1.
         11   -1    0    0    0    0 -0.00000000000E+00 -0.00000000000E+00 -0.45593999997E+02  0.45594000000E+02  0.51100000000E-03 0. -1.
    9900012    2    1    2    0    0 -0.10085659907E+01 -0.62957128500E+01  0.31242087183E+02  0.59301933808E+02  0.49999981363E+02 0.  0.
         12    1    1    2    0    0  0.10085659907E+01  0.62957128500E+01 -0.31242087183E+02  0.31886066192E+02  0.00000000000E+00 0. -1.
         11    1    3    3    0    0  0.37701711751E+01 -0.30623899396E+01 -0.35837225381E+01  0.60361817669E+01  0.51100000000E-03 0. -1.
        -11    1    3    3    0    0 -0.10863078709E+02 -0.17876038440E+02  0.30221009026E+02  0.36754164609E+02  0.51100000000E-03 0.  1.
        -12    1    3    3    0    0  0.60843415434E+01  0.14642715529E+02  0.46048006951E+01  0.16511587432E+02  0.00000000000E+00 0.  1.
</event>
<event>
 7    1  0.3449603E-013  0.5930195E+02  0.7816164E-02  0.1266605E+00
        -11   -1    0    0    0    0  0.00000000000E+00  0.00000000000E+00  0.45593999997E+02  0.45594000000E+02  0.51100000000E-03 0. -1.
         11   -1    0    0    0    0 -0.00000000000E+00 -0.00000000000E+00 -0.45593999997E+02  0.45594000000E+02  0.51100000000E-03 0.  1.
    9900012    2    1    2    0    0 -0.62234949960E+01  0.23732993964E+02 -0.20365005275E+02  0.59301947684E+02  0.50000006668E+02 0.  0.
         12    1    1    2    0    0  0.62234949960E+01 -0.23732993964E+02  0.20365005275E+02  0.31886052316E+02  0.00000000000E+00 0. -1.
         11    1    3    3    0    0 -0.33092157693E+01 -0.93026265769E+00 -0.12783244496E+01  0.36674802357E+01  0.51100000000E-03 0. -1.
        -11    1    3    3    0    0 -0.16257668503E+02 -0.43741314645E+01 -0.16500485929E+02  0.23573520046E+02  0.51100000000E-03 0.  1.
         12    1    3    3    0    0  0.13343389276E+02  0.29037388087E+02 -0.25861948961E+01  0.32060947402E+02  0.00000000000E+00 0. -1.
</event>
<event>
 7    1  0.3449603E-013  0.5930193E+02  0.7816164E-02  0.1266605E+00
        -11   -1    0    0    0    0  0.00000000000E+00  0.00000000000E+00  0.45593999997E+02  0.45594000000E+02  0.51100000000E-03 0.  1.
         11   -1    0    0    0    0 -0.00000000000E+00 -0.00000000000E+00 -0.45593999997E+02  0.45594000000E+02  0.51100000000E-03 0. -1.
    9900012    2    1    2    0    0  0.31658890819E+02  0.81379865497E+00  0.37112888100E+01  0.59301932498E+02  0.49999978972E+02 0.  0.
         12    1    1    2    0    0 -0.31658890819E+02 -0.81379865497E+00 -0.37112888100E+01  0.31886067502E+02  0.00000000000E+00 0. -1.
         11    1    3    3    0    0  0.56006222770E+01  0.89908697025E+01  0.25048182902E+01  0.10884705914E+02  0.51100000000E-03 0. -1.
        -11    1    3    3    0    0  0.22233893911E+02  0.10725456962E+00  0.18460615221E+02  0.28898994041E+02  0.51100000000E-03 0.  1.
        -12    1    3    3    0    0  0.38243746302E+01 -0.82843256172E+01 -0.17254144701E+02  0.19518232543E+02  0.00000000000E+00 0.  1.
</event>
<event>
 7    1  0.3449603E-013  0.5930197E+02  0.7816164E-02  0.1266605E+00
        -11   -1    0    0    0    0  0.00000000000E+00  0.00000000000E+00  0.45593999997E+02  0.45594000000E+02  0.51100000000E-03 0. -1.
         11   -1    0    0    0    0 -0.00000000000E+00 -0.00000000000E+00 -0.45593999997E+02  0.45594000000E+02  0.51100000000E-03 0.  1.
    9900012    2    1    2    0    0  0.27591706192E+02  0.15451869519E+01 -0.15906895961E+02  0.59301965558E+02  0.50000039266E+02 0.  0.
         12    1    1    2    0    0 -0.27591706192E+02 -0.15451869519E+01  0.15906895961E+02  0.31886034442E+02  0.00000000000E+00 0. -1.
         11    1    3    3    0    0  0.13915341585E+02 -0.21408865184E+01  0.14266907909E+02  0.20044071145E+02  0.51100000000E-03 0. -1.
        -11    1    3    3    0    0  0.50917471254E+01 -0.82054689831E+01 -0.16961284166E+02  0.19517704036E+02  0.51100000000E-03 0.  1.
        -12    1    3    3    0    0  0.85846174817E+01  0.11891542453E+02 -0.13212519704E+02  0.19740190378E+02  0.00000000000E+00 0.  1.
</event>
<event>
 7    1  0.3449603E-013  0.5930200E+02  0.7816164E-02  0.1266605E+00
        -11   -1    0    0    0    0  0.00000000000E+00  0.00000000000E+00  0.45593999997E+02  0.45594000000E+02  0.51100000000E-03 0.  1.
         11   -1    0    0    0    0 -0.00000000000E+00 -0.00000000000E+00 -0.45593999997E+02  0.45594000000E+02  0.51100000000E-03 0. -1.
    9900012    2    1    2    0    0 -0.21882813806E+02  0.26190039593E+01  0.23043444518E+02  0.59301999043E+02  0.50000100334E+02 0.  0.
         12    1    1    2    0    0  0.21882813806E+02 -0.26190039593E+01 -0.23043444518E+02  0.31886000957E+02  0.00000000000E+00 0. -1.
         11    1    3    3    0    0  0.81210608890E+01  0.31578697881E+01  0.55093602061E+01  0.10309065026E+02  0.51100000000E-03 0. -1.
        -11    1    3    3    0    0 -0.12701653808E+02 -0.36729885221E+01 -0.98233892107E+01  0.16471849622E+02  0.51100000000E-03 0.  1.
        -12    1    3    3    0    0 -0.17302220887E+02  0.31341226933E+01  0.27357473522E+02  0.32521084395E+02  0.00000000000E+00 0.  1.
</event>
<event>
 7    1  0.3449603E-013  0.5930195E+02  0.7816164E-02  0.1266605E+00
        -11   -1    0    0    0    0  0.00000000000E+00  0.00000000000E+00  0.45593999997E+02  0.45594000000E+02  0.51100000000E-03 0. -1.
         11   -1    0    0    0    0 -0.00000000000E+00 -0.00000000000E+00 -0.45593999997E+02  0.45594000000E+02  0.51100000000E-03 0.  1.
    9900012    2    1    2    0    0  0.85774917384E+01  0.12071703492E+02 -0.28238637224E+02  0.59301952550E+02  0.50000015542E+02 0.  0.
         12    1    1    2    0    0 -0.85774917384E+01 -0.12071703492E+02  0.28238637224E+02  0.31886047450E+02  0.00000000000E+00 0. -1.
         11    1    3    3    0    0  0.58768622292E+01  0.21111414787E+02 -0.75178599119E+01  0.23167813058E+02  0.51100000000E-03 0. -1.
        -11    1    3    3    0    0  0.10514897140E+01 -0.56021367091E+01 -0.27646678382E+02  0.28228148933E+02  0.51100000000E-03 0.  1.
         12    1    3    3    0    0  0.16491397952E+01 -0.34375745856E+01  0.69259010701E+01  0.79059905596E+01  0.00000000000E+00 0. -1.
</event>
<event>
 7    1  0.3449603E-013  0.5930195E+02  0.7816164E-02  0.1266605E+00
        -11   -1    0    0    0    0  0.00000000000E+00  0.00000000000E+00  0.45593999997E+02  0.45594000000E+02  0.51100000000E-03 0. -1.
         11   -1    0    0    0    0 -0.00000000000E+00 -0.00000000000E+00 -0.45593999997E+02  0.45594000000E+02  0.51100000000E-03 0.  1.
    9900012    2    1    2    0    0  0.44881778768E+01  0.13090637968E+02 -0.28726500656E+02  0.59301946888E+02  0.50000005217E+02 0.  0.
         12    1    1    2    0    0 -0.44881778768E+01 -0.13090637968E+02  0.28726500656E+02  0.31886053112E+02  0.00000000000E+00 0. -1.
         11    1    3    3    0    0  0.53568236277E+01  0.26570026798E+02 -0.34549681542E+01  0.27323958144E+02  0.51100000000E-03 0.  1.
        -11    1    3    3    0    0  0.65020729752E+01 -0.41862985042E+01 -0.99839025043E+01  0.12628553267E+02  0.51100000000E-03 0. -1.
        -12    1    3    3    0    0 -0.73707187260E+01 -0.92930903261E+01 -0.15287629998E+02  0.19349435478E+02  0.00000000000E+00 0.  1.
</event>
<event>
 7    1  0.3449603E-013  0.5930196E+02  0.7816164E-02  0.1266605E+00
        -11   -1    0    0    0    0  0.00000000000E+00  0.00000000000E+00  0.45593999997E+02  0.45594000000E+02  0.51100000000E-03 0. -1.
         11   -1    0    0    0    0 -0.00000000000E+00 -0.00000000000E+00 -0.45593999997E+02  0.45594000000E+02  0.51100000000E-03 0.  1.
    9900012    2    1    2    0    0 -0.16871494488E+02  0.21858086661E+02  0.15946668449E+02  0.59301960525E+02  0.50000030088E+02 0.  0.
         12    1    1    2    0    0  0.16871494488E+02 -0.21858086661E+02 -0.15946668449E+02  0.31886039475E+02  0.00000000000E+00 0. -1.
         11    1    3    3    0    0  0.51375435202E+01  0.17381768926E+02  0.62202434815E+01  0.19162767902E+02  0.51100000000E-03 0. -1.
        -11    1    3    3    0    0 -0.19619978689E+02  0.12397744296E+02  0.17280570848E+02  0.28935544862E+02  0.51100000000E-03 0.  1.
         12    1    3    3    0    0 -0.23890593197E+01 -0.79214265614E+01 -0.75541458796E+01  0.11203647762E+02  0.00000000000E+00 0. -1.
</event>
<event>
 7    1  0.3449603E-013  0.5930197E+02  0.7816164E-02  0.1266605E+00
        -11   -1    0    0    0    0  0.00000000000E+00  0.00000000000E+00  0.45593999997E+02  0.45594000000E+02  0.51100000000E-03 0.  1.
         11   -1    0    0    0    0 -0.00000000000E+00 -0.00000000000E+00 -0.45593999997E+02  0.45594000000E+02  0.51100000000E-03 0. -1.
    9900012    2    1    2    0    0 -0.14090004757E+02 -0.28578645164E+02 -0.12049781009E+01  0.59301965977E+02  0.50000040031E+02 0.  0.
         12    1    1    2    0    0  0.14090004757E+02  0.28578645164E+02  0.12049781009E+01  0.31886034023E+02  0.00000000000E+00 0. -1.
         11    1    3    3    0    0 -0.13535876540E+02 -0.39509269087E+01 -0.14960073927E+02  0.20558054122E+02  0.51100000000E-03 0. -1.
        -11    1    3    3    0    0 -0.97067634391E+01 -0.14633739873E+02 -0.23263878800E+01  0.17713827366E+02  0.51100000000E-03 0.  1.
        -12    1    3    3    0    0  0.91526352219E+01 -0.99939783827E+01  0.16081483706E+02  0.21030084489E+02  0.00000000000E+00 0.  1.
</event>
<event>
 7    1  0.4996340E-013  0.5930195E+02  0.7816164E-02  0.1266605E+00
        -11   -1    0    0    0    0  0.00000000000E+00  0.00000000000E+00  0.45593999997E+02  0.45594000000E+02  0.51100000000E-03 0. -1.
         11   -1    0    0    0    0 -0.00000000000E+00 -0.00000000000E+00 -0.45593999997E+02  0.45594000000E+02  0.51100000000E-03 0.  1.
    9900012    2    1    2    0    0 -0.25052388578E+02  0.17088044396E+02  0.98537656020E+01  0.59301950836E+02  0.50000012417E+02 0.  0.
         12    1    1    2    0    0  0.25052388578E+02 -0.17088044396E+02 -0.98537656020E+01  0.31886049164E+02  0.00000000000E+00 0. -1.
         11    1    3    3    0    0  0.48495278613E+00 -0.80341378112E+01  0.68935653047E+01  0.10597348369E+02  0.51100000000E-03 0. -1.
        -11    1    3    3    0    0 -0.30859467749E+02  0.15175537251E+02 -0.52022843008E+01  0.34780273760E+02  0.51100000000E-03 0.  1.
         12    1    3    3    0    0  0.53221263847E+01  0.99466449559E+01  0.81624845982E+01  0.13924328707E+02  0.00000000000E+00 0. -1.
</event>
<event>
 7    1  0.3449603E-013  0.5930155E+02  0.7816164E-02  0.1266606E+00
        -11   -1    0    0    0    0  0.00000000000E+00  0.00000000000E+00  0.45593999997E+02  0.45594000000E+02  0.51100000000E-03 0. -1.
         11   -1    0    0    0    0 -0.00000000000E+00 -0.00000000000E+00 -0.45593999997E+02  0.45594000000E+02  0.51100000000E-03 0.  1.
    9900012    2    1    2    0    0 -0.70524183304E+01  0.30789996062E+02 -0.43572022996E+01  0.59301550313E+02  0.49999281953E+02 0.  0.
         12    1    1    2    0    0  0.70524183304E+01 -0.30789996062E+02  0.43572022996E+01  0.31886449687E+02  0.00000000000E+00 0. -1.
         11    1    3    3    0    0  0.64134460925E+01  0.13878008436E+02 -0.14548591479E+02  0.21104334228E+02  0.51100000000E-03 0. -1.
        -11    1    3    3    0    0  0.43630873236E+01  0.18106796111E+02  0.26929427809E+01  0.18818728370E+02  0.51100000000E-03 0.  1.
         12    1    3    3    0    0 -0.17828951746E+02 -0.11948084856E+01  0.74984463984E+01  0.19378487714E+02  0.00000000000E+00 0. -1.
</event>
<event>
 7    1  0.5180587E-013  0.5930194E+02  0.7816164E-02  0.1266605E+00
        -11   -1    0    0    0    0  0.00000000000E+00  0.00000000000E+00  0.45593999997E+02  0.45594000000E+02  0.51100000000E-03 0. -1.
         11   -1    0    0    0    0 -0.00000000000E+00 -0.00000000000E+00 -0.45593999997E+02  0.45594000000E+02  0.51100000000E-03 0.  1.
    9900012    2    1    2    0    0  0.11536798070E+01 -0.20157792609E+02 -0.24679005417E+02  0.59301938965E+02  0.49999990766E+02 0.  0.
         12    1    1    2    0    0 -0.11536798070E+01  0.20157792609E+02  0.24679005417E+02  0.31886061035E+02  0.00000000000E+00 0. -1.
         11    1    3    3    0    0  0.17300204246E+02 -0.97397610849E+01 -0.12145056779E+02  0.23273642117E+02  0.51100000000E-03 0. -1.
        -11    1    3    3    0    0  0.24327104091E+01 -0.27044455153E+01 -0.15296123778E+02  0.15722706776E+02  0.51100000000E-03 0.  1.
         12    1    3    3    0    0 -0.18579234848E+02 -0.77135860091E+01  0.27621751395E+01  0.20305590072E+02  0.00000000000E+00 0. -1.
</event>
<event>
 7    1  0.3449603E-013  0.5930197E+02  0.7816164E-02  0.1266605E+00
        -11   -1    0    0    0    0  0.00000000000E+00  0.00000000000E+00  0.45593999997E+02  0.45594000000E+02  0.51100000000E-03 0.  1.
         11   -1    0    0    0    0 -0.00000000000E+00 -0.00000000000E+00 -0.45593999997E+02  0.45594000000E+02  0.51100000000E-03 0. -1.
    9900012    2    1    2    0    0  0.19129379009E+01 -0.19031792235E+02  0.25511774900E+02  0.59301966919E+02  0.50000041748E+02 0.  0.
         12    1    1    2    0    0 -0.19129379009E+01  0.19031792235E+02 -0.25511774900E+02  0.31886033081E+02  0.00000000000E+00 0. -1.
         11    1    3    3    0    0 -0.19331349901E+02 -0.17753774288E+02  0.14958951159E+02  0.30210392426E+02  0.51100000000E-03 0. -1.
        -11    1    3    3    0    0 -0.22440174078E+01 -0.25430407276E+01  0.25567159023E+01  0.42472893397E+01  0.51100000000E-03 0.  1.
        -12    1    3    3    0    0  0.23488305209E+02  0.12650227804E+01  0.79961078381E+01  0.24844285154E+02  0.00000000000E+00 0.  1.
</event>
<event>
 7    1  0.3449603E-013  0.5930197E+02  0.7816164E-02  0.1266605E+00
        -11   -1    0    0    0    0  0.00000000000E+00  0.00000000000E+00  0.45593999997E+02  0.45594000000E+02  0.51100000000E-03 0.  1.
         11   -1    0    0    0    0 -0.00000000000E+00 -0.00000000000E+00 -0.45593999997E+02  0.45594000000E+02  0.51100000000E-03 0. -1.
    9900012    2    1    2    0    0  0.30338418059E+02  0.28824074895E+00  0.98089712433E+01  0.59301974693E+02  0.50000055926E+02 0.  0.
         12    1    1    2    0    0 -0.30338418059E+02 -0.28824074895E+00 -0.98089712433E+01  0.31886025307E+02  0.00000000000E+00 0. -1.
         11    1    3    3    0    0  0.35966720947E+01 -0.53347137101E+01  0.30713626503E+01  0.71294101661E+01  0.51100000000E-03 0. -1.
        -11    1    3    3    0    0  0.15015557677E+02 -0.19096831804E+02  0.46396815980E+01  0.24732217912E+02  0.51100000000E-03 0.  1.
         12    1    3    3    0    0  0.11726188287E+02  0.24719786263E+02  0.20979269950E+01  0.27440346614E+02  0.00000000000E+00 0. -1.
</event>
<event>
 7    1  0.3449603E-013  0.5930190E+02  0.7816164E-02  0.1266605E+00
        -11   -1    0    0    0    0  0.00000000000E+00  0.00000000000E+00  0.45593999997E+02  0.45594000000E+02  0.51100000000E-03 0.  1.
         11   -1    0    0    0    0 -0.00000000000E+00 -0.00000000000E+00 -0.45593999997E+02  0.45594000000E+02  0.51100000000E-03 0. -1.
    9900012    2    1    2    0    0  0.23031112608E+02 -0.15993082068E+02  0.15182648459E+02  0.59301895875E+02  0.49999912182E+02 0.  0.
         12    1    1    2    0    0 -0.23031112608E+02  0.15993082068E+02 -0.15182648459E+02  0.31886104125E+02  0.00000000000E+00 0. -1.
         11    1    3    3    0    0  0.20787557153E+02  0.64891652041E+00  0.12615307154E+02  0.24324670602E+02  0.51100000000E-03 0.  1.
        -11    1    3    3    0    0  0.15696118429E+02 -0.13884993029E+02 -0.25638248718E+00  0.20957740751E+02  0.51100000000E-03 0. -1.
         12    1    3    3    0    0 -0.13452562974E+02 -0.27570055598E+01  0.28237237919E+01  0.14019484522E+02  0.00000000000E+00 0. -1.
</event>
<event>
 7    1  0.3449603E-013  0.5930197E+02  0.7816164E-02  0.1266605E+00
        -11   -1    0    0    0    0  0.00000000000E+00  0.00000000000E+00  0.45593999997E+02  0.45594000000E+02  0.51100000000E-03 0.  1.
         11   -1    0    0    0    0 -0.00000000000E+00 -0.00000000000E+00 -0.45593999997E+02  0.45594000000E+02  0.51100000000E-03 0. -1.
    9900012    2    1    2    0    0 -0.22790687876E+02  0.15817666878E+02  0.15719566956E+02  0.59301971326E+02  0.50000049786E+02 0.  0.
         12    1    1    2    0    0  0.22790687876E+02 -0.15817666878E+02 -0.15719566956E+02  0.31886028674E+02  0.00000000000E+00 0. -1.
         11    1    3    3    0    0 -0.72567347663E+01 -0.19118543742E+01  0.20406233506E+01  0.77768586548E+01  0.51100000000E-03 0. -1.
        -11    1    3    3    0    0 -0.25561215203E+02  0.23596956597E+02  0.16874094808E+01  0.34828715657E+02  0.51100000000E-03 0.  1.
        -12    1    3    3    0    0  0.10027262093E+02 -0.58674353453E+01  0.11991534124E+02  0.16696397015E+02  0.00000000000E+00 0.  1.
</event>
<event>
 7    1  0.3449603E-013  0.5930195E+02  0.7816164E-02  0.1266605E+00
        -11   -1    0    0    0    0  0.00000000000E+00  0.00000000000E+00  0.45593999997E+02  0.45594000000E+02  0.51100000000E-03 0.  1.
         11   -1    0    0    0    0 -0.00000000000E+00 -0.00000000000E+00 -0.45593999997E+02  0.45594000000E+02  0.51100000000E-03 0. -1.
    9900012    2    1    2    0    0  0.28236097950E+02  0.58411518563E+01  0.13613378528E+02  0.59301947290E+02  0.50000005950E+02 0.  0.
         12    1    1    2    0    0 -0.28236097950E+02 -0.58411518563E+01 -0.13613378528E+02  0.31886052710E+02  0.00000000000E+00 0. -1.
         11    1    3    3    0    0  0.13955703651E+02  0.12544506131E+02 -0.12102600874E+02  0.22329336010E+02  0.51100000000E-03 0. -1.
        -11    1    3    3    0    0  0.11138054900E+02 -0.43962813675E+00  0.89642719341E+00  0.11182715315E+02  0.51100000000E-03 0.  1.
         12    1    3    3    0    0  0.31423393996E+01 -0.62637261380E+01  0.24819552209E+02  0.25789895965E+02  0.00000000000E+00 0. -1.
</event>
<event>
 7    1  0.3449603E-013  0.5930191E+02  0.7816164E-02  0.1266605E+00
        -11   -1    0    0    0    0  0.00000000000E+00  0.00000000000E+00  0.45593999997E+02  0.45594000000E+02  0.51100000000E-03 0.  1.
         11   -1    0    0    0    0 -0.00000000000E+00 -0.00000000000E+00 -0.45593999997E+02  0.45594000000E+02  0.51100000000E-03 0. -1.
    9900012    2    1    2    0    0 -0.30932765644E+02 -0.77015092135E+01  0.75717398237E+00  0.59301912956E+02  0.49999943332E+02 0.  0.
         12    1    1    2    0    0  0.30932765644E+02  0.77015092135E+01 -0.75717398237E+00  0.31886087044E+02  0.00000000000E+00 0. -1.
         11    1    3    3    0    0  0.53243413105E+00  0.11867900446E+02  0.93360983608E+01  0.15109377219E+02  0.51100000000E-03 0. -1.
        -11    1    3    3    0    0 -0.44888278164E+01  0.40336546360E+01 -0.55859083083E+01  0.82232789553E+01  0.51100000000E-03 0.  1.
         12    1    3    3    0    0 -0.26976371959E+02 -0.23603064295E+02 -0.29930160701E+01  0.35969256781E+02  0.00000000000E+00 0. -1.
</event>
<event>
 7    1  0.3449603E-013  0.5930192E+02  0.7816164E-02  0.1266605E+00
        -11   -1    0    0    0    0  0.00000000000E+00  0.00000000000E+00  0.45593999997E+02  0.45594000000E+02  0.51100000000E-03 0. -1.
         11   -1    0    0    0    0 -0.00000000000E+00 -0.00000000000E+00 -0.45593999997E+02  0.45594000000E+02  0.51100000000E-03 0.  1.
    9900012    2    1    2    0    0 -0.64294128724E+00  0.22050055945E+02 -0.23023982195E+02  0.59301920015E+02  0.49999956207E+02 0.  0.
         12    1    1    2    0    0  0.64294128724E+00 -0.22050055945E+02  0.23023982195E+02  0.31886079985E+02  0.00000000000E+00 0. -1.
         11    1    3    3    0    0  0.57452612026E+01  0.25029063035E+01 -0.48620661303E+01  0.79317245014E+01  0.51100000000E-03 0. -1.
        -11    1    3    3    0    0  0.12391601404E+01  0.24806071056E+02 -0.28288777726E+02  0.37644808734E+02  0.51100000000E-03 0.  1.
         12    1    3    3    0    0 -0.76273626302E+01 -0.52589214148E+01  0.10126861661E+02  0.13725386780E+02  0.00000000000E+00 0. -1.
</event>
<event>
 7    1  0.3449603E-013  0.5930195E+02  0.7816164E-02  0.1266605E+00
        -11   -1    0    0    0    0  0.00000000000E+00  0.00000000000E+00  0.45593999997E+02  0.45594000000E+02  0.51100000000E-03 0. -1.
         11   -1    0    0    0    0 -0.00000000000E+00 -0.00000000000E+00 -0.45593999997E+02  0.45594000000E+02  0.51100000000E-03 0.  1.
    9900012    2    1    2    0    0  0.12675438518E+02  0.11182901645E+02 -0.27036936010E+02  0.59301953842E+02  0.50000017898E+02 0.  0.
         12    1    1    2    0    0 -0.12675438518E+02 -0.11182901645E+02  0.27036936010E+02  0.31886046158E+02  0.00000000000E+00 0. -1.
         11    1    3    3    0    0  0.11265109413E+02 -0.94353870211E+01 -0.11976930502E+02  0.18957217170E+02  0.51100000000E-03 0. -1.
        -11    1    3    3    0    0 -0.56239243353E+01 -0.61780354531E+01  0.84920611350E+00  0.83974876167E+01  0.51100000000E-03 0.  1.
        -12    1    3    3    0    0  0.70342534406E+01  0.26796324119E+02 -0.15909211621E+02  0.31947249055E+02  0.00000000000E+00 0.  1.
</event>
<event>
 7    1  0.3449603E-013  0.5930195E+02  0.7816164E-02  0.1266605E+00
        -11   -1    0    0    0    0  0.00000000000E+00  0.00000000000E+00  0.45593999997E+02  0.45594000000E+02  0.51100000000E-03 0. -1.
         11   -1    0    0    0    0 -0.00000000000E+00 -0.00000000000E+00 -0.45593999997E+02  0.45594000000E+02  0.51100000000E-03 0.  1.
    9900012    2    1    2    0    0 -0.68218894155E+01 -0.11129625226E+02  0.29091470530E+02  0.59301946772E+02  0.50000005005E+02 0.  0.
         12    1    1    2    0    0  0.68218894155E+01  0.11129625226E+02 -0.29091470530E+02  0.31886053228E+02  0.00000000000E+00 0. -1.
         11    1    3    3    0    0 -0.72995190546E+01 -0.53881550391E+01  0.29484671125E+02  0.30849003627E+02  0.51100000000E-03 0. -1.
        -11    1    3    3    0    0  0.61984076323E+01 -0.25323392443E+01  0.12390879584E+02  0.14084278340E+02  0.51100000000E-03 0.  1.
        -12    1    3    3    0    0 -0.57207779932E+01 -0.32091309428E+01 -0.12784080180E+02  0.14368664806E+02  0.00000000000E+00 0.  1.
</event>
<event>
 7    1  0.3449603E-013  0.5930194E+02  0.7816164E-02  0.1266605E+00
        -11   -1    0    0    0    0  0.00000000000E+00  0.00000000000E+00  0.45593999997E+02  0.45594000000E+02  0.51100000000E-03 0.  1.
         11   -1    0    0    0    0 -0.00000000000E+00 -0.00000000000E+00 -0.45593999997E+02  0.45594000000E+02  0.51100000000E-03 0. -1.
    9900012    2    1    2    0    0  0.13381685008E+02 -0.83997114038E+01  0.27696496968E+02  0.59301943649E+02  0.49999999309E+02 0.  0.
         12    1    1    2    0    0 -0.13381685008E+02  0.83997114038E+01 -0.27696496968E+02  0.31886056351E+02  0.00000000000E+00 0. -1.
         11    1    3    3    0    0  0.47033906137E+01  0.67328558491E+00  0.73049865586E+01  0.87142426881E+01  0.51100000000E-03 0. -1.
        -11    1    3    3    0    0 -0.14098242825E+02 -0.21359683929E+01  0.22550524584E+02  0.26680497953E+02  0.51100000000E-03 0.  1.
         12    1    3    3    0    0  0.22776537220E+02 -0.69370285958E+01 -0.21590141747E+01  0.23907203008E+02  0.00000000000E+00 0. -1.
</event>
<event>
 7    1  0.3449603E-013  0.5930192E+02  0.7816164E-02  0.1266605E+00
        -11   -1    0    0    0    0  0.00000000000E+00  0.00000000000E+00  0.45593999997E+02  0.45594000000E+02  0.51100000000E-03 0.  1.
         11   -1    0    0    0    0 -0.00000000000E+00 -0.00000000000E+00 -0.45593999997E+02  0.45594000000E+02  0.51100000000E-03 0. -1.
    9900012    2    1    2    0    0 -0.12423670957E+02  0.14867779135E+02  0.25324371670E+02  0.59301917504E+02  0.49999951627E+02 0.  0.
         12    1    1    2    0    0  0.12423670957E+02 -0.14867779135E+02 -0.25324371670E+02  0.31886082496E+02  0.00000000000E+00 0. -1.
         11    1    3    3    0    0 -0.18118117370E+02 -0.56724430318E+01  0.10372590512E+02  0.21634080086E+02  0.51100000000E-03 0. -1.
        -11    1    3    3    0    0  0.86745379288E+01  0.98979898422E+01  0.21214247552E+02  0.24965218017E+02  0.51100000000E-03 0.  1.
         12    1    3    3    0    0 -0.29800915162E+01  0.10642232325E+02 -0.62624663937E+01  0.12702619400E+02  0.00000000000E+00 0. -1.
</event>
<event>
 7    1  0.3449603E-013  0.5930195E+02  0.7816164E-02  0.1266605E+00
        -11   -1    0    0    0    0  0.00000000000E+00  0.00000000000E+00  0.45593999997E+02  0.45594000000E+02  0.51100000000E-03 0.  1.
         11   -1    0    0    0    0 -0.00000000000E+00 -0.00000000000E+00 -0.45593999997E+02  0.45594000000E+02  0.51100000000E-03 0. -1.
    9900012    2    1    2    0    0  0.21182552764E+02 -0.64413112118E+01  0.22946222346E+02  0.59301950517E+02  0.50000011834E+02 0.  0.
         12    1    1    2    0    0 -0.21182552764E+02  0.64413112118E+01 -0.22946222346E+02  0.31886049483E+02  0.00000000000E+00 0. -1.
         11    1    3    3    0    0  0.22349611631E+02 -0.17172194794E+02  0.95617731152E+01  0.29762676618E+02  0.51100000000E-03 0. -1.
        -11    1    3    3    0    0  0.10230217314E+02  0.10427084143E+02  0.97898287847E+01  0.17584714326E+02  0.51100000000E-03 0.  1.
         12    1    3    3    0    0 -0.11397276181E+02  0.30379943897E+00  0.35946204457E+01  0.11954559573E+02  0.00000000000E+00 0. -1.
</event>
<event>
 7    1  0.3449603E-013  0.5930196E+02  0.7816164E-02  0.1266605E+00
        -11   -1    0    0    0    0  0.00000000000E+00  0.00000000000E+00  0.45593999997E+02  0.45594000000E+02  0.51100000000E-03 0.  1.
         11   -1    0    0    0    0 -0.00000000000E+00 -0.00000000000E+00 -0.45593999997E+02  0.45594000000E+02  0.51100000000E-03 0. -1.
    9900012    2    1    2    0    0 -0.23603036290E+02  0.21405949695E+02  0.11839121975E+01  0.59301958343E+02  0.50000026108E+02 0.  0.
         12    1    1    2    0    0  0.23603036290E+02 -0.21405949695E+02 -0.11839121975E+01  0.31886041657E+02  0.00000000000E+00 0. -1.
         11    1    3    3    0    0 -0.13214266965E+02 -0.12807736914E+02 -0.52231974825E+01  0.19129473816E+02  0.51100000000E-03 0. -1.
        -11    1    3    3    0    0 -0.79435168414E+01  0.88775651034E+01 -0.41519164429E+01  0.12615428347E+02  0.51100000000E-03 0.  1.
        -12    1    3    3    0    0 -0.24452524839E+01  0.25336121505E+02  0.10559026123E+02  0.27557056180E+02  0.00000000000E+00 0.  1.
</event>
<event>
 7    1  0.3449603E-013  0.5930192E+02  0.7816164E-02  0.1266605E+00
        -11   -1    0    0    0    0  0.00000000000E+00  0.00000000000E+00  0.45593999997E+02  0.45594000000E+02  0.51100000000E-03 0.  1.
         11   -1    0    0    0    0 -0.00000000000E+00 -0.00000000000E+00 -0.45593999997E+02  0.45594000000E+02  0.51100000000E-03 0. -1.
    9900012    2    1    2    0    0  0.22669636352E+02  0.13589135792E+02  0.17836616297E+02  0.59301923025E+02  0.49999961697E+02 0.  0.
         12    1    1    2    0    0 -0.22669636352E+02 -0.13589135792E+02 -0.17836616297E+02  0.31886076975E+02  0.00000000000E+00 0. -1.
         11    1    3    3    0    0  0.39769269216E+01  0.13088158479E+02  0.74166839730E+01  0.15560303388E+02  0.51100000000E-03 0. -1.
        -11    1    3    3    0    0  0.84588597745E+01  0.19258647063E+02  0.65122133789E+01  0.22019462272E+02  0.51100000000E-03 0.  1.
         12    1    3    3    0    0  0.10233849656E+02 -0.18757669750E+02  0.39077189453E+01  0.21722157365E+02  0.00000000000E+00 0. -1.
</event>
<event>
 7    1  0.3449603E-013  0.5930195E+02  0.7816164E-02  0.1266605E+00
        -11   -1    0    0    0    0  0.00000000000E+00  0.00000000000E+00  0.45593999997E+02  0.45594000000E+02  0.51100000000E-03 0. -1.
         11   -1    0    0    0    0 -0.00000000000E+00 -0.00000000000E+00 -0.45593999997E+02  0.45594000000E+02  0.51100000000E-03 0.  1.
    9900012    2    1    2    0    0 -0.20311570793E+02 -0.22799468066E+02 -0.91839394498E+01  0.59301946686E+02  0.50000004847E+02 0.  0.
         12    1    1    2    0    0  0.20311570793E+02  0.22799468066E+02  0.91839394498E+01  0.31886053314E+02  0.00000000000E+00 0. -1.
         11    1    3    3    0    0 -0.29965820403E+01  0.67705481816E+01  0.52872932004E+01  0.90980930008E+01  0.51100000000E-03 0. -1.
        -11    1    3    3    0    0 -0.54424176841E+01  0.74195297464E+01 -0.21623672275E+01  0.94522570952E+01  0.51100000000E-03 0.  1.
        -12    1    3    3    0    0 -0.11872571068E+02 -0.36989545994E+02 -0.12308865423E+02  0.40751596590E+02  0.00000000000E+00 0.  1.
</event>
<event>
 7    1  0.4585868E-013  0.5930194E+02  0.7816164E-02  0.1266605E+00
        -11   -1    0    0    0    0  0.00000000000E+00  0.00000000000E+00  0.45593999997E+02  0.45594000000E+02  0.51100000000E-03 0. -1.
         11   -1    0    0    0    0 -0.00000000000E+00 -0.00000000000E+00 -0.45593999997E+02  0.45594000000E+02  0.51100000000E-03 0.  1.
    9900012    2    1    2    0    0 -0.23089600910E+02 -0.21934456487E+02 -0.15719294795E+01  0.59301936997E+02  0.49999987178E+02 0.  0.
         12    1    1    2    0    0  0.23089600910E+02  0.21934456487E+02  0.15719294795E+01  0.31886063003E+02  0.00000000000E+00 0. -1.
         11    1    3    3    0    0  0.42801692857E+01 -0.54924327297E+01 -0.38386201016E+01  0.79512056287E+01  0.51100000000E-03 0. -1.
        -11    1    3    3    0    0 -0.44786587960E+01 -0.21129189646E+02 -0.11254033721E+02  0.24354759596E+02  0.51100000000E-03 0.  1.
         12    1    3    3    0    0 -0.22891111400E+02  0.46871658892E+01  0.13520724343E+02  0.26995971772E+02  0.00000000000E+00 0. -1.
</event>
<event>
 7    1  0.3449603E-013  0.5930194E+02  0.7816164E-02  0.1266605E+00
        -11   -1    0    0    0    0  0.00000000000E+00  0.00000000000E+00  0.45593999997E+02  0.45594000000E+02  0.51100000000E-03 0. -1.
         11   -1    0    0    0    0 -0.00000000000E+00 -0.00000000000E+00 -0.45593999997E+02  0.45594000000E+02  0.51100000000E-03 0.  1.
    9900012    2    1    2    0    0  0.17237252064E+01  0.12532596407E+01 -0.31814761021E+02  0.59301938670E+02  0.49999990229E+02 0.  0.
         12    1    1    2    0    0 -0.17237252064E+01 -0.12532596407E+01  0.31814761021E+02  0.31886061330E+02  0.00000000000E+00 0. -1.
         11    1    3    3    0    0  0.77041707930E+01  0.20715665615E+02 -0.19381583697E+02  0.29396238473E+02  0.51100000000E-03 0. -1.
        -11    1    3    3    0    0 -0.16279661288E+01  0.33920113299E+01 -0.29540260362E+01  0.47835431076E+01  0.51100000000E-03 0.  1.
         12    1    3    3    0    0 -0.43524794579E+01 -0.22854417304E+02 -0.94791512875E+01  0.25122157090E+02  0.00000000000E+00 0. -1.
</event>
<event>
 7    1  0.3449603E-013  0.5930196E+02  0.7816164E-02  0.1266605E+00
        -11   -1    0    0    0    0  0.00000000000E+00  0.00000000000E+00  0.45593999997E+02  0.45594000000E+02  0.51100000000E-03 0.  1.
         11   -1    0    0    0    0 -0.00000000000E+00 -0.00000000000E+00 -0.45593999997E+02  0.45594000000E+02  0.51100000000E-03 0. -1.
    9900012    2    1    2    0    0 -0.72950679388E+00 -0.31834122013E+02  0.16660661060E+01  0.59301964173E+02  0.50000036739E+02 0.  0.
         12    1    1    2    0    0  0.72950679388E+00  0.31834122013E+02 -0.16660661060E+01  0.31886035827E+02  0.00000000000E+00 0. -1.
         11    1    3    3    0    0 -0.83276393956E+01 -0.27187872436E+01 -0.10351564080E+02  0.13560835562E+02  0.51100000000E-03 0. -1.
        -11    1    3    3    0    0  0.15329166797E+02 -0.40974051944E+01 -0.20784083685E+01  0.16002870543E+02  0.51100000000E-03 0.  1.
        -12    1    3    3    0    0 -0.77310341951E+01 -0.25017929575E+02  0.14096038554E+02  0.29738258067E+02  0.00000000000E+00 0.  1.
</event>
<event>
 7    1  0.3449603E-013  0.5930192E+02  0.7816164E-02  0.1266605E+00
        -11   -1    0    0    0    0  0.00000000000E+00  0.00000000000E+00  0.45593999997E+02  0.45594000000E+02  0.51100000000E-03 0. -1.
         11   -1    0    0    0    0 -0.00000000000E+00 -0.00000000000E+00 -0.45593999997E+02  0.45594000000E+02  0.51100000000E-03 0.  1.
    9900012    2    1    2    0    0 -0.11829028595E+02 -0.11260128865E+02 -0.27386231010E+02  0.59301920459E+02  0.49999957016E+02 0.  0.
         12    1    1    2    0    0  0.11829028595E+02  0.11260128865E+02  0.27386231010E+02  0.31886079541E+02  0.00000000000E+00 0. -1.
         11    1    3    3    0    0  0.17178365463E+01  0.16329268517E+01  0.23568325773E+01  0.33424650427E+01  0.51100000000E-03 0. -1.
        -11    1    3    3    0    0 -0.24853328983E+02  0.41440751813E+01 -0.23814709002E+02  0.34669895958E+02  0.51100000000E-03 0.  1.
         12    1    3    3    0    0  0.11306463841E+02 -0.17037130898E+02 -0.59283545854E+01  0.21289559458E+02  0.00000000000E+00 0. -1.
</event>
<event>
 7    1  0.3449603E-013  0.5930195E+02  0.7816164E-02  0.1266605E+00
        -11   -1    0    0    0    0  0.00000000000E+00  0.00000000000E+00  0.45593999997E+02  0.45594000000E+02  0.51100000000E-03 0.  1.
         11   -1    0    0    0    0 -0.00000000000E+00 -0.00000000000E+00 -0.45593999997E+02  0.45594000000E+02  0.51100000000E-03 0. -1.
    9900012    2    1    2    0    0  0.73871740119E+01  0.24412735402E+02  0.19135525226E+02  0.59301947950E+02  0.50000007153E+02 0.  0.
         12    1    1    2    0    0 -0.73871740119E+01 -0.24412735402E+02 -0.19135525226E+02  0.31886052050E+02  0.00000000000E+00 0. -1.
         11    1    3    3    0    0  0.21296480827E+02  0.10499637504E+02  0.85913078113E+00  0.23759642028E+02  0.51100000000E-03 0. -1.
        -11    1    3    3    0    0  0.56593231104E-01 -0.27914072177E+01  0.12785902950E+02  0.13087187305E+02  0.51100000000E-03 0.  1.
        -12    1    3    3    0    0 -0.13965900046E+02  0.16704505115E+02  0.54904914946E+01  0.22455118617E+02  0.00000000000E+00 0.  1.
</event>
<event>
 7    1  0.3449603E-013  0.5930195E+02  0.7816164E-02  0.1266605E+00
        -11   -1    0    0    0    0  0.00000000000E+00  0.00000000000E+00  0.45593999997E+02  0.45594000000E+02  0.51100000000E-03 0.  1.
         11   -1    0    0    0    0 -0.00000000000E+00 -0.00000000000E+00 -0.45593999997E+02  0.45594000000E+02  0.51100000000E-03 0. -1.
    9900012    2    1    2    0    0 -0.69737620285E+01 -0.59424329367E+01  0.30541357646E+02  0.59301946734E+02  0.50000004935E+02 0.  0.
         12    1    1    2    0    0  0.69737620285E+01  0.59424329367E+01 -0.30541357646E+02  0.31886053266E+02  0.00000000000E+00 0. -1.
         11    1    3    3    0    0 -0.54977298251E+01 -0.17848682509E+02  0.13196435374E+01  0.18722765817E+02  0.51100000000E-03 0. -1.
        -11    1    3    3    0    0  0.15993699229E+00 -0.64530773434E+01  0.17704872411E+02  0.18844901018E+02  0.51100000000E-03 0.  1.
         12    1    3    3    0    0 -0.16359691957E+01  0.18359326915E+02  0.11516841698E+02  0.21734279898E+02  0.00000000000E+00 0. -1.
</event>
<event>
 7    1  0.3449603E-013  0.5930194E+02  0.7816164E-02  0.1266605E+00
        -11   -1    0    0    0    0  0.00000000000E+00  0.00000000000E+00  0.45593999997E+02  0.45594000000E+02  0.51100000000E-03 0.  1.
         11   -1    0    0    0    0 -0.00000000000E+00 -0.00000000000E+00 -0.45593999997E+02  0.45594000000E+02  0.51100000000E-03 0. -1.
    9900012    2    1    2    0    0  0.23954698686E+01 -0.13519829603E+02  0.28778406573E+02  0.59301941083E+02  0.49999994629E+02 0.  0.
         12    1    1    2    0    0 -0.23954698686E+01  0.13519829603E+02 -0.28778406573E+02  0.31886058917E+02  0.00000000000E+00 0. -1.
         11    1    3    3    0    0  0.17674805119E+02 -0.30786131605E+01  0.54758963677E+01  0.18757985934E+02  0.51100000000E-03 0. -1.
        -11    1    3    3    0    0 -0.40670665233E+01 -0.18746995852E+02  0.14489597045E+02  0.24040368266E+02  0.51100000000E-03 0.  1.
         12    1    3    3    0    0 -0.11212268727E+02  0.83057794099E+01  0.88129131607E+01  0.16503586883E+02  0.00000000000E+00 0. -1.
</event>
<event>
 7    1  0.3449603E-013  0.5930196E+02  0.7816164E-02  0.1266605E+00
        -11   -1    0    0    0    0  0.00000000000E+00  0.00000000000E+00  0.45593999997E+02  0.45594000000E+02  0.51100000000E-03 0.  1.
         11   -1    0    0    0    0 -0.00000000000E+00 -0.00000000000E+00 -0.45593999997E+02  0.45594000000E+02  0.51100000000E-03 0. -1.
    9900012    2    1    2    0    0  0.19222471314E+02 -0.23429496064E+01  0.25332319908E+02  0.59301964683E+02  0.50000037671E+02 0.  0.
         12    1    1    2    0    0 -0.19222471314E+02  0.23429496064E+01 -0.25332319908E+02  0.31886035317E+02  0.00000000000E+00 0. -1.
         11    1    3    3    0    0  0.15704201600E+02 -0.16900797913E+02  0.24107379694E+02  0.33368018730E+02  0.51100000000E-03 0. -1.
        -11    1    3    3    0    0  0.35316314908E+01 -0.33453382675E+01 -0.50033286389E+01  0.69783240711E+01  0.51100000000E-03 0.  1.
         12    1    3    3    0    0 -0.13361776236E-01  0.17903186574E+02  0.62282688534E+01  0.18955621882E+02  0.00000000000E+00 0. -1.
</event>
<event>
 7    1  0.3449603E-013  0.5930199E+02  0.7816164E-02  0.1266605E+00
        -11   -1    0    0    0    0  0.00000000000E+00  0.00000000000E+00  0.45593999997E+02  0.45594000000E+02  0.51100000000E-03 0.  1.
         11   -1    0    0    0    0 -0.00000000000E+00 -0.00000000000E+00 -0.45593999997E+02  0.45594000000E+02  0.51100000000E-03 0. -1.
    9900012    2    1    2    0    0  0.20246124139E+02  0.21355944709E+02  0.12277435649E+02  0.59301994556E+02  0.50000092151E+02 0.  0.
         12    1    1    2    0    0 -0.20246124139E+02 -0.21355944709E+02 -0.12277435649E+02  0.31886005444E+02  0.00000000000E+00 0. -1.
         11    1    3    3    0    0  0.18064434056E+02  0.27025971675E+01  0.57685844529E+01  0.19154748134E+02  0.51100000000E-03 0. -1.
        -11    1    3    3    0    0 -0.35389423799E+01 -0.87313095711E+01  0.76681462933E+01  0.12147442028E+02  0.51100000000E-03 0.  1.
        -12    1    3    3    0    0  0.57206324633E+01  0.27384657113E+02 -0.11592950972E+01  0.27999804394E+02  0.00000000000E+00 0.  1.
</event>
<event>
 7    1  0.3449603E-013  0.5930196E+02  0.7816164E-02  0.1266605E+00
        -11   -1    0    0    0    0  0.00000000000E+00  0.00000000000E+00  0.45593999997E+02  0.45594000000E+02  0.51100000000E-03 0.  1.
         11   -1    0    0    0    0 -0.00000000000E+00 -0.00000000000E+00 -0.45593999997E+02  0.45594000000E+02  0.51100000000E-03 0. -1.
    9900012    2    1    2    0    0  0.92965807594E+01 -0.29862090329E+02  0.62087590722E+01  0.59301960079E+02  0.50000029274E+02 0.  0.
         12    1    1    2    0    0 -0.92965807594E+01  0.29862090329E+02 -0.62087590722E+01  0.31886039921E+02  0.00000000000E+00 0. -1.
         11    1    3    3    0    0 -0.98826219061E+00 -0.86900878387E+01 -0.15225113223E+02  0.17558427085E+02  0.51100000000E-03 0. -1.
        -11    1    3    3    0    0  0.13061470515E+02 -0.17563029410E+02  0.22226580544E+01  0.22000050526E+02  0.51100000000E-03 0.  1.
        -12    1    3    3    0    0 -0.27766275649E+01 -0.36089730804E+01  0.19211214241E+02  0.19743482467E+02  0.00000000000E+00 0.  1.
</event>
<event>
 7    1  0.3449603E-013  0.5930195E+02  0.7816164E-02  0.1266605E+00
        -11   -1    0    0    0    0  0.00000000000E+00  0.00000000000E+00  0.45593999997E+02  0.45594000000E+02  0.51100000000E-03 0. -1.
         11   -1    0    0    0    0 -0.00000000000E+00 -0.00000000000E+00 -0.45593999997E+02  0.45594000000E+02  0.51100000000E-03 0.  1.
    9900012    2    1    2    0    0 -0.28303530416E+01  0.17344644045E+02 -0.26605877821E+02  0.59301948034E+02  0.50000007306E+02 0.  0.
         12    1    1    2    0    0  0.28303530416E+01 -0.17344644045E+02  0.26605877821E+02  0.31886051966E+02  0.00000000000E+00 0. -1.
         11    1    3    3    0    0 -0.13270052787E+02 -0.27295975082E+01 -0.14042238056E+01  0.13620456977E+02  0.51100000000E-03 0. -1.
        -11    1    3    3    0    0  0.11432055071E+01  0.20937835721E+01 -0.25327420013E+02  0.25439517551E+02  0.51100000000E-03 0.  1.
        -12    1    3    3    0    0  0.92964942378E+01  0.17980457981E+02  0.12576599734E+00  0.20241973505E+02  0.00000000000E+00 0.  1.
</event>
<event>
 7    1  0.3449603E-013  0.5930202E+02  0.7816164E-02  0.1266604E+00
        -11   -1    0    0    0    0  0.00000000000E+00  0.00000000000E+00  0.45593999997E+02  0.45594000000E+02  0.51100000000E-03 0. -1.
         11   -1    0    0    0    0 -0.00000000000E+00 -0.00000000000E+00 -0.45593999997E+02  0.45594000000E+02  0.51100000000E-03 0.  1.
    9900012    2    1    2    0    0  0.14577377074E+01  0.31652798427E+02 -0.35624272961E+01  0.59302022898E+02  0.50000143841E+02 0.  0.
         12    1    1    2    0    0 -0.14577377074E+01 -0.31652798427E+02  0.35624272961E+01  0.31885977102E+02  0.00000000000E+00 0. -1.
         11    1    3    3    0    0 -0.11353761755E+02 -0.20276770015E+01 -0.66529790345E+01  0.13314710298E+02  0.51100000000E-03 0. -1.
        -11    1    3    3    0    0 -0.27454049860E+01 -0.38144869142E+01 -0.19364129089E+01  0.50830359206E+01  0.51100000000E-03 0.  1.
        -12    1    3    3    0    0  0.15556904449E+02  0.37494962343E+02  0.50269646473E+01  0.40904276680E+02  0.00000000000E+00 0.  1.
</event>
<event>
 7    1  0.3449603E-013  0.5930207E+02  0.7816164E-02  0.1266604E+00
        -11   -1    0    0    0    0  0.00000000000E+00  0.00000000000E+00  0.45593999997E+02  0.45594000000E+02  0.51100000000E-03 0.  1.
         11   -1    0    0    0    0 -0.00000000000E+00 -0.00000000000E+00 -0.45593999997E+02  0.45594000000E+02  0.51100000000E-03 0. -1.
    9900012    2    1    2    0    0 -0.28381144375E+02 -0.68846078395E+01  0.12799421608E+02  0.59302072466E+02  0.50000234241E+02 0.  0.
         12    1    1    2    0    0  0.28381144375E+02  0.68846078395E+01 -0.12799421608E+02  0.31885927534E+02  0.00000000000E+00 0. -1.
         11    1    3    3    0    0  0.48247183899E+00 -0.53570956599E+01  0.11010072345E+02  0.12253691129E+02  0.51100000000E-03 0. -1.
        -11    1    3    3    0    0 -0.20316967545E+02  0.12279677954E+02  0.13236864326E+02  0.27180585688E+02  0.51100000000E-03 0.  1.
        -12    1    3    3    0    0 -0.85466486695E+01 -0.13807190134E+02 -0.11447515062E+02  0.19867795650E+02  0.00000000000E+00 0.  1.
</event>
<event>
 7    1  0.3449603E-013  0.5930191E+02  0.7816164E-02  0.1266605E+00
        -11   -1    0    0    0    0  0.00000000000E+00  0.00000000000E+00  0.45593999997E+02  0.45594000000E+02  0.51100000000E-03 0.  1.
         11   -1    0    0    0    0 -0.00000000000E+00 -0.00000000000E+00 -0.45593999997E+02  0.45594000000E+02  0.51100000000E-03 0. -1.
    9900012    2    1    2    0    0  0.53309724146E+01  0.12647667504E+02  0.28780897518E+02  0.59301908642E+02  0.49999935465E+02 0.  0.
         12    1    1    2    0    0 -0.53309724146E+01 -0.12647667504E+02 -0.28780897518E+02  0.31886091358E+02  0.00000000000E+00 0. -1.
         11    1    3    3    0    0 -0.79987333037E+01  0.32905684350E+01  0.37827031279E+00  0.86574051413E+01  0.51100000000E-03 0. -1.
        -11    1    3    3    0    0  0.50447592411E+00  0.19672805666E+02  0.23373627900E+01  0.19817594300E+02  0.51100000000E-03 0.  1.
         12    1    3    3    0    0  0.12825229794E+02 -0.10315706597E+02  0.26065264415E+02  0.30826909201E+02  0.00000000000E+00 0. -1.
</event>
<event>
 7    1  0.3449603E-013  0.5930192E+02  0.7816164E-02  0.1266605E+00
        -11   -1    0    0    0    0  0.00000000000E+00  0.00000000000E+00  0.45593999997E+02  0.45594000000E+02  0.51100000000E-03 0.  1.
         11   -1    0    0    0    0 -0.00000000000E+00 -0.00000000000E+00 -0.45593999997E+02  0.45594000000E+02  0.51100000000E-03 0. -1.
    9900012    2    1    2    0    0  0.29837056839E+02  0.46157203920E+01  0.10255121127E+02  0.59301916125E+02  0.49999949112E+02 0.  0.
         12    1    1    2    0    0 -0.29837056839E+02 -0.46157203920E+01 -0.10255121127E+02  0.31886083875E+02  0.00000000000E+00 0. -1.
         11    1    3    3    0    0 -0.95796943783E+01 -0.51848119311E+01 -0.45615153339E+01  0.11809328581E+02  0.51100000000E-03 0. -1.
        -11    1    3    3    0    0  0.63692027096E+01 -0.24619612326E+01  0.97169934683E+01  0.11876361336E+02  0.51100000000E-03 0.  1.
        -12    1    3    3    0    0  0.33047548508E+02  0.12262493556E+02  0.50996429929E+01  0.35616226207E+02  0.00000000000E+00 0.  1.
</event>
<event>
 7    1  0.3449603E-013  0.5930206E+02  0.7816164E-02  0.1266604E+00
        -11   -1    0    0    0    0  0.00000000000E+00  0.00000000000E+00  0.45593999997E+02  0.45594000000E+02  0.51100000000E-03 0.  1.
         11   -1    0    0    0    0 -0.00000000000E+00 -0.00000000000E+00 -0.45593999997E+02  0.45594000000E+02  0.51100000000E-03 0. -1.
    9900012    2    1    2    0    0  0.13675713032E+02 -0.27730930921E+02  0.77899445792E+01  0.59302064335E+02  0.50000219411E+02 0.  0.
         12    1    1    2    0    0 -0.13675713032E+02  0.27730930921E+02 -0.77899445792E+01  0.31885935665E+02  0.00000000000E+00 0. -1.
         11    1    3    3    0    0  0.19308254503E+02 -0.49827922025E+01  0.67805545281E+01  0.21062118366E+02  0.51100000000E-03 0. -1.
        -11    1    3    3    0    0  0.29848931616E+01 -0.45926176657E+01  0.13506125865E+02  0.14574538084E+02  0.51100000000E-03 0.  1.
         12    1    3    3    0    0 -0.86174346325E+01 -0.18155521053E+02 -0.12496735814E+02  0.23665407885E+02  0.00000000000E+00 0. -1.
</event>
<event>
 7    1  0.3449603E-013  0.5930190E+02  0.7816164E-02  0.1266605E+00
        -11   -1    0    0    0    0  0.00000000000E+00  0.00000000000E+00  0.45593999997E+02  0.45594000000E+02  0.51100000000E-03 0.  1.
         11   -1    0    0    0    0 -0.00000000000E+00 -0.00000000000E+00 -0.45593999997E+02  0.45594000000E+02  0.51100000000E-03 0. -1.
    9900012    2    1    2    0    0  0.14495458421E+02 -0.24471167137E+02  0.14414133409E+02  0.59301896792E+02  0.49999913853E+02 0.  0.
         12    1    1    2    0    0 -0.14495458421E+02  0.24471167137E+02 -0.14414133409E+02  0.31886103208E+02  0.00000000000E+00 0. -1.
         11    1    3    3    0    0  0.17080174393E+02  0.15664908505E+01  0.10792493858E+02  0.20264850723E+02  0.51100000000E-03 0.  1.
        -11    1    3    3    0    0  0.39483972379E+01  0.53195696736E+01  0.21792851226E+01  0.69740193696E+01  0.51100000000E-03 0. -1.
         12    1    3    3    0    0 -0.65331132101E+01 -0.31357227661E+02  0.14423544284E+01  0.32063026699E+02  0.00000000000E+00 0. -1.
</event>
<event>
 7    1  0.3449603E-013  0.5930199E+02  0.7816164E-02  0.1266605E+00
        -11   -1    0    0    0    0  0.00000000000E+00  0.00000000000E+00  0.45593999997E+02  0.45594000000E+02  0.51100000000E-03 0. -1.
         11   -1    0    0    0    0 -0.00000000000E+00 -0.00000000000E+00 -0.45593999997E+02  0.45594000000E+02  0.51100000000E-03 0.  1.
    9900012    2    1    2    0    0  0.18871923449E+02 -0.18671286732E+02 -0.17662143671E+02  0.59301987989E+02  0.50000080175E+02 0.  0.
         12    1    1    2    0    0 -0.18871923449E+02  0.18671286732E+02  0.17662143671E+02  0.31886012011E+02  0.00000000000E+00 0. -1.
         11    1    3    3    0    0  0.56330011655E+01  0.57708125593E+01  0.15097720781E+00  0.80657159697E+01  0.51100000000E-03 0. -1.
        -11    1    3    3    0    0  0.23703182779E+02 -0.12799095789E+02 -0.22279039079E+02  0.34957306953E+02  0.51100000000E-03 0.  1.
        -12    1    3    3    0    0 -0.10464260496E+02 -0.11643003502E+02  0.44659181996E+01  0.16278965066E+02  0.00000000000E+00 0.  1.
</event>
<event>
 7    1  0.3449603E-013  0.5930197E+02  0.7816164E-02  0.1266605E+00
        -11   -1    0    0    0    0  0.00000000000E+00  0.00000000000E+00  0.45593999997E+02  0.45594000000E+02  0.51100000000E-03 0.  1.
         11   -1    0    0    0    0 -0.00000000000E+00 -0.00000000000E+00 -0.45593999997E+02  0.45594000000E+02  0.51100000000E-03 0. -1.
    9900012    2    1    2    0    0 -0.17978860198E+02 -0.25908488388E+02  0.47148239590E+01  0.59301972504E+02  0.50000051933E+02 0.  0.
         12    1    1    2    0    0  0.17978860198E+02  0.25908488388E+02 -0.47148239590E+01  0.31886027496E+02  0.00000000000E+00 0. -1.
         11    1    3    3    0    0  0.10259146298E+02 -0.34818244496E+01 -0.41148734514E+01  0.11589019287E+02  0.51100000000E-03 0. -1.
        -11    1    3    3    0    0  0.33264625792E+01 -0.20215035518E+01  0.93454473211E+01  0.10123695758E+02  0.51100000000E-03 0.  1.
        -12    1    3    3    0    0 -0.31564469075E+02 -0.20405160386E+02 -0.51574991069E+00  0.37589257459E+02  0.00000000000E+00 0.  1.
</event>
<event>
 7    1  0.3449603E-013  0.5930192E+02  0.7816164E-02  0.1266605E+00
        -11   -1    0    0    0    0  0.00000000000E+00  0.00000000000E+00  0.45593999997E+02  0.45594000000E+02  0.51100000000E-03 0. -1.
         11   -1    0    0    0    0 -0.00000000000E+00 -0.00000000000E+00 -0.45593999997E+02  0.45594000000E+02  0.51100000000E-03 0.  1.
    9900012    2    1    2    0    0  0.30037933903E+02 -0.42310543961E+01 -0.98256233443E+01  0.59301918889E+02  0.49999954154E+02 0.  0.
         12    1    1    2    0    0 -0.30037933903E+02  0.42310543961E+01  0.98256233443E+01  0.31886081111E+02  0.00000000000E+00 0. -1.
         11    1    3    3    0    0  0.13548183876E+02  0.17643257920E+01  0.94190993364E+01  0.16594745084E+02  0.51100000000E-03 0. -1.
        -11    1    3    3    0    0  0.21204398823E+00 -0.14529381945E+02  0.19413338803E+01  0.14660036830E+02  0.51100000000E-03 0.  1.
        -12    1    3    3    0    0  0.16277706039E+02  0.85340017573E+01 -0.21186056561E+02  0.28047136975E+02  0.00000000000E+00 0.  1.
</event>
<event>
 7    1  0.3449603E-013  0.5930195E+02  0.7816164E-02  0.1266605E+00
        -11   -1    0    0    0    0  0.00000000000E+00  0.00000000000E+00  0.45593999997E+02  0.45594000000E+02  0.51100000000E-03 0.  1.
         11   -1    0    0    0    0 -0.00000000000E+00 -0.00000000000E+00 -0.45593999997E+02  0.45594000000E+02  0.51100000000E-03 0. -1.
    9900012    2    1    2    0    0 -0.14872525557E+02  0.24476817417E+02  0.14014755633E+02  0.59301953165E+02  0.50000016665E+02 0.  0.
         12    1    1    2    0    0  0.14872525557E+02 -0.24476817417E+02 -0.14014755633E+02  0.31886046835E+02  0.00000000000E+00 0. -1.
         11    1    3    3    0    0  0.40220406543E+01 -0.70007839607E+01  0.77652056449E+01  0.11202062581E+02  0.51100000000E-03 0. -1.
        -11    1    3    3    0    0  0.54422552722E+01  0.27238984095E+01 -0.59422272989E+01  0.85057527901E+01  0.51100000000E-03 0.  1.
        -12    1    3    3    0    0 -0.24336821483E+02  0.28753702968E+02  0.12191777287E+02  0.39594137795E+02  0.00000000000E+00 0.  1.
</event>
<event>
 7    1  0.3449603E-013  0.5930195E+02  0.7816164E-02  0.1266605E+00
        -11   -1    0    0    0    0  0.00000000000E+00  0.00000000000E+00  0.45593999997E+02  0.45594000000E+02  0.51100000000E-03 0.  1.
         11   -1    0    0    0    0 -0.00000000000E+00 -0.00000000000E+00 -0.45593999997E+02  0.45594000000E+02  0.51100000000E-03 0. -1.
    9900012    2    1    2    0    0 -0.19808708085E+02 -0.22309695585E+02 -0.11252233014E+02  0.59301950059E+02  0.50000010999E+02 0.  0.
         12    1    1    2    0    0  0.19808708085E+02  0.22309695585E+02  0.11252233014E+02  0.31886049941E+02  0.00000000000E+00 0. -1.
         11    1    3    3    0    0  0.68498487657E+01  0.59975494406E+01 -0.92237195006E+01  0.12960248034E+02  0.51100000000E-03 0. -1.
        -11    1    3    3    0    0  0.44528434783E+00  0.34001786222E+01 -0.30887460101E+01  0.46151755101E+01  0.51100000000E-03 0.  1.
        -12    1    3    3    0    0 -0.27103841198E+02 -0.31707423647E+02  0.10602324967E+01  0.41726526515E+02  0.00000000000E+00 0.  1.
</event>
<event>
 7    1  0.3449603E-013  0.5930201E+02  0.7816164E-02  0.1266605E+00
        -11   -1    0    0    0    0  0.00000000000E+00  0.00000000000E+00  0.45593999997E+02  0.45594000000E+02  0.51100000000E-03 0.  1.
         11   -1    0    0    0    0 -0.00000000000E+00 -0.00000000000E+00 -0.45593999997E+02  0.45594000000E+02  0.51100000000E-03 0. -1.
    9900012    2    1    2    0    0  0.54152763250E+00  0.10648785720E+01  0.31863599833E+02  0.59302012280E+02  0.50000124476E+02 0.  0.
         12    1    1    2    0    0 -0.54152763250E+00 -0.10648785720E+01 -0.31863599833E+02  0.31885987720E+02  0.00000000000E+00 0. -1.
         11    1    3    3    0    0  0.33300890047E+01  0.14961245580E+01 -0.10328262344E+02  0.10954491534E+02  0.51100000000E-03 0. -1.
        -11    1    3    3    0    0 -0.11749274123E+02 -0.13571877031E+01  0.12034968065E+02  0.16873880925E+02  0.51100000000E-03 0.  1.
        -12    1    3    3    0    0  0.89607127508E+01  0.92594171706E+00  0.30156894112E+02  0.31473639821E+02  0.00000000000E+00 0.  1.
</event>
<event>
 7    1  0.3449603E-013  0.5930197E+02  0.7816164E-02  0.1266605E+00
        -11   -1    0    0    0    0  0.00000000000E+00  0.00000000000E+00  0.45593999997E+02  0.45594000000E+02  0.51100000000E-03 0. -1.
         11   -1    0    0    0    0 -0.00000000000E+00 -0.00000000000E+00 -0.45593999997E+02  0.45594000000E+02  0.51100000000E-03 0.  1.
    9900012    2    1    2    0    0  0.20271223962E+02  0.19748132112E+02  0.14690397381E+02  0.59301968292E+02  0.50000044253E+02 0.  0.
         12    1    1    2    0    0 -0.20271223962E+02 -0.19748132112E+02 -0.14690397381E+02  0.31886031708E+02  0.00000000000E+00 0. -1.
         11    1    3    3    0    0  0.53667261684E+00 -0.89528841144E+00  0.16437213169E+01  0.19471463391E+01  0.51100000000E-03 0. -1.
        -11    1    3    3    0    0 -0.82683633592E+01 -0.10866616353E+02  0.41483865721E+01  0.14270889776E+02  0.51100000000E-03 0.  1.
        -12    1    3    3    0    0  0.28002914704E+02  0.31510036877E+02  0.88982894924E+01  0.43083932177E+02  0.00000000000E+00 0.  1.
</event>
<event>
 7    1  0.3449603E-013  0.5930195E+02  0.7816164E-02  0.1266605E+00
        -11   -1    0    0    0    0  0.00000000000E+00  0.00000000000E+00  0.45593999997E+02  0.45594000000E+02  0.51100000000E-03 0.  1.
         11   -1    0    0    0    0 -0.00000000000E+00 -0.00000000000E+00 -0.45593999997E+02  0.45594000000E+02  0.51100000000E-03 0. -1.
    9900012    2    1    2    0    0  0.55753491233E+01 -0.13690274501E+02  0.28252652083E+02  0.59301945313E+02  0.50000002345E+02 0.  0.
         12    1    1    2    0    0 -0.55753491233E+01  0.13690274501E+02 -0.28252652083E+02  0.31886054687E+02  0.00000000000E+00 0. -1.
         11    1    3    3    0    0  0.17568617945E+01 -0.13571438527E+02  0.61922752857E+01  0.15020478705E+02  0.51100000000E-03 0. -1.
        -11    1    3    3    0    0  0.86930464826E+01 -0.15299728772E+02  0.67940584368E+00  0.17610007104E+02  0.51100000000E-03 0.  1.
         12    1    3    3    0    0 -0.48745591538E+01  0.15180892799E+02  0.21380970954E+02  0.26671459504E+02  0.00000000000E+00 0. -1.
</event>
<event>
 7    1  0.3449603E-013  0.5930203E+02  0.7816164E-02  0.1266604E+00
        -11   -1    0    0    0    0  0.00000000000E+00  0.00000000000E+00  0.45593999997E+02  0.45594000000E+02  0.51100000000E-03 0. -1.
         11   -1    0    0    0    0 -0.00000000000E+00 -0.00000000000E+00 -0.45593999997E+02  0.45594000000E+02  0.51100000000E-03 0.  1.
    9900012    2    1    2    0    0  0.16469960672E+02 -0.16597564854E+02 -0.21678943751E+02  0.59302025563E+02  0.50000148701E+02 0.  0.
         12    1    1    2    0    0 -0.16469960672E+02  0.16597564854E+02  0.21678943751E+02  0.31885974437E+02  0.00000000000E+00 0. -1.
         11    1    3    3    0    0  0.11588805389E+01  0.12393094180E+01  0.10401580519E+02  0.10539059232E+02  0.51100000000E-03 0. -1.
        -11    1    3    3    0    0  0.20723314393E+02 -0.14403716482E+02 -0.12506254572E+02  0.28166100398E+02  0.51100000000E-03 0.  1.
        -12    1    3    3    0    0 -0.54122342605E+01 -0.34331577898E+01 -0.19574269697E+02  0.20596865934E+02  0.00000000000E+00 0.  1.
</event>
<event>
 7    1  0.3449603E-013  0.5930200E+02  0.7816164E-02  0.1266605E+00
        -11   -1    0    0    0    0  0.00000000000E+00  0.00000000000E+00  0.45593999997E+02  0.45594000000E+02  0.51100000000E-03 0. -1.
         11   -1    0    0    0    0 -0.00000000000E+00 -0.00000000000E+00 -0.45593999997E+02  0.45594000000E+02  0.51100000000E-03 0.  1.
    9900012    2    1    2    0    0 -0.23114564206E+02  0.20830786972E+02  0.69650620510E+01  0.59302002232E+02  0.50000106151E+02 0.  0.
         12    1    1    2    0    0  0.23114564206E+02 -0.20830786972E+02 -0.69650620510E+01  0.31885997768E+02  0.00000000000E+00 0. -1.
         11    1    3    3    0    0 -0.59170115480E+01  0.19556678648E+02  0.34207209879E+01  0.20716564333E+02  0.51100000000E-03 0. -1.
        -11    1    3    3    0    0 -0.20146505949E+01  0.15925472050E+02  0.64247589441E+01  0.17290373183E+02  0.51100000000E-03 0.  1.
         12    1    3    3    0    0 -0.15182902063E+02 -0.14651363727E+02 -0.28804178810E+01  0.21295064716E+02  0.00000000000E+00 0. -1.
</event>
<event>
 7    1  0.3449603E-013  0.5930192E+02  0.7816164E-02  0.1266605E+00
        -11   -1    0    0    0    0  0.00000000000E+00  0.00000000000E+00  0.45593999997E+02  0.45594000000E+02  0.51100000000E-03 0.  1.
         11   -1    0    0    0    0 -0.00000000000E+00 -0.00000000000E+00 -0.45593999997E+02  0.45594000000E+02  0.51100000000E-03 0. -1.
    9900012    2    1    2    0    0  0.29864653224E+01 -0.12431969688E+01  0.31721559824E+02  0.59301923548E+02  0.49999962650E+02 0.  0.
         12    1    1    2    0    0 -0.29864653224E+01  0.12431969688E+01 -0.31721559824E+02  0.31886076452E+02  0.00000000000E+00 0. -1.
         11    1    3    3    0    0 -0.13390448397E+02 -0.11023453943E+02  0.51186733841E+01  0.18083734752E+02  0.51100000000E-03 0. -1.
        -11    1    3    3    0    0  0.47804676137E+01  0.95272045056E+01 -0.15481634108E+01  0.10771133019E+02  0.51100000000E-03 0.  1.
        -12    1    3    3    0    0  0.11596446105E+02  0.25305246853E+00  0.28151049851E+02  0.30447055778E+02  0.00000000000E+00 0.  1.
</event>
<event>
 7    1  0.3449603E-013  0.5930197E+02  0.7816164E-02  0.1266605E+00
        -11   -1    0    0    0    0  0.00000000000E+00  0.00000000000E+00  0.45593999997E+02  0.45594000000E+02  0.51100000000E-03 0. -1.
         11   -1    0    0    0    0 -0.00000000000E+00 -0.00000000000E+00 -0.45593999997E+02  0.45594000000E+02  0.51100000000E-03 0.  1.
    9900012    2    1    2    0    0 -0.68287318942E+01 -0.28917252740E+02 -0.11570657551E+02  0.59301965417E+02  0.50000039008E+02 0.  0.
         12    1    1    2    0    0  0.68287318942E+01  0.28917252740E+02  0.11570657551E+02  0.31886034583E+02  0.00000000000E+00 0. -1.
         11    1    3    3    0    0  0.86195907208E+01  0.60881791784E+01 -0.25934741260E+00  0.10556066087E+02  0.51100000000E-03 0. -1.
        -11    1    3    3    0    0 -0.95739821895E+00 -0.26869228437E+02 -0.16241613525E+02  0.31411177282E+02  0.51100000000E-03 0.  1.
        -12    1    3    3    0    0 -0.14490924396E+02 -0.81362034817E+01  0.49303033866E+01  0.17334722047E+02  0.00000000000E+00 0.  1.
</event>
<event>
 7    1  0.3449603E-013  0.5930190E+02  0.7816164E-02  0.1266605E+00
        -11   -1    0    0    0    0  0.00000000000E+00  0.00000000000E+00  0.45593999997E+02  0.45594000000E+02  0.51100000000E-03 0.  1.
         11   -1    0    0    0    0 -0.00000000000E+00 -0.00000000000E+00 -0.45593999997E+02  0.45594000000E+02  0.51100000000E-03 0. -1.
    9900012    2    1    2    0    0 -0.34908844571E+01  0.47228752701E+01  0.31340577745E+02  0.59301895841E+02  0.49999912118E+02 0.  0.
         12    1    1    2    0    0  0.34908844571E+01 -0.47228752701E+01 -0.31340577745E+02  0.31886104159E+02  0.00000000000E+00 0. -1.
         11    1    3    3    0    0  0.34348883117E+01  0.74994771620E+01 -0.71420985415E+00  0.82795356992E+01  0.51100000000E-03 0. -1.
        -11    1    3    3    0    0  0.14196767651E+02 -0.13357003010E+01  0.24864357507E+02  0.28663017663E+02  0.51100000000E-03 0.  1.
         12    1    3    3    0    0 -0.21122540420E+02 -0.14409015909E+01  0.71904300914E+01  0.22359342479E+02  0.00000000000E+00 0. -1.
</event>
<event>
 7    1  0.3449603E-013  0.5930194E+02  0.7816164E-02  0.1266605E+00
        -11   -1    0    0    0    0  0.00000000000E+00  0.00000000000E+00  0.45593999997E+02  0.45594000000E+02  0.51100000000E-03 0.  1.
         11   -1    0    0    0    0 -0.00000000000E+00 -0.00000000000E+00 -0.45593999997E+02  0.45594000000E+02  0.51100000000E-03 0. -1.
    9900012    2    1    2    0    0 -0.28119514188E+02 -0.67288660926E+01  0.13443801857E+02  0.59301944656E+02  0.50000001146E+02 0.  0.
         12    1    1    2    0    0  0.28119514188E+02  0.67288660926E+01 -0.13443801857E+02  0.31886055344E+02  0.00000000000E+00 0. -1.
         11    1    3    3    0    0 -0.18471470129E+02 -0.48618671799E+01  0.25632167645E+01  0.19271819884E+02  0.51100000000E-03 0. -1.
        -11    1    3    3    0    0 -0.79264499002E+01 -0.19354529083E+02  0.50474642708E+01  0.21515187656E+02  0.51100000000E-03 0.  1.
        -12    1    3    3    0    0 -0.17215941582E+01  0.17487530170E+02  0.58331208215E+01  0.18514937116E+02  0.00000000000E+00 0.  1.
</event>
<event>
 7    1  0.3449603E-013  0.5930194E+02  0.7816164E-02  0.1266605E+00
        -11   -1    0    0    0    0  0.00000000000E+00  0.00000000000E+00  0.45593999997E+02  0.45594000000E+02  0.51100000000E-03 0.  1.
         11   -1    0    0    0    0 -0.00000000000E+00 -0.00000000000E+00 -0.45593999997E+02  0.45594000000E+02  0.51100000000E-03 0. -1.
    9900012    2    1    2    0    0  0.64531830496E+01  0.16142244568E+02  0.26730231985E+02  0.59301938263E+02  0.49999989486E+02 0.  0.
         12    1    1    2    0    0 -0.64531830496E+01 -0.16142244568E+02 -0.26730231985E+02  0.31886061737E+02  0.00000000000E+00 0. -1.
         11    1    3    3    0    0 -0.18382765362E+01  0.30872363169E+01  0.23548949406E+00  0.36007977259E+01  0.51100000000E-03 0. -1.
        -11    1    3    3    0    0 -0.56982908562E+01  0.27837298868E+02  0.12762714629E+02  0.31149199218E+02  0.51100000000E-03 0.  1.
        -12    1    3    3    0    0  0.13989750442E+02 -0.14782290617E+02  0.13732027861E+02  0.24551941319E+02  0.00000000000E+00 0.  1.
</event>
<event>
 7    1  0.3449603E-013  0.5930192E+02  0.7816164E-02  0.1266605E+00
        -11   -1    0    0    0    0  0.00000000000E+00  0.00000000000E+00  0.45593999997E+02  0.45594000000E+02  0.51100000000E-03 0. -1.
         11   -1    0    0    0    0 -0.00000000000E+00 -0.00000000000E+00 -0.45593999997E+02  0.45594000000E+02  0.51100000000E-03 0.  1.
    9900012    2    1    2    0    0  0.29963033839E+02  0.26928514928E+01 -0.10568231647E+02  0.59301915792E+02  0.49999948505E+02 0.  0.
         12    1    1    2    0    0 -0.29963033839E+02 -0.26928514928E+01  0.10568231647E+02  0.31886084208E+02  0.00000000000E+00 0. -1.
         11    1    3    3    0    0 -0.17563266103E+01 -0.27259116225E+01 -0.65882340807E+01  0.73430311111E+01  0.51100000000E-03 0. -1.
        -11    1    3    3    0    0  0.10801882174E+02  0.63121012033E+01 -0.21356190366E+02  0.24750962553E+02  0.51100000000E-03 0.  1.
        -12    1    3    3    0    0  0.20917478275E+02 -0.89333808798E+00  0.17376192799E+02  0.27207922128E+02  0.00000000000E+00 0.  1.
</event>
<event>
 7    1  0.3449603E-013  0.5930193E+02  0.7816164E-02  0.1266605E+00
        -11   -1    0    0    0    0  0.00000000000E+00  0.00000000000E+00  0.45593999997E+02  0.45594000000E+02  0.51100000000E-03 0.  1.
         11   -1    0    0    0    0 -0.00000000000E+00 -0.00000000000E+00 -0.45593999997E+02  0.45594000000E+02  0.51100000000E-03 0. -1.
    9900012    2    1    2    0    0  0.13753413957E+02  0.17856426834E+02  0.22554664803E+02  0.59301932837E+02  0.49999979591E+02 0.  0.
         12    1    1    2    0    0 -0.13753413957E+02 -0.17856426834E+02 -0.22554664803E+02  0.31886067163E+02  0.00000000000E+00 0. -1.
         11    1    3    3    0    0 -0.43011928070E+01  0.82576714564E+01 -0.56317552053E+01  0.10881455068E+02  0.51100000000E-03 0. -1.
        -11    1    3    3    0    0 -0.23917170127E+01 -0.43861224882E+00 -0.64910709532E+01  0.69315722138E+01  0.51100000000E-03 0.  1.
        -12    1    3    3    0    0  0.20446323776E+02  0.10037367626E+02  0.34677490961E+02  0.41488905556E+02  0.00000000000E+00 0.  1.
</event>
<event>
 7    1  0.3449603E-013  0.5930195E+02  0.7816164E-02  0.1266605E+00
        -11   -1    0    0    0    0  0.00000000000E+00  0.00000000000E+00  0.45593999997E+02  0.45594000000E+02  0.51100000000E-03 0.  1.
         11   -1    0    0    0    0 -0.00000000000E+00 -0.00000000000E+00 -0.45593999997E+02  0.45594000000E+02  0.51100000000E-03 0. -1.
    9900012    2    1    2    0    0 -0.26724086626E+02 -0.16184748561E+02  0.63715779693E+01  0.59301954498E+02  0.50000019095E+02 0.  0.
         12    1    1    2    0    0  0.26724086626E+02  0.16184748561E+02 -0.63715779693E+01  0.31886045502E+02  0.00000000000E+00 0. -1.
         11    1    3    3    0    0 -0.43033451513E+01 -0.11965726354E+02 -0.15221686892E+02  0.19834241572E+02  0.51100000000E-03 0. -1.
        -11    1    3    3    0    0 -0.86396063508E+01  0.12782867693E+01 -0.42156999192E+01  0.96978833273E+01  0.51100000000E-03 0.  1.
        -12    1    3    3    0    0 -0.13781135124E+02 -0.54973089765E+01  0.25808964780E+02  0.29769829598E+02  0.00000000000E+00 0.  1.
</event>
<event>
 7    1  0.3449603E-013  0.5930195E+02  0.7816164E-02  0.1266605E+00
        -11   -1    0    0    0    0  0.00000000000E+00  0.00000000000E+00  0.45593999997E+02  0.45594000000E+02  0.51100000000E-03 0.  1.
         11   -1    0    0    0    0 -0.00000000000E+00 -0.00000000000E+00 -0.45593999997E+02  0.45594000000E+02  0.51100000000E-03 0. -1.
    9900012    2    1    2    0    0  0.22125168940E+02  0.22348177881E+02  0.52683798330E+01  0.59301953189E+02  0.50000016707E+02 0.  0.
         12    1    1    2    0    0 -0.22125168940E+02 -0.22348177881E+02 -0.52683798330E+01  0.31886046811E+02  0.00000000000E+00 0. -1.
         11    1    3    3    0    0 -0.58863647073E+01 -0.36626995005E+01  0.66982111486E+01  0.96400565325E+01  0.51100000000E-03 0. -1.
        -11    1    3    3    0    0 -0.12167454039E+01  0.11211466754E+01  0.95820064490E+01  0.97238000337E+01  0.51100000000E-03 0.  1.
        -12    1    3    3    0    0  0.29228279051E+02  0.24889730706E+02 -0.11011837765E+02  0.39938096622E+02  0.00000000000E+00 0.  1.
</event>
<event>
 7    1  0.3865501E-013  0.5930196E+02  0.7816164E-02  0.1266605E+00
        -11   -1    0    0    0    0  0.00000000000E+00  0.00000000000E+00  0.45593999997E+02  0.45594000000E+02  0.51100000000E-03 0. -1.
         11   -1    0    0    0    0 -0.00000000000E+00 -0.00000000000E+00 -0.45593999997E+02  0.45594000000E+02  0.51100000000E-03 0.  1.
    9900012    2    1    2    0    0  0.12755254162E+02 -0.19714154719E+02 -0.21572561219E+02  0.59301955991E+02  0.50000021817E+02 0.  0.
         12    1    1    2    0    0 -0.12755254162E+02  0.19714154719E+02  0.21572561219E+02  0.31886044009E+02  0.00000000000E+00 0. -1.
         11    1    3    3    0    0  0.10600049599E+02 -0.15193006661E+02 -0.15680969534E+02  0.24270997274E+02  0.51100000000E-03 0. -1.
        -11    1    3    3    0    0 -0.57766733654E+01 -0.17604091312E+02 -0.67206298264E+01  0.19708902852E+02  0.51100000000E-03 0.  1.
         12    1    3    3    0    0  0.79318779286E+01  0.13082943254E+02  0.82903814163E+00  0.15322055864E+02  0.00000000000E+00 0. -1.
</event>
<event>
 7    1  0.3449603E-013  0.5930194E+02  0.7816164E-02  0.1266605E+00
        -11   -1    0    0    0    0  0.00000000000E+00  0.00000000000E+00  0.45593999997E+02  0.45594000000E+02  0.51100000000E-03 0. -1.
         11   -1    0    0    0    0 -0.00000000000E+00 -0.00000000000E+00 -0.45593999997E+02  0.45594000000E+02  0.51100000000E-03 0.  1.
    9900012    2    1    2    0    0 -0.73137933396E+01  0.37995184254E+01 -0.30802481053E+02  0.59301941098E+02  0.49999994658E+02 0.  0.
         12    1    1    2    0    0  0.73137933396E+01 -0.37995184254E+01  0.30802481053E+02  0.31886058902E+02  0.00000000000E+00 0. -1.
         11    1    3    3    0    0 -0.94539693435E+00  0.10502511573E+02 -0.16187314284E+02  0.19319049373E+02  0.51100000000E-03 0.  1.
        -11    1    3    3    0    0 -0.95112454796E-01 -0.11546853489E+02  0.92758709073E+01  0.14811504084E+02  0.51100000000E-03 0. -1.
         12    1    3    3    0    0 -0.62732839505E+01  0.48438603421E+01 -0.23891037676E+02  0.25171387641E+02  0.00000000000E+00 0. -1.
</event>
<event>
 7    1  0.3449603E-013  0.5930194E+02  0.7816164E-02  0.1266605E+00
        -11   -1    0    0    0    0  0.00000000000E+00  0.00000000000E+00  0.45593999997E+02  0.45594000000E+02  0.51100000000E-03 0. -1.
         11   -1    0    0    0    0 -0.00000000000E+00 -0.00000000000E+00 -0.45593999997E+02  0.45594000000E+02  0.51100000000E-03 0.  1.
    9900012    2    1    2    0    0  0.28004842318E+02  0.12063527793E+02 -0.93231448361E+01  0.59301938379E+02  0.49999989699E+02 0.  0.
         12    1    1    2    0    0 -0.28004842318E+02 -0.12063527793E+02  0.93231448361E+01  0.31886061621E+02  0.00000000000E+00 0. -1.
         11    1    3    3    0    0  0.24003131472E+01  0.12883831182E+02 -0.49840121814E+01  0.14021233427E+02  0.51100000000E-03 0. -1.
        -11    1    3    3    0    0  0.38975587891E+01  0.18548079240E+01 -0.18650387545E+02  0.19143360018E+02  0.51100000000E-03 0.  1.
         12    1    3    3    0    0  0.21706970381E+02 -0.26751113129E+01  0.14311254890E+02  0.26137344934E+02  0.00000000000E+00 0. -1.
</event>
<event>
 7    1  0.3449603E-013  0.5930195E+02  0.7816164E-02  0.1266605E+00
        -11   -1    0    0    0    0  0.00000000000E+00  0.00000000000E+00  0.45593999997E+02  0.45594000000E+02  0.51100000000E-03 0.  1.
         11   -1    0    0    0    0 -0.00000000000E+00 -0.00000000000E+00 -0.45593999997E+02  0.45594000000E+02  0.51100000000E-03 0. -1.
    9900012    2    1    2    0    0 -0.19005585250E+01 -0.21817234576E+02  0.23175765737E+02  0.59301953448E+02  0.50000017180E+02 0.  0.
         12    1    1    2    0    0  0.19005585250E+01  0.21817234576E+02 -0.23175765737E+02  0.31886046552E+02  0.00000000000E+00 0. -1.
         11    1    3    3    0    0 -0.35873527186E+01  0.93416140917E+01  0.57719832172E+01  0.11552083963E+02  0.51100000000E-03 0. -1.
        -11    1    3    3    0    0  0.46637570709E+00  0.65584287419E+01  0.12117419665E+01  0.66857170683E+01  0.51100000000E-03 0.  1.
        -12    1    3    3    0    0  0.12204184865E+01 -0.37717277409E+02  0.16192040553E+02  0.41064152417E+02  0.00000000000E+00 0.  1.
</event>
<event>
 7    1  0.3449603E-013  0.5930192E+02  0.7816164E-02  0.1266605E+00
        -11   -1    0    0    0    0  0.00000000000E+00  0.00000000000E+00  0.45593999997E+02  0.45594000000E+02  0.51100000000E-03 0.  1.
         11   -1    0    0    0    0 -0.00000000000E+00 -0.00000000000E+00 -0.45593999997E+02  0.45594000000E+02  0.51100000000E-03 0. -1.
    9900012    2    1    2    0    0  0.48788416151E+00  0.25862026090E+02  0.18645090530E+02  0.59301924272E+02  0.49999963971E+02 0.  0.
         12    1    1    2    0    0 -0.48788416151E+00 -0.25862026090E+02 -0.18645090530E+02  0.31886075728E+02  0.00000000000E+00 0. -1.
         11    1    3    3    0    0 -0.37100738036E+01 -0.72781009700E+01  0.25009239492E+01  0.85434198199E+01  0.51100000000E-03 0. -1.
        -11    1    3    3    0    0  0.18353869860E+02  0.10392023095E+02  0.46173644562E+01  0.21591172678E+02  0.51100000000E-03 0.  1.
        -12    1    3    3    0    0 -0.14155911895E+02  0.22748103965E+02  0.11526802125E+02  0.29167331774E+02  0.00000000000E+00 0.  1.
</event>
<event>
 7    1  0.3449603E-013  0.5930191E+02  0.7816164E-02  0.1266605E+00
        -11   -1    0    0    0    0  0.00000000000E+00  0.00000000000E+00  0.45593999997E+02  0.45594000000E+02  0.51100000000E-03 0. -1.
         11   -1    0    0    0    0 -0.00000000000E+00 -0.00000000000E+00 -0.45593999997E+02  0.45594000000E+02  0.51100000000E-03 0.  1.
    9900012    2    1    2    0    0 -0.35108985236E+00  0.22594846248E+01 -0.31803997881E+02  0.59301908736E+02  0.49999935637E+02 0.  0.
         12    1    1    2    0    0  0.35108985236E+00 -0.22594846248E+01  0.31803997881E+02  0.31886091264E+02  0.00000000000E+00 0. -1.
         11    1    3    3    0    0  0.17647889422E+01  0.89602204568E+00 -0.29311535014E+02  0.29378281445E+02  0.51100000000E-03 0. -1.
        -11    1    3    3    0    0  0.35089636832E+00  0.13639555238E+02 -0.84587392457E+01  0.16053375509E+02  0.51100000000E-03 0.  1.
         12    1    3    3    0    0 -0.24667751629E+01 -0.12276092659E+02  0.59662763789E+01  0.13870251782E+02  0.00000000000E+00 0. -1.
</event>
<event>
 7    1  0.3449603E-013  0.5930194E+02  0.7816164E-02  0.1266605E+00
        -11   -1    0    0    0    0  0.00000000000E+00  0.00000000000E+00  0.45593999997E+02  0.45594000000E+02  0.51100000000E-03 0.  1.
         11   -1    0    0    0    0 -0.00000000000E+00 -0.00000000000E+00 -0.45593999997E+02  0.45594000000E+02  0.51100000000E-03 0. -1.
    9900012    2    1    2    0    0  0.19059976254E+02  0.38852103538E+01  0.25265451000E+02  0.59301943980E+02  0.49999999912E+02 0.  0.
         12    1    1    2    0    0 -0.19059976254E+02 -0.38852103538E+01 -0.25265451000E+02  0.31886056020E+02  0.00000000000E+00 0. -1.
         11    1    3    3    0    0  0.76704322250E+01 -0.61159805818E+01  0.21997744656E+02  0.24086127111E+02  0.51100000000E-03 0. -1.
        -11    1    3    3    0    0  0.17951098555E+02  0.13523138256E+02  0.10525216632E+02  0.24817280130E+02  0.51100000000E-03 0.  1.
         12    1    3    3    0    0 -0.65615545257E+01 -0.35219473209E+01 -0.72575102880E+01  0.10398536739E+02  0.00000000000E+00 0. -1.
</event>
<event>
 7    1  0.3449603E-013  0.5930193E+02  0.7816164E-02  0.1266605E+00
        -11   -1    0    0    0    0  0.00000000000E+00  0.00000000000E+00  0.45593999997E+02  0.45594000000E+02  0.51100000000E-03 0.  1.
         11   -1    0    0    0    0 -0.00000000000E+00 -0.00000000000E+00 -0.45593999997E+02  0.45594000000E+02  0.51100000000E-03 0. -1.
    9900012    2    1    2    0    0  0.99764695771E+01  0.20246162095E+02  0.22522971819E+02  0.59301932755E+02  0.49999979441E+02 0.  0.
         12    1    1    2    0    0 -0.99764695771E+01 -0.20246162095E+02 -0.22522971819E+02  0.31886067245E+02  0.00000000000E+00 0. -1.
         11    1    3    3    0    0  0.12970092698E+02  0.22984361290E+00 -0.35095700446E+01  0.13438497491E+02  0.51100000000E-03 0. -1.
        -11    1    3    3    0    0  0.82419030493E+01  0.68163730185E+01 -0.38083624415E+01  0.11353216802E+02  0.51100000000E-03 0.  1.
        -12    1    3    3    0    0 -0.11235526170E+02  0.13199945464E+02  0.29840904305E+02  0.34510218462E+02  0.00000000000E+00 0.  1.
</event>
<event>
 7    1  0.3449603E-013  0.5930190E+02  0.7816164E-02  0.1266605E+00
        -11   -1    0    0    0    0  0.00000000000E+00  0.00000000000E+00  0.45593999997E+02  0.45594000000E+02  0.51100000000E-03 0. -1.
         11   -1    0    0    0    0 -0.00000000000E+00 -0.00000000000E+00 -0.45593999997E+02  0.45594000000E+02  0.51100000000E-03 0.  1.
    9900012    2    1    2    0    0  0.20583035337E+02  0.16318398145E+02 -0.18076838618E+02  0.59301897132E+02  0.49999914474E+02 0.  0.
         12    1    1    2    0    0 -0.20583035337E+02 -0.16318398145E+02  0.18076838618E+02  0.31886102868E+02  0.00000000000E+00 0. -1.
         11    1    3    3    0    0  0.13914393329E+02  0.25306010196E+01  0.18318544641E+01  0.14260784490E+02  0.51100000000E-03 0. -1.
        -11    1    3    3    0    0  0.18755625755E+02  0.24550071337E+00 -0.93136000729E+00  0.18780340779E+02  0.51100000000E-03 0.  1.
        -12    1    3    3    0    0 -0.12086983747E+02  0.13542296412E+02 -0.18977333075E+02  0.26260771863E+02  0.00000000000E+00 0.  1.
</event>
<event>
 7    1  0.3449603E-013  0.5930196E+02  0.7816164E-02  0.1266605E+00
        -11   -1    0    0    0    0  0.00000000000E+00  0.00000000000E+00  0.45593999997E+02  0.45594000000E+02  0.51100000000E-03 0.  1.
         11   -1    0    0    0    0 -0.00000000000E+00 -0.00000000000E+00 -0.45593999997E+02  0.45594000000E+02  0.51100000000E-03 0. -1.
    9900012    2    1    2    0    0 -0.14877810401E+00  0.16876132918E+02  0.27053530867E+02  0.59301960271E+02  0.50000029624E+02 0.  0.
         12    1    1    2    0    0  0.14877810401E+00 -0.16876132918E+02 -0.27053530867E+02  0.31886039729E+02  0.00000000000E+00 0. -1.
         11    1    3    3    0    0  0.63426911324E+01 -0.24049223703E+01 -0.56500658813E+01  0.88281723551E+01  0.51100000000E-03 0. -1.
        -11    1    3    3    0    0 -0.13451685507E+02 -0.38479028944E+01  0.90235711941E+01  0.16648694754E+02  0.51100000000E-03 0.  1.
         12    1    3    3    0    0  0.69602162702E+01  0.23128958183E+02  0.23680025554E+02  0.33825093162E+02  0.00000000000E+00 0. -1.
</event>
<event>
 7    1  0.3449603E-013  0.5930194E+02  0.7816164E-02  0.1266605E+00
        -11   -1    0    0    0    0  0.00000000000E+00  0.00000000000E+00  0.45593999997E+02  0.45594000000E+02  0.51100000000E-03 0. -1.
         11   -1    0    0    0    0 -0.00000000000E+00 -0.00000000000E+00 -0.45593999997E+02  0.45594000000E+02  0.51100000000E-03 0.  1.
    9900012    2    1    2    0    0  0.24006182049E+02  0.18982130930E+02 -0.89500120150E+01  0.59301940565E+02  0.49999993685E+02 0.  0.
         12    1    1    2    0    0 -0.24006182049E+02 -0.18982130930E+02  0.89500120150E+01  0.31886059435E+02  0.00000000000E+00 0. -1.
         11    1    3    3    0    0  0.14497783479E+01  0.81735833977E+00  0.61098149056E+01  0.63324379473E+01  0.51100000000E-03 0. -1.
        -11    1    3    3    0    0  0.66955032510E+01  0.29515717069E+02 -0.39477294671E+01  0.30521990206E+02  0.51100000000E-03 0.  1.
        -12    1    3    3    0    0  0.15860900451E+02 -0.11350944480E+02 -0.11112097454E+02  0.22447512412E+02  0.00000000000E+00 0.  1.
</event>
<event>
 7    1  0.3449603E-013  0.5930195E+02  0.7816164E-02  0.1266605E+00
        -11   -1    0    0    0    0  0.00000000000E+00  0.00000000000E+00  0.45593999997E+02  0.45594000000E+02  0.51100000000E-03 0. -1.
         11   -1    0    0    0    0 -0.00000000000E+00 -0.00000000000E+00 -0.45593999997E+02  0.45594000000E+02  0.51100000000E-03 0.  1.
    9900012    2    1    2    0    0  0.23996975266E+02  0.67450457223E+01 -0.19883902942E+02  0.59301951955E+02  0.50000014458E+02 0.  0.
         12    1    1    2    0    0 -0.23996975266E+02 -0.67450457223E+01  0.19883902942E+02  0.31886048045E+02  0.00000000000E+00 0. -1.
         11    1    3    3    0    0  0.54777413929E+01 -0.13034475875E+02  0.37151838090E+01  0.14618679937E+02  0.51100000000E-03 0. -1.
        -11    1    3    3    0    0  0.13900853314E+02  0.15416305728E+02 -0.54017403077E+00  0.20765066660E+02  0.51100000000E-03 0.  1.
        -12    1    3    3    0    0  0.46183805593E+01  0.43632158692E+01 -0.23058912720E+02  0.23918205358E+02  0.00000000000E+00 0.  1.
</event>
<event>
 7    1  0.3449603E-013  0.5930196E+02  0.7816164E-02  0.1266605E+00
        -11   -1    0    0    0    0  0.00000000000E+00  0.00000000000E+00  0.45593999997E+02  0.45594000000E+02  0.51100000000E-03 0. -1.
         11   -1    0    0    0    0 -0.00000000000E+00 -0.00000000000E+00 -0.45593999997E+02  0.45594000000E+02  0.51100000000E-03 0.  1.
    9900012    2    1    2    0    0 -0.15853239287E+02 -0.25754391272E+02 -0.10104742141E+02  0.59301957922E+02  0.50000025339E+02 0.  0.
         12    1    1    2    0    0  0.15853239287E+02  0.25754391272E+02  0.10104742141E+02  0.31886042078E+02  0.00000000000E+00 0. -1.
         11    1    3    3    0    0 -0.19852914422E+00  0.27727099796E+01  0.11816948099E+02  0.12139505636E+02  0.51100000000E-03 0. -1.
        -11    1    3    3    0    0  0.34745835814E+01 -0.18381030330E+02 -0.41775863810E+01  0.19167348155E+02  0.51100000000E-03 0.  1.
        -12    1    3    3    0    0 -0.19129293724E+02 -0.10146070922E+02 -0.17744103859E+02  0.27995104131E+02  0.00000000000E+00 0.  1.
</event>
<event>
 7    1  0.3449603E-013  0.5930197E+02  0.7816164E-02  0.1266605E+00
        -11   -1    0    0    0    0  0.00000000000E+00  0.00000000000E+00  0.45593999997E+02  0.45594000000E+02  0.51100000000E-03 0. -1.
         11   -1    0    0    0    0 -0.00000000000E+00 -0.00000000000E+00 -0.45593999997E+02  0.45594000000E+02  0.51100000000E-03 0.  1.
    9900012    2    1    2    0    0 -0.24719183579E+02  0.19936257450E+02  0.28682027581E+01  0.59301968811E+02  0.50000045199E+02 0.  0.
         12    1    1    2    0    0  0.24719183579E+02 -0.19936257450E+02 -0.28682027581E+01  0.31886031189E+02  0.00000000000E+00 0. -1.
         11    1    3    3    0    0 -0.16380811367E+02  0.78033099482E+01  0.39907426563E+01  0.18578176832E+02  0.51100000000E-03 0. -1.
        -11    1    3    3    0    0 -0.65864762847E+01  0.23418322410E+02  0.85212412391E+01  0.25776172076E+02  0.51100000000E-03 0.  1.
         12    1    3    3    0    0 -0.17518959278E+01 -0.11285374909E+02 -0.96437811374E+01  0.14947619904E+02  0.00000000000E+00 0. -1.
</event>
<event>
 7    1  0.3449603E-013  0.5930195E+02  0.7816164E-02  0.1266605E+00
        -11   -1    0    0    0    0  0.00000000000E+00  0.00000000000E+00  0.45593999997E+02  0.45594000000E+02  0.51100000000E-03 0.  1.
         11   -1    0    0    0    0 -0.00000000000E+00 -0.00000000000E+00 -0.45593999997E+02  0.45594000000E+02  0.51100000000E-03 0. -1.
    9900012    2    1    2    0    0  0.29598774237E+02 -0.10256317944E+02  0.59532163252E+01  0.59301948525E+02  0.50000008201E+02 0.  0.
         12    1    1    2    0    0 -0.29598774237E+02  0.10256317944E+02 -0.59532163252E+01  0.31886051475E+02  0.00000000000E+00 0. -1.
         11    1    3    3    0    0  0.15092845363E+02 -0.55162174944E+01  0.48133971667E+01  0.16774725904E+02  0.51100000000E-03 0. -1.
        -11    1    3    3    0    0  0.13583164565E+02  0.16070712363E+02  0.42443480280E+01  0.21465894947E+02  0.51100000000E-03 0.  1.
         12    1    3    3    0    0  0.92276430884E+00 -0.20810812812E+02 -0.31045288694E+01  0.21061327674E+02  0.00000000000E+00 0. -1.
</event>
<event>
 7    1  0.3449603E-013  0.5930196E+02  0.7816164E-02  0.1266605E+00
        -11   -1    0    0    0    0  0.00000000000E+00  0.00000000000E+00  0.45593999997E+02  0.45594000000E+02  0.51100000000E-03 0. -1.
         11   -1    0    0    0    0 -0.00000000000E+00 -0.00000000000E+00 -0.45593999997E+02  0.45594000000E+02  0.51100000000E-03 0.  1.
    9900012    2    1    2    0    0 -0.54009159970E+00 -0.76448551546E+01 -0.30951321024E+02  0.59301956307E+02  0.50000022394E+02 0.  0.
         12    1    1    2    0    0  0.54009159970E+00  0.76448551546E+01  0.30951321024E+02  0.31886043693E+02  0.00000000000E+00 0. -1.
         11    1    3    3    0    0 -0.31600953739E+01 -0.82874834203E+01 -0.12918453071E+01  0.89631160192E+01  0.51100000000E-03 0. -1.
        -11    1    3    3    0    0 -0.76194463366E+01 -0.10926535320E+02  0.34860822744E+01  0.13769455562E+02  0.51100000000E-03 0.  1.
         12    1    3    3    0    0  0.10239450111E+02  0.11569163586E+02 -0.33145557992E+02  0.36569384726E+02  0.00000000000E+00 0. -1.
</event>
<event>
 7    1  0.3449603E-013  0.5930194E+02  0.7816164E-02  0.1266605E+00
        -11   -1    0    0    0    0  0.00000000000E+00  0.00000000000E+00  0.45593999997E+02  0.45594000000E+02  0.51100000000E-03 0.  1.
         11   -1    0    0    0    0 -0.00000000000E+00 -0.00000000000E+00 -0.45593999997E+02  0.45594000000E+02  0.51100000000E-03 0. -1.
    9900012    2    1    2    0    0 -0.14144583674E+02 -0.11707529410E+02  0.26068854177E+02  0.59301942697E+02  0.49999997574E+02 0.  0.
         12    1    1    2    0    0  0.14144583674E+02  0.11707529410E+02 -0.26068854177E+02  0.31886057303E+02  0.00000000000E+00 0. -1.
         11    1    3    3    0    0 -0.27379687924E+02 -0.49292448178E+01  0.75900387930E+01  0.28836668574E+02  0.51100000000E-03 0. -1.
        -11    1    3    3    0    0  0.99418728441E+01 -0.90019403143E+00 -0.82772990713E+00  0.10016801985E+02  0.51100000000E-03 0.  1.
        -12    1    3    3    0    0  0.32932314060E+01 -0.58780905607E+01  0.19306545291E+02  0.20448472139E+02  0.00000000000E+00 0.  1.
</event>
<event>
 7    1  0.3449603E-013  0.5930194E+02  0.7816164E-02  0.1266605E+00
        -11   -1    0    0    0    0  0.00000000000E+00  0.00000000000E+00  0.45593999997E+02  0.45594000000E+02  0.51100000000E-03 0.  1.
         11   -1    0    0    0    0 -0.00000000000E+00 -0.00000000000E+00 -0.45593999997E+02  0.45594000000E+02  0.51100000000E-03 0. -1.
    9900012    2    1    2    0    0 -0.23021322753E+02  0.40650276118E+01  0.21684444748E+02  0.59301938863E+02  0.49999990581E+02 0.  0.
         12    1    1    2    0    0  0.23021322753E+02 -0.40650276118E+01 -0.21684444748E+02  0.31886061137E+02  0.00000000000E+00 0. -1.
         11    1    3    3    0    0  0.42837160358E+01 -0.29832180910E+01 -0.22399909351E+01  0.56804377388E+01  0.51100000000E-03 0. -1.
        -11    1    3    3    0    0 -0.69874589619E+01  0.16185011331E+02  0.25819268923E+02  0.31263618193E+02  0.51100000000E-03 0.  1.
        -12    1    3    3    0    0 -0.20317579827E+02 -0.91367656278E+01 -0.18948332396E+01  0.22357882931E+02  0.00000000000E+00 0.  1.
</event>
<event>
 7    1  0.3449603E-013  0.5930192E+02  0.7816164E-02  0.1266605E+00
        -11   -1    0    0    0    0  0.00000000000E+00  0.00000000000E+00  0.45593999997E+02  0.45594000000E+02  0.51100000000E-03 0.  1.
         11   -1    0    0    0    0 -0.00000000000E+00 -0.00000000000E+00 -0.45593999997E+02  0.45594000000E+02  0.51100000000E-03 0. -1.
    9900012    2    1    2    0    0  0.26665991862E+02 -0.40548923639E+01  0.17006023284E+02  0.59301919934E+02  0.49999956059E+02 0.  0.
         12    1    1    2    0    0 -0.26665991862E+02  0.40548923639E+01 -0.17006023284E+02  0.31886080066E+02  0.00000000000E+00 0. -1.
         11    1    3    3    0    0  0.24846526471E+02 -0.99060590857E+01  0.49542071202E+01  0.27203383112E+02  0.51100000000E-03 0. -1.
        -11    1    3    3    0    0  0.14797691740E+02  0.19772742503E+01  0.10940818252E+02  0.18508992371E+02  0.51100000000E-03 0.  1.
        -12    1    3    3    0    0 -0.12978226349E+02  0.38738924715E+01  0.11109979109E+01  0.13589544451E+02  0.00000000000E+00 0.  1.
</event>
<event>
 7    1  0.3449603E-013  0.5930174E+02  0.7816164E-02  0.1266605E+00
        -11   -1    0    0    0    0  0.00000000000E+00  0.00000000000E+00  0.45593999997E+02  0.45594000000E+02  0.51100000000E-03 0.  1.
         11   -1    0    0    0    0 -0.00000000000E+00 -0.00000000000E+00 -0.45593999997E+02  0.45594000000E+02  0.51100000000E-03 0. -1.
    9900012    2    1    2    0    0 -0.23345390653E+02  0.13885838376E+01 -0.21674834252E+02  0.59301735407E+02  0.49999619524E+02 0.  0.
         12    1    1    2    0    0  0.23345390653E+02 -0.13885838376E+01  0.21674834252E+02  0.31886264593E+02  0.00000000000E+00 0. -1.
         11    1    3    3    0    0 -0.16083213200E+02  0.19975085435E+02 -0.10552396072E+02  0.27731333327E+02  0.51100000000E-03 0. -1.
        -11    1    3    3    0    0 -0.11650163012E+02 -0.11738864660E+02 -0.15208857279E+02  0.22468568751E+02  0.51100000000E-03 0.  1.
        -12    1    3    3    0    0  0.43879855585E+01 -0.68476369374E+01  0.40864190991E+01  0.91018333286E+01  0.00000000000E+00 0.  1.
</event>
<event>
 7    1  0.3449603E-013  0.5930195E+02  0.7816164E-02  0.1266605E+00
        -11   -1    0    0    0    0  0.00000000000E+00  0.00000000000E+00  0.45593999997E+02  0.45594000000E+02  0.51100000000E-03 0.  1.
         11   -1    0    0    0    0 -0.00000000000E+00 -0.00000000000E+00 -0.45593999997E+02  0.45594000000E+02  0.51100000000E-03 0. -1.
    9900012    2    1    2    0    0  0.23664170078E+02  0.21132497338E+02  0.31851245295E+01  0.59301946505E+02  0.50000004519E+02 0.  0.
         12    1    1    2    0    0 -0.23664170078E+02 -0.21132497338E+02 -0.31851245295E+01  0.31886053495E+02  0.00000000000E+00 0. -1.
         11    1    3    3    0    0  0.16782575869E+02 -0.16880852671E+01 -0.17895989513E+02  0.24592090712E+02  0.51100000000E-03 0. -1.
        -11    1    3    3    0    0  0.84137113273E+01  0.56042352162E+01  0.97324148090E+01  0.14032743457E+02  0.51100000000E-03 0.  1.
        -12    1    3    3    0    0 -0.15321171186E+01  0.17216347389E+02  0.11348699234E+02  0.20677112336E+02  0.00000000000E+00 0.  1.
</event>
<event>
 7    1  0.3449603E-013  0.5930194E+02  0.7816164E-02  0.1266605E+00
        -11   -1    0    0    0    0  0.00000000000E+00  0.00000000000E+00  0.45593999997E+02  0.45594000000E+02  0.51100000000E-03 0.  1.
         11   -1    0    0    0    0 -0.00000000000E+00 -0.00000000000E+00 -0.45593999997E+02  0.45594000000E+02  0.51100000000E-03 0. -1.
    9900012    2    1    2    0    0 -0.20491722204E+02  0.19054090990E+02 -0.15288950700E+02  0.59301936024E+02  0.49999985403E+02 0.  0.
         12    1    1    2    0    0  0.20491722204E+02 -0.19054090990E+02  0.15288950700E+02  0.31886063976E+02  0.00000000000E+00 0. -1.
         11    1    3    3    0    0  0.18839162604E+01  0.83350421744E+01  0.19153664481E+01  0.87573225028E+01  0.51100000000E-03 0. -1.
        -11    1    3    3    0    0 -0.29527512065E+01 -0.52906763391E+01  0.11113111000E+02  0.12657457572E+02  0.51100000000E-03 0.  1.
         12    1    3    3    0    0 -0.19422887258E+02  0.16009725155E+02 -0.28317428149E+02  0.37887155950E+02  0.00000000000E+00 0. -1.
</event>
<event>
 7    1  0.3449603E-013  0.5930195E+02  0.7816164E-02  0.1266605E+00
        -11   -1    0    0    0    0  0.00000000000E+00  0.00000000000E+00  0.45593999997E+02  0.45594000000E+02  0.51100000000E-03 0. -1.
         11   -1    0    0    0    0 -0.00000000000E+00 -0.00000000000E+00 -0.45593999997E+02  0.45594000000E+02  0.51100000000E-03 0.  1.
    9900012    2    1    2    0    0 -0.25324479149E+02 -0.18917731708E+02 -0.41845751108E+01  0.59301945274E+02  0.50000002272E+02 0.  0.
         12    1    1    2    0    0  0.25324479149E+02  0.18917731708E+02  0.41845751108E+01  0.31886054726E+02  0.00000000000E+00 0. -1.
         11    1    3    3    0    0  0.83403707895E+01 -0.98864261898E+00  0.48365283360E+01  0.96918112725E+01  0.51100000000E-03 0. -1.
        -11    1    3    3    0    0 -0.23801826203E+02  0.27756675181E+01  0.22268971987E+01  0.24066373474E+02  0.51100000000E-03 0.  1.
        -12    1    3    3    0    0 -0.98630237354E+01 -0.20704756607E+02 -0.11248000646E+02  0.25543760528E+02  0.00000000000E+00 0.  1.
</event>
<event>
 7    1  0.3449603E-013  0.5930191E+02  0.7816164E-02  0.1266605E+00
        -11   -1    0    0    0    0  0.00000000000E+00  0.00000000000E+00  0.45593999997E+02  0.45594000000E+02  0.51100000000E-03 0.  1.
         11   -1    0    0    0    0 -0.00000000000E+00 -0.00000000000E+00 -0.45593999997E+02  0.45594000000E+02  0.51100000000E-03 0. -1.
    9900012    2    1    2    0    0 -0.86381834880E+01 -0.20973985888E+02  0.22409739546E+02  0.59301910173E+02  0.49999938256E+02 0.  0.
         12    1    1    2    0    0  0.86381834880E+01  0.20973985888E+02 -0.22409739546E+02  0.31886089827E+02  0.00000000000E+00 0. -1.
         11    1    3    3    0    0 -0.11845991422E+02 -0.20525936801E+02  0.93218380489E+00  0.23717305101E+02  0.51100000000E-03 0. -1.
        -11    1    3    3    0    0 -0.94566022228E+01 -0.40238054416E+01 -0.13842028340E+00  0.10278010326E+02  0.51100000000E-03 0.  1.
        -12    1    3    3    0    0  0.12664410157E+02  0.35757563553E+01  0.21615976024E+02  0.25306594745E+02  0.00000000000E+00 0.  1.
</event>
<event>
 7    1  0.3449603E-013  0.5930193E+02  0.7816164E-02  0.1266605E+00
        -11   -1    0    0    0    0  0.00000000000E+00  0.00000000000E+00  0.45593999997E+02  0.45594000000E+02  0.51100000000E-03 0.  1.
         11   -1    0    0    0    0 -0.00000000000E+00 -0.00000000000E+00 -0.45593999997E+02  0.45594000000E+02  0.51100000000E-03 0. -1.
    9900012    2    1    2    0    0 -0.34060971320E+01 -0.25695271344E+02  0.18570753832E+02  0.59301931491E+02  0.49999977136E+02 0.  0.
         12    1    1    2    0    0  0.34060971320E+01  0.25695271344E+02 -0.18570753832E+02  0.31886068509E+02  0.00000000000E+00 0. -1.
         11    1    3    3    0    0  0.13313874838E+02  0.33179027310E+01  0.53758206108E+01  0.14736593543E+02  0.51100000000E-03 0. -1.
        -11    1    3    3    0    0 -0.27373827396E+01  0.16693585317E+01 -0.52350330118E+01  0.61388592642E+01  0.51100000000E-03 0.  1.
        -12    1    3    3    0    0 -0.13982589230E+02 -0.30682532606E+02  0.18429966233E+02  0.38426478684E+02  0.00000000000E+00 0.  1.
</event>
<event>
 7    1  0.3449603E-013  0.5930195E+02  0.7816164E-02  0.1266605E+00
        -11   -1    0    0    0    0  0.00000000000E+00  0.00000000000E+00  0.45593999997E+02  0.45594000000E+02  0.51100000000E-03 0.  1.
         11   -1    0    0    0    0 -0.00000000000E+00 -0.00000000000E+00 -0.45593999997E+02  0.45594000000E+02  0.51100000000E-03 0. -1.
    9900012    2    1    2    0    0  0.30501400429E+02  0.91744761124E+01  0.14877977854E+01  0.59301953172E+02  0.50000016678E+02 0.  0.
         12    1    1    2    0    0 -0.30501400429E+02 -0.91744761124E+01 -0.14877977854E+01  0.31886046828E+02  0.00000000000E+00 0. -1.
         11    1    3    3    0    0 -0.25404998495E+00 -0.94214407700E+01  0.11922086994E+02  0.15197507892E+02  0.51100000000E-03 0. -1.
        -11    1    3    3    0    0  0.20205019111E+02  0.39346886467E+01  0.40161329469E+01  0.20972694060E+02  0.51100000000E-03 0.  1.
        -12    1    3    3    0    0  0.10550431302E+02  0.14661228236E+02 -0.14450422155E+02  0.23131751220E+02  0.00000000000E+00 0.  1.
</event>
<event>
 7    1  0.3449603E-013  0.5930186E+02  0.7816164E-02  0.1266605E+00
        -11   -1    0    0    0    0  0.00000000000E+00  0.00000000000E+00  0.45593999997E+02  0.45594000000E+02  0.51100000000E-03 0. -1.
         11   -1    0    0    0    0 -0.00000000000E+00 -0.00000000000E+00 -0.45593999997E+02  0.45594000000E+02  0.51100000000E-03 0.  1.
    9900012    2    1    2    0    0  0.30106989881E+02 -0.65983974242E+01  0.81704505683E+01  0.59301859582E+02  0.49999845991E+02 0.  0.
         12    1    1    2    0    0 -0.30106989881E+02  0.65983974242E+01 -0.81704505683E+01  0.31886140418E+02  0.00000000000E+00 0. -1.
         11    1    3    3    0    0 -0.70657701225E+01  0.52963307630E-01 -0.69451146291E+01  0.99077005409E+01  0.51100000000E-03 0. -1.
        -11    1    3    3    0    0  0.65300436378E+00 -0.36178518884E+01 -0.60470673585E+01  0.70768842639E+01  0.51100000000E-03 0.  1.
         12    1    3    3    0    0  0.36519755640E+02 -0.30335088435E+01  0.21162632556E+02  0.42317274777E+02  0.00000000000E+00 0. -1.
</event>
<event>
 7    1  0.5528676E-013  0.5930194E+02  0.7816164E-02  0.1266605E+00
        -11   -1    0    0    0    0  0.00000000000E+00  0.00000000000E+00  0.45593999997E+02  0.45594000000E+02  0.51100000000E-03 0. -1.
         11   -1    0    0    0    0 -0.00000000000E+00 -0.00000000000E+00 -0.45593999997E+02  0.45594000000E+02  0.51100000000E-03 0.  1.
    9900012    2    1    2    0    0 -0.27132289165E+02 -0.61945121169E+01 -0.15562385194E+02  0.59301938333E+02  0.49999989614E+02 0.  0.
         12    1    1    2    0    0  0.27132289165E+02  0.61945121169E+01  0.15562385194E+02  0.31886061667E+02  0.00000000000E+00 0. -1.
         11    1    3    3    0    0  0.37979973296E+01  0.56377062296E+01  0.59069357078E+01  0.90055763260E+01  0.51100000000E-03 0. -1.
        -11    1    3    3    0    0 -0.29031243170E+01 -0.74265298569E+01 -0.20402119330E+02  0.21904975461E+02  0.51100000000E-03 0.  1.
         12    1    3    3    0    0 -0.28027162178E+02 -0.44056884896E+01 -0.10672015719E+01  0.28391386546E+02  0.00000000000E+00 0. -1.
</event>
<event>
 7    1  0.3449603E-013  0.5930199E+02  0.7816164E-02  0.1266605E+00
        -11   -1    0    0    0    0  0.00000000000E+00  0.00000000000E+00  0.45593999997E+02  0.45594000000E+02  0.51100000000E-03 0. -1.
         11   -1    0    0    0    0 -0.00000000000E+00 -0.00000000000E+00 -0.45593999997E+02  0.45594000000E+02  0.51100000000E-03 0.  1.
    9900012    2    1    2    0    0  0.25871796896E+02 -0.11747522160E+02  0.14469387367E+02  0.59301994883E+02  0.50000092748E+02 0.  0.
         12    1    1    2    0    0 -0.25871796896E+02  0.11747522160E+02 -0.14469387367E+02  0.31886005117E+02  0.00000000000E+00 0. -1.
         11    1    3    3    0    0  0.99305669887E-01  0.12843550998E+02 -0.29859909904E+01  0.13186462995E+02  0.51100000000E-03 0. -1.
        -11    1    3    3    0    0  0.25277606963E+02 -0.86500593658E+01  0.10263540243E+02  0.28620293489E+02  0.51100000000E-03 0.  1.
        -12    1    3    3    0    0  0.49488426329E+00 -0.15941013793E+02  0.71918381147E+01  0.17495238399E+02  0.00000000000E+00 0.  1.
</event>
<event>
 7    1  0.3449603E-013  0.5930195E+02  0.7816164E-02  0.1266605E+00
        -11   -1    0    0    0    0  0.00000000000E+00  0.00000000000E+00  0.45593999997E+02  0.45594000000E+02  0.51100000000E-03 0.  1.
         11   -1    0    0    0    0 -0.00000000000E+00 -0.00000000000E+00 -0.45593999997E+02  0.45594000000E+02  0.51100000000E-03 0. -1.
    9900012    2    1    2    0    0  0.11933484151E+02  0.27761851195E+02  0.10178002652E+02  0.59301950327E+02  0.50000011488E+02 0.  0.
         12    1    1    2    0    0 -0.11933484151E+02 -0.27761851195E+02 -0.10178002652E+02  0.31886049673E+02  0.00000000000E+00 0. -1.
         11    1    3    3    0    0 -0.83507531172E+00  0.71073588147E+00  0.20508403033E+01  0.23256058308E+01  0.51100000000E-03 0. -1.
        -11    1    3    3    0    0 -0.17390914284E+02  0.38098802449E+01 -0.96771138089E+00  0.17829625702E+02  0.51100000000E-03 0.  1.
        -12    1    3    3    0    0  0.30159473746E+02  0.23241235069E+02  0.90948737295E+01  0.39146718794E+02  0.00000000000E+00 0.  1.
</event>
<event>
 7    1  0.3449603E-013  0.5930191E+02  0.7816164E-02  0.1266605E+00
        -11   -1    0    0    0    0  0.00000000000E+00  0.00000000000E+00  0.45593999997E+02  0.45594000000E+02  0.51100000000E-03 0.  1.
         11   -1    0    0    0    0 -0.00000000000E+00 -0.00000000000E+00 -0.45593999997E+02  0.45594000000E+02  0.51100000000E-03 0. -1.
    9900012    2    1    2    0    0 -0.48221838070E+00  0.29489963047E+02 -0.12117439811E+02  0.59301908947E+02  0.49999936021E+02 0.  0.
         12    1    1    2    0    0  0.48221838070E+00 -0.29489963047E+02  0.12117439811E+02  0.31886091053E+02  0.00000000000E+00 0. -1.
         11    1    3    3    0    0 -0.84289515516E+01  0.25121165236E+02 -0.75398356308E+01  0.27549397247E+02  0.51100000000E-03 0. -1.
        -11    1    3    3    0    0  0.14306094652E+02  0.11978589641E+02 -0.92085058150E+01  0.20807391321E+02  0.51100000000E-03 0.  1.
        -12    1    3    3    0    0 -0.63593614811E+01 -0.76097918304E+01  0.46309016352E+01  0.10945120379E+02  0.00000000000E+00 0.  1.
</event>
<event>
 7    1  0.3449603E-013  0.5930195E+02  0.7816164E-02  0.1266605E+00
        -11   -1    0    0    0    0  0.00000000000E+00  0.00000000000E+00  0.45593999997E+02  0.45594000000E+02  0.51100000000E-03 0.  1.
         11   -1    0    0    0    0 -0.00000000000E+00 -0.00000000000E+00 -0.45593999997E+02  0.45594000000E+02  0.51100000000E-03 0. -1.
    9900012    2    1    2    0    0 -0.11450597843E+01  0.30896648636E+02  0.77978423422E+01  0.59301946559E+02  0.50000004616E+02 0.  0.
         12    1    1    2    0    0  0.11450597843E+01 -0.30896648636E+02 -0.77978423422E+01  0.31886053441E+02  0.00000000000E+00 0. -1.
         11    1    3    3    0    0  0.10430720999E+01  0.83806666573E+01 -0.16394503799E+02  0.18441890578E+02  0.51100000000E-03 0. -1.
        -11    1    3    3    0    0 -0.69364296276E+00  0.20160094632E+02  0.41120567472E+01  0.20586878518E+02  0.51100000000E-03 0.  1.
        -12    1    3    3    0    0 -0.14944889214E+01  0.23558873467E+01  0.20080289394E+02  0.20273177463E+02  0.00000000000E+00 0.  1.
</event>
<event>
 7    1  0.3449603E-013  0.5930195E+02  0.7816164E-02  0.1266605E+00
        -11   -1    0    0    0    0  0.00000000000E+00  0.00000000000E+00  0.45593999997E+02  0.45594000000E+02  0.51100000000E-03 0.  1.
         11   -1    0    0    0    0 -0.00000000000E+00 -0.00000000000E+00 -0.45593999997E+02  0.45594000000E+02  0.51100000000E-03 0. -1.
    9900012    2    1    2    0    0 -0.17814141882E+02  0.99644950542E+01  0.24496636762E+02  0.59301952498E+02  0.50000015447E+02 0.  0.
         12    1    1    2    0    0  0.17814141882E+02 -0.99644950542E+01 -0.24496636762E+02  0.31886047502E+02  0.00000000000E+00 0. -1.
         11    1    3    3    0    0 -0.18718284502E+00 -0.43219779770E+01 -0.93533063580E+01  0.10305283652E+02  0.51100000000E-03 0. -1.
        -11    1    3    3    0    0 -0.33811208802E+01  0.10310889077E+02 -0.12355370543E+01  0.10921216234E+02  0.51100000000E-03 0.  1.
        -12    1    3    3    0    0 -0.14245838156E+02  0.39755839543E+01  0.35085480174E+02  0.38075452612E+02  0.00000000000E+00 0.  1.
</event>
<event>
 7    1  0.3449603E-013  0.5930194E+02  0.7816164E-02  0.1266605E+00
        -11   -1    0    0    0    0  0.00000000000E+00  0.00000000000E+00  0.45593999997E+02  0.45594000000E+02  0.51100000000E-03 0. -1.
         11   -1    0    0    0    0 -0.00000000000E+00 -0.00000000000E+00 -0.45593999997E+02  0.45594000000E+02  0.51100000000E-03 0.  1.
    9900012    2    1    2    0    0  0.23099791445E+02  0.76118448088E+01  0.20619893069E+02  0.59301944484E+02  0.50000000833E+02 0.  0.
         12    1    1    2    0    0 -0.23099791445E+02 -0.76118448088E+01 -0.20619893069E+02  0.31886055516E+02  0.00000000000E+00 0. -1.
         11    1    3    3    0    0  0.39292936777E+01 -0.13330991835E+02  0.18193393532E+02  0.22894415489E+02  0.51100000000E-03 0. -1.
        -11    1    3    3    0    0  0.14165004371E+02  0.38244801622E+01 -0.69754363970E+01  0.16245944433E+02  0.51100000000E-03 0.  1.
        -12    1    3    3    0    0  0.50054933960E+01  0.17118356481E+02  0.94019359334E+01  0.20161584562E+02  0.00000000000E+00 0.  1.
</event>
<event>
 7    1  0.3449603E-013  0.5930194E+02  0.7816164E-02  0.1266605E+00
        -11   -1    0    0    0    0  0.00000000000E+00  0.00000000000E+00  0.45593999997E+02  0.45594000000E+02  0.51100000000E-03 0. -1.
         11   -1    0    0    0    0 -0.00000000000E+00 -0.00000000000E+00 -0.45593999997E+02  0.45594000000E+02  0.51100000000E-03 0.  1.
    9900012    2    1    2    0    0  0.27541392608E+02  0.15818450907E+02 -0.28229857490E+01  0.59301938085E+02  0.49999989163E+02 0.  0.
         12    1    1    2    0    0 -0.27541392608E+02 -0.15818450907E+02  0.28229857490E+01  0.31886061915E+02  0.00000000000E+00 0. -1.
         11    1    3    3    0    0  0.14625405276E+02 -0.13879579553E+02  0.44061711558E+01  0.20638787575E+02  0.51100000000E-03 0. -1.
        -11    1    3    3    0    0 -0.35387044127E+00 -0.24655809381E+01  0.13421718803E+01  0.28294415118E+01  0.51100000000E-03 0.  1.
        -12    1    3    3    0    0  0.13269857774E+02  0.32163611398E+02 -0.85713287851E+01  0.35833708999E+02  0.00000000000E+00 0.  1.
</event>
<event>
 7    1  0.3449603E-013  0.5930196E+02  0.7816164E-02  0.1266605E+00
        -11   -1    0    0    0    0  0.00000000000E+00  0.00000000000E+00  0.45593999997E+02  0.45594000000E+02  0.51100000000E-03 0.  1.
         11   -1    0    0    0    0 -0.00000000000E+00 -0.00000000000E+00 -0.45593999997E+02  0.45594000000E+02  0.51100000000E-03 0. -1.
    9900012    2    1    2    0    0 -0.61575183955E-01  0.28874842867E+02  0.13526236200E+02  0.59301962180E+02  0.50000033106E+02 0.  0.
         12    1    1    2    0    0  0.61575183955E-01 -0.28874842867E+02 -0.13526236200E+02  0.31886037820E+02  0.00000000000E+00 0. -1.
         11    1    3    3    0    0 -0.10054247882E+02  0.24264231309E+02  0.44038441883E+01  0.26631460069E+02  0.51100000000E-03 0. -1.
        -11    1    3    3    0    0  0.88560459928E+00  0.15475729508E+02 -0.54565213387E+00  0.15510649110E+02  0.51100000000E-03 0.  1.
         12    1    3    3    0    0  0.91070680986E+01 -0.10865117950E+02  0.96680441459E+01  0.17159853001E+02  0.00000000000E+00 0. -1.
</event>
<event>
 7    1  0.3825934E-013  0.5930194E+02  0.7816164E-02  0.1266605E+00
        -11   -1    0    0    0    0  0.00000000000E+00  0.00000000000E+00  0.45593999997E+02  0.45594000000E+02  0.51100000000E-03 0. -1.
         11   -1    0    0    0    0 -0.00000000000E+00 -0.00000000000E+00 -0.45593999997E+02  0.45594000000E+02  0.51100000000E-03 0.  1.
    9900012    2    1    2    0    0  0.26148806736E+02 -0.11749258021E+02 -0.13961220534E+02  0.59301939777E+02  0.49999992247E+02 0.  0.
         12    1    1    2    0    0 -0.26148806736E+02  0.11749258021E+02  0.13961220534E+02  0.31886060223E+02  0.00000000000E+00 0. -1.
         11    1    3    3    0    0  0.12908126081E+02  0.55942562175E+01  0.92257512130E+01  0.16823492719E+02  0.51100000000E-03 0. -1.
        -11    1    3    3    0    0  0.19841383224E+02 -0.67996015676E+01 -0.21305909756E+02  0.29897439029E+02  0.51100000000E-03 0.  1.
         12    1    3    3    0    0 -0.66007025692E+01 -0.10543912671E+02 -0.18810619916E+01  0.12581008029E+02  0.00000000000E+00 0. -1.
</event>
<event>
 7    1  0.3449603E-013  0.5930191E+02  0.7816164E-02  0.1266605E+00
        -11   -1    0    0    0    0  0.00000000000E+00  0.00000000000E+00  0.45593999997E+02  0.45594000000E+02  0.51100000000E-03 0.  1.
         11   -1    0    0    0    0 -0.00000000000E+00 -0.00000000000E+00 -0.45593999997E+02  0.45594000000E+02  0.51100000000E-03 0. -1.
    9900012    2    1    2    0    0  0.11212612024E+02  0.11956623688E+02  0.27350300906E+02  0.59301914036E+02  0.49999945303E+02 0.  0.
         12    1    1    2    0    0 -0.11212612024E+02 -0.11956623688E+02 -0.27350300906E+02  0.31886085964E+02  0.00000000000E+00 0. -1.
         11    1    3    3    0    0  0.67960196684E+01 -0.78291888364E+01  0.25996152643E+02  0.27987176236E+02  0.51100000000E-03 0.  1.
        -11    1    3    3    0    0 -0.94207823925E+01  0.11260246164E+02  0.29795449603E+01  0.14980720042E+02  0.51100000000E-03 0. -1.
        -12    1    3    3    0    0  0.13837374748E+02  0.85255663611E+01 -0.16253966975E+01  0.16334017758E+02  0.00000000000E+00 0.  1.
</event>
<event>
 7    1  0.3449603E-013  0.5930195E+02  0.7816164E-02  0.1266605E+00
        -11   -1    0    0    0    0  0.00000000000E+00  0.00000000000E+00  0.45593999997E+02  0.45594000000E+02  0.51100000000E-03 0.  1.
         11   -1    0    0    0    0 -0.00000000000E+00 -0.00000000000E+00 -0.45593999997E+02  0.45594000000E+02  0.51100000000E-03 0. -1.
    9900012    2    1    2    0    0 -0.22309476426E+01  0.22785852717E+02  0.22193425196E+02  0.59301947668E+02  0.50000006638E+02 0.  0.
         12    1    1    2    0    0  0.22309476426E+01 -0.22785852717E+02 -0.22193425196E+02  0.31886052332E+02  0.00000000000E+00 0. -1.
         11    1    3    3    0    0 -0.22966574890E+00 -0.11909814900E+02 -0.42871376446E+01  0.12660015275E+02  0.51100000000E-03 0. -1.
        -11    1    3    3    0    0 -0.23604879713E+01  0.71756324285E+01 -0.11521983848E+01  0.76412803633E+01  0.51100000000E-03 0.  1.
        -12    1    3    3    0    0  0.35920607760E+00  0.27520035189E+02  0.27632761225E+02  0.39000652029E+02  0.00000000000E+00 0.  1.
</event>
<event>
 7    1  0.3449603E-013  0.5930188E+02  0.7816164E-02  0.1266605E+00
        -11   -1    0    0    0    0  0.00000000000E+00  0.00000000000E+00  0.45593999997E+02  0.45594000000E+02  0.51100000000E-03 0.  1.
         11   -1    0    0    0    0 -0.00000000000E+00 -0.00000000000E+00 -0.45593999997E+02  0.45594000000E+02  0.51100000000E-03 0. -1.
    9900012    2    1    2    0    0 -0.17424993421E+01 -0.14194186310E+02  0.28499361688E+02  0.59301876912E+02  0.49999877596E+02 0.  0.
         12    1    1    2    0    0  0.17424993421E+01  0.14194186310E+02 -0.28499361688E+02  0.31886123088E+02  0.00000000000E+00 0. -1.
         11    1    3    3    0    0 -0.93236597274E+00 -0.22950527293E+01 -0.83833728129E+01  0.87417111207E+01  0.51100000000E-03 0. -1.
        -11    1    3    3    0    0  0.68939755171E+01 -0.47545182542E+01 -0.33188700242E+01  0.90081763281E+01  0.51100000000E-03 0.  1.
         12    1    3    3    0    0 -0.77041088864E+01 -0.71446153266E+01  0.40201604525E+02  0.41551989463E+02  0.00000000000E+00 0. -1.
</event>
<event>
 7    1  0.3449603E-013  0.5930193E+02  0.7816164E-02  0.1266605E+00
        -11   -1    0    0    0    0  0.00000000000E+00  0.00000000000E+00  0.45593999997E+02  0.45594000000E+02  0.51100000000E-03 0. -1.
         11   -1    0    0    0    0 -0.00000000000E+00 -0.00000000000E+00 -0.45593999997E+02  0.45594000000E+02  0.51100000000E-03 0.  1.
    9900012    2    1    2    0    0 -0.24850193564E+02 -0.19586535902E+02  0.39441982584E+01  0.59301933941E+02  0.49999981605E+02 0.  0.
         12    1    1    2    0    0  0.24850193564E+02  0.19586535902E+02 -0.39441982584E+01  0.31886066059E+02  0.00000000000E+00 0. -1.
         11    1    3    3    0    0 -0.13192555251E+02 -0.21858154949E+02 -0.15445561237E+01  0.25577492170E+02  0.51100000000E-03 0. -1.
        -11    1    3    3    0    0  0.49112508949E+01 -0.10225106641E+02  0.62615051801E+01  0.12956837521E+02  0.51100000000E-03 0.  1.
         12    1    3    3    0    0 -0.16568889207E+02  0.12496725688E+02 -0.77275079805E+00  0.20767604250E+02  0.00000000000E+00 0. -1.
</event>
<event>
 7    1  0.3449603E-013  0.5930194E+02  0.7816164E-02  0.1266605E+00
        -11   -1    0    0    0    0  0.00000000000E+00  0.00000000000E+00  0.45593999997E+02  0.45594000000E+02  0.51100000000E-03 0.  1.
         11   -1    0    0    0    0 -0.00000000000E+00 -0.00000000000E+00 -0.45593999997E+02  0.45594000000E+02  0.51100000000E-03 0. -1.
    9900012    2    1    2    0    0 -0.62861477310E+01  0.15665507414E+02  0.27051751089E+02  0.59301937013E+02  0.49999987207E+02 0.  0.
         12    1    1    2    0    0  0.62861477310E+01 -0.15665507414E+02 -0.27051751089E+02  0.31886062987E+02  0.00000000000E+00 0. -1.
         11    1    3    3    0    0  0.14301194942E+02  0.19114937341E+02  0.16888234132E+02  0.29242391466E+02  0.51100000000E-03 0.  1.
        -11    1    3    3    0    0 -0.94239892710E+01  0.68880589393E+01 -0.15852214170E+00  0.11673990717E+02  0.51100000000E-03 0. -1.
        -12    1    3    3    0    0 -0.11163353402E+02 -0.10337488866E+02  0.10322039099E+02  0.18385554829E+02  0.00000000000E+00 0.  1.
</event>
<event>
 7    1  0.4860070E-013  0.5930200E+02  0.7816164E-02  0.1266605E+00
        -11   -1    0    0    0    0  0.00000000000E+00  0.00000000000E+00  0.45593999997E+02  0.45594000000E+02  0.51100000000E-03 0. -1.
         11   -1    0    0    0    0 -0.00000000000E+00 -0.00000000000E+00 -0.45593999997E+02  0.45594000000E+02  0.51100000000E-03 0.  1.
    9900012    2    1    2    0    0 -0.17185976474E+02 -0.21878776450E+02 -0.15578142573E+02  0.59301997235E+02  0.50000097037E+02 0.  0.
         12    1    1    2    0    0  0.17185976474E+02  0.21878776450E+02  0.15578142573E+02  0.31886002765E+02  0.00000000000E+00 0. -1.
         11    1    3    3    0    0 -0.56202934129E+01  0.59714816193E+01 -0.96907774238E+01  0.12694780743E+02  0.51100000000E-03 0. -1.
        -11    1    3    3    0    0 -0.18963653546E+02 -0.18952846239E+02 -0.16014915275E+02  0.31229922317E+02  0.51100000000E-03 0.  1.
         12    1    3    3    0    0  0.73979704854E+01 -0.88974118308E+01  0.10127550126E+02  0.15377294175E+02  0.00000000000E+00 0. -1.
</event>
<event>
 7    1  0.3449603E-013  0.5930194E+02  0.7816164E-02  0.1266605E+00
        -11   -1    0    0    0    0  0.00000000000E+00  0.00000000000E+00  0.45593999997E+02  0.45594000000E+02  0.51100000000E-03 0.  1.
         11   -1    0    0    0    0 -0.00000000000E+00 -0.00000000000E+00 -0.45593999997E+02  0.45594000000E+02  0.51100000000E-03 0. -1.
    9900012    2    1    2    0    0 -0.11893014366E+02 -0.93989275240E+01  0.28052401377E+02  0.59301939530E+02  0.49999991797E+02 0.  0.
         12    1    1    2    0    0  0.11893014366E+02  0.93989275240E+01 -0.28052401377E+02  0.31886060470E+02  0.00000000000E+00 0. -1.
         11    1    3    3    0    0  0.29845336535E+01 -0.23359500015E+01 -0.87730851846E+01  0.95567320490E+01  0.51100000000E-03 0. -1.
        -11    1    3    3    0    0  0.31597095879E+01  0.85410766228E+01  0.66192572107E+01  0.11258255675E+02  0.51100000000E-03 0.  1.
        -12    1    3    3    0    0 -0.18037257607E+02 -0.15604054145E+02  0.30206229350E+02  0.38486951806E+02  0.00000000000E+00 0.  1.
</event>
<event>
 7    1  0.3449603E-013  0.5930190E+02  0.7816164E-02  0.1266605E+00
        -11   -1    0    0    0    0  0.00000000000E+00  0.00000000000E+00  0.45593999997E+02  0.45594000000E+02  0.51100000000E-03 0. -1.
         11   -1    0    0    0    0 -0.00000000000E+00 -0.00000000000E+00 -0.45593999997E+02  0.45594000000E+02  0.51100000000E-03 0.  1.
    9900012    2    1    2    0    0  0.10372779821E+01 -0.71813580185E+01 -0.31049564176E+02  0.59301901397E+02  0.49999922251E+02 0.  0.
         12    1    1    2    0    0 -0.10372779821E+01  0.71813580185E+01  0.31049564176E+02  0.31886098603E+02  0.00000000000E+00 0. -1.
         11    1    3    3    0    0  0.41137932107E+01  0.18067577861E+02 -0.16366928258E+02  0.24723207826E+02  0.51100000000E-03 0. -1.
        -11    1    3    3    0    0  0.12648540373E+01  0.63260689758E+00 -0.71320956227E+01  0.72709583588E+01  0.51100000000E-03 0.  1.
        -12    1    3    3    0    0 -0.43413692659E+01 -0.25881542777E+02 -0.75505402959E+01  0.27307735212E+02  0.00000000000E+00 0.  1.
</event>
<event>
 7    1  0.3449603E-013  0.5930194E+02  0.7816164E-02  0.1266605E+00
        -11   -1    0    0    0    0  0.00000000000E+00  0.00000000000E+00  0.45593999997E+02  0.45594000000E+02  0.51100000000E-03 0. -1.
         11   -1    0    0    0    0 -0.00000000000E+00 -0.00000000000E+00 -0.45593999997E+02  0.45594000000E+02  0.51100000000E-03 0.  1.
    9900012    2    1    2    0    0 -0.80432990463E+01 -0.15094729240E+02 -0.26910504900E+02  0.59301940595E+02  0.49999993740E+02 0.  0.
         12    1    1    2    0    0  0.80432990463E+01  0.15094729240E+02  0.26910504900E+02  0.31886059405E+02  0.00000000000E+00 0. -1.
         11    1    3    3    0    0 -0.27805424240E+01  0.94338815808E+01 -0.16347146571E+02  0.19077702669E+02  0.51100000000E-03 0. -1.
        -11    1    3    3    0    0 -0.51319323724E+01  0.56787785117E+01 -0.58882062138E+01  0.96569264229E+01  0.51100000000E-03 0.  1.
        -12    1    3    3    0    0 -0.13082424990E+00 -0.30207389332E+02 -0.46751521157E+01  0.30567311503E+02  0.00000000000E+00 0.  1.
</event>
<event>
 7    1  0.3449603E-013  0.5930196E+02  0.7816164E-02  0.1266605E+00
        -11   -1    0    0    0    0  0.00000000000E+00  0.00000000000E+00  0.45593999997E+02  0.45594000000E+02  0.51100000000E-03 0.  1.
         11   -1    0    0    0    0 -0.00000000000E+00 -0.00000000000E+00 -0.45593999997E+02  0.45594000000E+02  0.51100000000E-03 0. -1.
    9900012    2    1    2    0    0  0.25278508121E+02  0.13302519915E+02  0.14168973859E+02  0.59301955574E+02  0.50000021057E+02 0.  0.
         12    1    1    2    0    0 -0.25278508121E+02 -0.13302519915E+02 -0.14168973859E+02  0.31886044426E+02  0.00000000000E+00 0. -1.
         11    1    3    3    0    0 -0.22920622493E+01 -0.14496055983E+02  0.36248326476E+01  0.15117162445E+02  0.51100000000E-03 0. -1.
        -11    1    3    3    0    0  0.66446172502E+01  0.11648691064E+02 -0.40261536871E+01  0.14001887575E+02  0.51100000000E-03 0.  1.
        -12    1    3    3    0    0  0.20925953121E+02  0.16149884834E+02  0.14570294899E+02  0.30182905553E+02  0.00000000000E+00 0.  1.
</event>
<event>
 7    1  0.3449603E-013  0.5930194E+02  0.7816164E-02  0.1266605E+00
        -11   -1    0    0    0    0  0.00000000000E+00  0.00000000000E+00  0.45593999997E+02  0.45594000000E+02  0.51100000000E-03 0. -1.
         11   -1    0    0    0    0 -0.00000000000E+00 -0.00000000000E+00 -0.45593999997E+02  0.45594000000E+02  0.51100000000E-03 0.  1.
    9900012    2    1    2    0    0  0.26213846560E+02 -0.14274988066E+02 -0.11215150055E+02  0.59301943070E+02  0.49999998253E+02 0.  0.
         12    1    1    2    0    0 -0.26213846560E+02  0.14274988066E+02  0.11215150055E+02  0.31886056930E+02  0.00000000000E+00 0. -1.
         11    1    3    3    0    0  0.91592588765E+01  0.76498731833E+01 -0.11717768409E+02  0.16724792364E+02  0.51100000000E-03 0. -1.
        -11    1    3    3    0    0 -0.16075787073E+01  0.62618954632E+01 -0.51973886722E+01  0.82950885085E+01  0.51100000000E-03 0.  1.
        -12    1    3    3    0    0  0.18662166391E+02 -0.28186756713E+02  0.57000070255E+01  0.34282062197E+02  0.00000000000E+00 0.  1.
</event>
<event>
 7    1  0.3449603E-013  0.5930194E+02  0.7816164E-02  0.1266605E+00
        -11   -1    0    0    0    0  0.00000000000E+00  0.00000000000E+00  0.45593999997E+02  0.45594000000E+02  0.51100000000E-03 0. -1.
         11   -1    0    0    0    0 -0.00000000000E+00 -0.00000000000E+00 -0.45593999997E+02  0.45594000000E+02  0.51100000000E-03 0.  1.
    9900012    2    1    2    0    0 -0.17976912157E+02 -0.36442088865E+01 -0.26082007497E+02  0.59301941226E+02  0.49999994890E+02 0.  0.
         12    1    1    2    0    0  0.17976912157E+02  0.36442088865E+01  0.26082007497E+02  0.31886058774E+02  0.00000000000E+00 0. -1.
         11    1    3    3    0    0 -0.61844330576E+01 -0.16978453492E+02 -0.38322569317E+01  0.18471634705E+02  0.51100000000E-03 0. -1.
        -11    1    3    3    0    0 -0.54120965178E+01 -0.39896295532E+01 -0.21309306118E+02  0.22344897856E+02  0.51100000000E-03 0.  1.
        -12    1    3    3    0    0 -0.63803825814E+01  0.17323874159E+02 -0.94044444725E+00  0.18485408665E+02  0.00000000000E+00 0.  1.
</event>
<event>
 7    1  0.3449603E-013  0.5930200E+02  0.7816164E-02  0.1266605E+00
        -11   -1    0    0    0    0  0.00000000000E+00  0.00000000000E+00  0.45593999997E+02  0.45594000000E+02  0.51100000000E-03 0.  1.
         11   -1    0    0    0    0 -0.00000000000E+00 -0.00000000000E+00 -0.45593999997E+02  0.45594000000E+02  0.51100000000E-03 0. -1.
    9900012    2    1    2    0    0 -0.19170971803E+02  0.56150957922E+01  0.24852801733E+02  0.59301996572E+02  0.50000095829E+02 0.  0.
         12    1    1    2    0    0  0.19170971803E+02 -0.56150957922E+01 -0.24852801733E+02  0.31886003428E+02  0.00000000000E+00 0. -1.
         11    1    3    3    0    0 -0.20798688525E+02  0.63066235403E+01  0.14560767445E+02  0.26160559889E+02  0.51100000000E-03 0. -1.
        -11    1    3    3    0    0  0.86384600490E+00 -0.15624336417E+02  0.91930234986E+01  0.18148768545E+02  0.51100000000E-03 0.  1.
         12    1    3    3    0    0  0.76387071729E+00  0.14932808669E+02  0.10990107890E+01  0.14992668139E+02  0.00000000000E+00 0. -1.
</event>
<event>
 7    1  0.3449603E-013  0.5930194E+02  0.7816164E-02  0.1266605E+00
        -11   -1    0    0    0    0  0.00000000000E+00  0.00000000000E+00  0.45593999997E+02  0.45594000000E+02  0.51100000000E-03 0. -1.
         11   -1    0    0    0    0 -0.00000000000E+00 -0.00000000000E+00 -0.45593999997E+02  0.45594000000E+02  0.51100000000E-03 0.  1.
    9900012    2    1    2    0    0 -0.15759129139E+02  0.11889454372E+02 -0.25040193451E+02  0.59301944043E+02  0.50000000027E+02 0.  0.
         12    1    1    2    0    0  0.15759129139E+02 -0.11889454372E+02  0.25040193451E+02  0.31886055957E+02  0.00000000000E+00 0. -1.
         11    1    3    3    0    0 -0.49406630959E+01  0.17527733951E+02  0.75728912779E+01  0.19722583296E+02  0.51100000000E-03 0. -1.
        -11    1    3    3    0    0  0.30137580359E+01  0.37308801351E+01 -0.32412898653E+01  0.57886236994E+01  0.51100000000E-03 0.  1.
        -12    1    3    3    0    0 -0.13832224079E+02 -0.93691597143E+01 -0.29371794863E+02  0.33790737047E+02  0.00000000000E+00 0.  1.
</event>
<event>
 7    1  0.3449603E-013  0.5930192E+02  0.7816164E-02  0.1266605E+00
        -11   -1    0    0    0    0  0.00000000000E+00  0.00000000000E+00  0.45593999997E+02  0.45594000000E+02  0.51100000000E-03 0.  1.
         11   -1    0    0    0    0 -0.00000000000E+00 -0.00000000000E+00 -0.45593999997E+02  0.45594000000E+02  0.51100000000E-03 0. -1.
    9900012    2    1    2    0    0 -0.21503968694E+02 -0.55042554359E+01  0.22891146732E+02  0.59301920025E+02  0.49999956224E+02 0.  0.
         12    1    1    2    0    0  0.21503968694E+02  0.55042554359E+01 -0.22891146732E+02  0.31886079975E+02  0.00000000000E+00 0. -1.
         11    1    3    3    0    0  0.90414256002E+00 -0.13416168652E+01 -0.10034285296E+01  0.19037538331E+01  0.51100000000E-03 0. -1.
        -11    1    3    3    0    0  0.10724690362E+02  0.91296589229E+01 -0.60997837610E+00  0.14097578845E+02  0.51100000000E-03 0.  1.
        -12    1    3    3    0    0 -0.33132801616E+02 -0.13292297494E+02  0.24504553637E+02  0.43300587347E+02  0.00000000000E+00 0.  1.
</event>
<event>
 7    1  0.3449603E-013  0.5930197E+02  0.7816164E-02  0.1266605E+00
        -11   -1    0    0    0    0  0.00000000000E+00  0.00000000000E+00  0.45593999997E+02  0.45594000000E+02  0.51100000000E-03 0.  1.
         11   -1    0    0    0    0 -0.00000000000E+00 -0.00000000000E+00 -0.45593999997E+02  0.45594000000E+02  0.51100000000E-03 0. -1.
    9900012    2    1    2    0    0  0.23656456560E+02 -0.14448538935E+01  0.21330805081E+02  0.59301971945E+02  0.50000050914E+02 0.  0.
         12    1    1    2    0    0 -0.23656456560E+02  0.14448538935E+01 -0.21330805081E+02  0.31886028055E+02  0.00000000000E+00 0. -1.
         11    1    3    3    0    0  0.39826811562E+00  0.74356824658E+01 -0.10176373319E+02  0.12609780546E+02  0.51100000000E-03 0. -1.
        -11    1    3    3    0    0  0.99528810657E+01  0.81203294031E+01  0.10884743360E+02  0.16836782038E+02  0.51100000000E-03 0.  1.
        -12    1    3    3    0    0  0.13305307379E+02 -0.17000865762E+02  0.20622435040E+02  0.29855409361E+02  0.00000000000E+00 0.  1.
</event>
<event>
 7    1  0.3449603E-013  0.5930193E+02  0.7816164E-02  0.1266605E+00
        -11   -1    0    0    0    0  0.00000000000E+00  0.00000000000E+00  0.45593999997E+02  0.45594000000E+02  0.51100000000E-03 0. -1.
         11   -1    0    0    0    0 -0.00000000000E+00 -0.00000000000E+00 -0.45593999997E+02  0.45594000000E+02  0.51100000000E-03 0.  1.
    9900012    2    1    2    0    0  0.55144319544E+01 -0.23184204861E+02 -0.21185022534E+02  0.59301929459E+02  0.49999973430E+02 0.  0.
         12    1    1    2    0    0 -0.55144319544E+01  0.23184204861E+02  0.21185022534E+02  0.31886070541E+02  0.00000000000E+00 0. -1.
         11    1    3    3    0    0  0.26723554563E+01 -0.17644360924E+01  0.52172897183E+01  0.61216689452E+01  0.51100000000E-03 0. -1.
        -11    1    3    3    0    0  0.14551114056E+02 -0.25437249593E+02 -0.69416580583E+01  0.30116029021E+02  0.51100000000E-03 0.  1.
         12    1    3    3    0    0 -0.11709037558E+02  0.40174808246E+01 -0.19460654194E+02  0.23064231493E+02  0.00000000000E+00 0. -1.
</event>
<event>
 7    1  0.3449603E-013  0.5930217E+02  0.7816164E-02  0.1266604E+00
        -11   -1    0    0    0    0  0.00000000000E+00  0.00000000000E+00  0.45593999997E+02  0.45594000000E+02  0.51100000000E-03 0. -1.
         11   -1    0    0    0    0 -0.00000000000E+00 -0.00000000000E+00 -0.45593999997E+02  0.45594000000E+02  0.51100000000E-03 0.  1.
    9900012    2    1    2    0    0 -0.13038047329E+02  0.94595460058E+01 -0.27517852718E+02  0.59302173886E+02  0.50000419205E+02 0.  0.
         12    1    1    2    0    0  0.13038047329E+02 -0.94595460058E+01  0.27517852718E+02  0.31885826114E+02  0.00000000000E+00 0. -1.
         11    1    3    3    0    0  0.56219220482E+01  0.30333041939E+01  0.18306261818E+01  0.66451587135E+01  0.51100000000E-03 0. -1.
        -11    1    3    3    0    0  0.46728023993E+01  0.15802582985E+02 -0.19796494268E+02  0.25757676464E+02  0.51100000000E-03 0.  1.
         12    1    3    3    0    0 -0.23332771776E+02 -0.93763411734E+01 -0.95519846316E+01  0.26899338709E+02  0.00000000000E+00 0. -1.
</event>
<event>
 7    1  0.3449603E-013  0.5930194E+02  0.7816164E-02  0.1266605E+00
        -11   -1    0    0    0    0  0.00000000000E+00  0.00000000000E+00  0.45593999997E+02  0.45594000000E+02  0.51100000000E-03 0.  1.
         11   -1    0    0    0    0 -0.00000000000E+00 -0.00000000000E+00 -0.45593999997E+02  0.45594000000E+02  0.51100000000E-03 0. -1.
    9900012    2    1    2    0    0 -0.11514511934E+02  0.19102876093E+01  0.29673014191E+02  0.59301937919E+02  0.49999988859E+02 0.  0.
         12    1    1    2    0    0  0.11514511934E+02 -0.19102876093E+01 -0.29673014191E+02  0.31886062081E+02  0.00000000000E+00 0. -1.
         11    1    3    3    0    0  0.33435692393E+01  0.32224381309E+01 -0.70409491476E+01  0.84343658876E+01  0.51100000000E-03 0. -1.
        -11    1    3    3    0    0 -0.65866991903E+01  0.46595940888E+01 -0.39217056516E+01  0.89708527340E+01  0.51100000000E-03 0.  1.
        -12    1    3    3    0    0 -0.82713819831E+01 -0.59717446104E+01  0.40635668990E+02  0.41896719298E+02  0.00000000000E+00 0.  1.
</event>
<event>
 7    1  0.3449603E-013  0.5930193E+02  0.7816164E-02  0.1266605E+00
        -11   -1    0    0    0    0  0.00000000000E+00  0.00000000000E+00  0.45593999997E+02  0.45594000000E+02  0.51100000000E-03 0. -1.
         11   -1    0    0    0    0 -0.00000000000E+00 -0.00000000000E+00 -0.45593999997E+02  0.45594000000E+02  0.51100000000E-03 0.  1.
    9900012    2    1    2    0    0  0.57003139867E+01 -0.13094588227E+02 -0.28508935462E+02  0.59301933740E+02  0.49999981237E+02 0.  0.
         12    1    1    2    0    0 -0.57003139867E+01  0.13094588227E+02  0.28508935462E+02  0.31886066260E+02  0.00000000000E+00 0. -1.
         11    1    3    3    0    0  0.24899859570E+02 -0.75232336839E+01 -0.14943841254E+02  0.29998674027E+02  0.51100000000E-03 0. -1.
        -11    1    3    3    0    0 -0.12361675630E+01  0.47397479632E+01 -0.46492997108E+01  0.67534664477E+01  0.51100000000E-03 0.  1.
        -12    1    3    3    0    0 -0.17963378020E+02 -0.10311102506E+02 -0.89157944967E+01  0.22549793265E+02  0.00000000000E+00 0.  1.
</event>
<event>
 7    1  0.3449603E-013  0.5930195E+02  0.7816164E-02  0.1266605E+00
        -11   -1    0    0    0    0  0.00000000000E+00  0.00000000000E+00  0.45593999997E+02  0.45594000000E+02  0.51100000000E-03 0.  1.
         11   -1    0    0    0    0 -0.00000000000E+00 -0.00000000000E+00 -0.45593999997E+02  0.45594000000E+02  0.51100000000E-03 0. -1.
    9900012    2    1    2    0    0  0.19792876143E+01  0.30772355068E+02  0.81157046620E+01  0.59301951671E+02  0.50000013940E+02 0.  0.
         12    1    1    2    0    0 -0.19792876143E+01 -0.30772355068E+02 -0.81157046620E+01  0.31886048329E+02  0.00000000000E+00 0. -1.
         11    1    3    3    0    0  0.28460288202E+01 -0.20451836701E+01 -0.13868578390E+02  0.14304549036E+02  0.51100000000E-03 0. -1.
        -11    1    3    3    0    0  0.52614678730E+01  0.37576412637E+00  0.69366095566E+01  0.87144016007E+01  0.51100000000E-03 0.  1.
         12    1    3    3    0    0 -0.61282090789E+01  0.32441774611E+02  0.15047673495E+02  0.36283001035E+02  0.00000000000E+00 0. -1.
</event>
<event>
 7    1  0.3449603E-013  0.5930194E+02  0.7816164E-02  0.1266605E+00
        -11   -1    0    0    0    0  0.00000000000E+00  0.00000000000E+00  0.45593999997E+02  0.45594000000E+02  0.51100000000E-03 0.  1.
         11   -1    0    0    0    0 -0.00000000000E+00 -0.00000000000E+00 -0.45593999997E+02  0.45594000000E+02  0.51100000000E-03 0. -1.
    9900012    2    1    2    0    0 -0.97730793821E+01  0.15071102186E+02  0.26345203569E+02  0.59301937954E+02  0.49999988922E+02 0.  0.
         12    1    1    2    0    0  0.97730793821E+01 -0.15071102186E+02 -0.26345203569E+02  0.31886062046E+02  0.00000000000E+00 0. -1.
         11    1    3    3    0    0 -0.19654905662E+01 -0.59869231570E+01  0.11714561351E+01  0.64092676486E+01  0.51100000000E-03 0. -1.
        -11    1    3    3    0    0 -0.18344022582E+02  0.54188074089E+01  0.27912455701E+02  0.33837432257E+02  0.51100000000E-03 0.  1.
        -12    1    3    3    0    0  0.10536433766E+02  0.15639217934E+02 -0.27387082663E+01  0.19055238048E+02  0.00000000000E+00 0.  1.
</event>
<event>
 7    1  0.3449603E-013  0.5930194E+02  0.7816164E-02  0.1266605E+00
        -11   -1    0    0    0    0  0.00000000000E+00  0.00000000000E+00  0.45593999997E+02  0.45594000000E+02  0.51100000000E-03 0.  1.
         11   -1    0    0    0    0 -0.00000000000E+00 -0.00000000000E+00 -0.45593999997E+02  0.45594000000E+02  0.51100000000E-03 0. -1.
    9900012    2    1    2    0    0 -0.45996019630E+01 -0.81529844033E+01  0.30481034097E+02  0.59301938272E+02  0.49999989503E+02 0.  0.
         12    1    1    2    0    0  0.45996019630E+01  0.81529844033E+01 -0.30481034097E+02  0.31886061728E+02  0.00000000000E+00 0. -1.
         11    1    3    3    0    0 -0.10950714448E+00  0.10269872158E+02 -0.52715034540E+01  0.11544306600E+02  0.51100000000E-03 0. -1.
        -11    1    3    3    0    0  0.10529759518E+02 -0.95412742019E+01  0.15662799117E+02  0.21147931940E+02  0.51100000000E-03 0.  1.
        -12    1    3    3    0    0 -0.15019854336E+02 -0.88815823593E+01  0.20089738433E+02  0.26609699732E+02  0.00000000000E+00 0.  1.
</event>
<event>
 7    1  0.3449603E-013  0.5930193E+02  0.7816164E-02  0.1266605E+00
        -11   -1    0    0    0    0  0.00000000000E+00  0.00000000000E+00  0.45593999997E+02  0.45594000000E+02  0.51100000000E-03 0. -1.
         11   -1    0    0    0    0 -0.00000000000E+00 -0.00000000000E+00 -0.45593999997E+02  0.45594000000E+02  0.51100000000E-03 0.  1.
    9900012    2    1    2    0    0 -0.11717340747E+01  0.17785153049E+02 -0.26439301715E+02  0.59301932433E+02  0.49999978854E+02 0.  0.
         12    1    1    2    0    0  0.11717340747E+01 -0.17785153049E+02  0.26439301715E+02  0.31886067567E+02  0.00000000000E+00 0. -1.
         11    1    3    3    0    0 -0.13776573276E+02 -0.50709139838E+01 -0.53353623317E+01  0.15619674495E+02  0.51100000000E-03 0. -1.
        -11    1    3    3    0    0 -0.68633890284E+01  0.15948270859E+02 -0.72849465347E+01  0.18828805024E+02  0.51100000000E-03 0.  1.
        -12    1    3    3    0    0  0.19468228230E+02  0.69077961732E+01 -0.13818992849E+02  0.24853452914E+02  0.00000000000E+00 0.  1.
</event>
<event>
 7    1  0.3449603E-013  0.5930195E+02  0.7816164E-02  0.1266605E+00
        -11   -1    0    0    0    0  0.00000000000E+00  0.00000000000E+00  0.45593999997E+02  0.45594000000E+02  0.51100000000E-03 0.  1.
         11   -1    0    0    0    0 -0.00000000000E+00 -0.00000000000E+00 -0.45593999997E+02  0.45594000000E+02  0.51100000000E-03 0. -1.
    9900012    2    1    2    0    0 -0.18635316298E+02  0.51877816363E+01  0.25348212314E+02  0.59301953532E+02  0.50000017334E+02 0.  0.
         12    1    1    2    0    0  0.18635316298E+02 -0.51877816363E+01 -0.25348212314E+02  0.31886046468E+02  0.00000000000E+00 0. -1.
         11    1    3    3    0    0 -0.18177584298E+02  0.16727965373E+01  0.14752827037E+02  0.23470592771E+02  0.51100000000E-03 0. -1.
        -11    1    3    3    0    0 -0.79242008013E+01 -0.13447412852E+02  0.35706763765E+01  0.16011733223E+02  0.51100000000E-03 0.  1.
        -12    1    3    3    0    0  0.74664688014E+01  0.16962397951E+02  0.70247089001E+01  0.19819627538E+02  0.00000000000E+00 0.  1.
</event>
<event>
 7    1  0.3449603E-013  0.5930194E+02  0.7816164E-02  0.1266605E+00
        -11   -1    0    0    0    0  0.00000000000E+00  0.00000000000E+00  0.45593999997E+02  0.45594000000E+02  0.51100000000E-03 0.  1.
         11   -1    0    0    0    0 -0.00000000000E+00 -0.00000000000E+00 -0.45593999997E+02  0.45594000000E+02  0.51100000000E-03 0. -1.
    9900012    2    1    2    0    0 -0.24620007293E+02  0.10796689180E+02  0.17146643752E+02  0.59301942728E+02  0.49999997630E+02 0.  0.
         12    1    1    2    0    0  0.24620007293E+02 -0.10796689180E+02 -0.17146643752E+02  0.31886057272E+02  0.00000000000E+00 0. -1.
         11    1    3    3    0    0 -0.17210109603E+02 -0.42335818619E+01 -0.96181740407E+00  0.17749258602E+02  0.51100000000E-03 0. -1.
        -11    1    3    3    0    0 -0.19360108204E+02  0.12537423344E+02  0.49245216262E+01  0.23584988601E+02  0.51100000000E-03 0.  1.
        -12    1    3    3    0    0  0.11950210514E+02  0.24928476979E+01  0.13183939530E+02  0.17967695526E+02  0.00000000000E+00 0.  1.
</event>
<event>
 7    1  0.3449603E-013  0.5930179E+02  0.7816164E-02  0.1266605E+00
        -11   -1    0    0    0    0  0.00000000000E+00  0.00000000000E+00  0.45593999997E+02  0.45594000000E+02  0.51100000000E-03 0.  1.
         11   -1    0    0    0    0 -0.00000000000E+00 -0.00000000000E+00 -0.45593999997E+02  0.45594000000E+02  0.51100000000E-03 0. -1.
    9900012    2    1    2    0    0  0.30610276179E+01  0.31738185000E+02 -0.21895416505E+00  0.59301792666E+02  0.49999723952E+02 0.  0.
         12    1    1    2    0    0 -0.30610276179E+01 -0.31738185000E+02  0.21895416505E+00  0.31886207334E+02  0.00000000000E+00 0. -1.
         11    1    3    3    0    0  0.18319584740E+02  0.26258172595E+02 -0.69937232443E+01  0.32772106709E+02  0.51100000000E-03 0. -1.
        -11    1    3    3    0    0 -0.65349087174E+01  0.44851344174E+01 -0.67460061205E+01  0.10408172824E+02  0.51100000000E-03 0.  1.
        -12    1    3    3    0    0 -0.87236484052E+01  0.99487798816E+00  0.13520775200E+02  0.16121513133E+02  0.00000000000E+00 0.  1.
</event>
<event>
 7    1  0.3449603E-013  0.5930194E+02  0.7816164E-02  0.1266605E+00
        -11   -1    0    0    0    0  0.00000000000E+00  0.00000000000E+00  0.45593999997E+02  0.45594000000E+02  0.51100000000E-03 0. -1.
         11   -1    0    0    0    0 -0.00000000000E+00 -0.00000000000E+00 -0.45593999997E+02  0.45594000000E+02  0.51100000000E-03 0.  1.
    9900012    2    1    2    0    0 -0.13764772521E+02 -0.28519901513E+02 -0.37238431704E+01  0.59301941090E+02  0.49999994643E+02 0.  0.
         12    1    1    2    0    0  0.13764772521E+02  0.28519901513E+02  0.37238431704E+01  0.31886058910E+02  0.00000000000E+00 0. -1.
         11    1    3    3    0    0  0.63953883634E+00 -0.41898351377E+00  0.39897619012E+01  0.40623586003E+01  0.51100000000E-03 0. -1.
        -11    1    3    3    0    0 -0.21981604713E+02 -0.32714316261E+02  0.50079827217E+01  0.39730307391E+02  0.51100000000E-03 0.  1.
        -12    1    3    3    0    0  0.75772933562E+01  0.46133982617E+01 -0.12721587793E+02  0.15509275099E+02  0.00000000000E+00 0.  1.
</event>
<event>
 7    1  0.3449603E-013  0.5930208E+02  0.7816164E-02  0.1266604E+00
        -11   -1    0    0    0    0  0.00000000000E+00  0.00000000000E+00  0.45593999997E+02  0.45594000000E+02  0.51100000000E-03 0. -1.
         11   -1    0    0    0    0 -0.00000000000E+00 -0.00000000000E+00 -0.45593999997E+02  0.45594000000E+02  0.51100000000E-03 0.  1.
    9900012    2    1    2    0    0 -0.18343809651E+02  0.18480367864E+02 -0.18403604112E+02  0.59302078448E+02  0.50000245150E+02 0.  0.
         12    1    1    2    0    0  0.18343809651E+02 -0.18480367864E+02  0.18403604112E+02  0.31885921552E+02  0.00000000000E+00 0. -1.
         11    1    3    3    0    0 -0.12092547687E+02  0.21262619886E+02 -0.18039750491E+02  0.30393441925E+02  0.51100000000E-03 0. -1.
        -11    1    3    3    0    0  0.37475203559E+00 -0.82060116920E+00 -0.13784193286E+02  0.13813681992E+02  0.51100000000E-03 0.  1.
         12    1    3    3    0    0 -0.66260139992E+01 -0.19616508529E+01  0.13420339665E+02  0.15094954531E+02  0.00000000000E+00 0. -1.
</event>
<event>
 7    1  0.3449603E-013  0.5930195E+02  0.7816164E-02  0.1266605E+00
        -11   -1    0    0    0    0  0.00000000000E+00  0.00000000000E+00  0.45593999997E+02  0.45594000000E+02  0.51100000000E-03 0. -1.
         11   -1    0    0    0    0 -0.00000000000E+00 -0.00000000000E+00 -0.45593999997E+02  0.45594000000E+02  0.51100000000E-03 0.  1.
    9900012    2    1    2    0    0  0.51265730346E+01 -0.14119921473E+02 -0.28125904546E+02  0.59301945995E+02  0.50000003587E+02 0.  0.
         12    1    1    2    0    0 -0.51265730346E+01  0.14119921473E+02  0.28125904546E+02  0.31886054005E+02  0.00000000000E+00 0. -1.
         11    1    3    3    0    0 -0.10680431137E+02 -0.22526674290E+02 -0.68822474529E+01  0.25862869023E+02  0.51100000000E-03 0. -1.
        -11    1    3    3    0    0  0.89273282678E+01 -0.47628099871E+01 -0.12911955460E+02  0.16404272097E+02  0.51100000000E-03 0.  1.
         12    1    3    3    0    0  0.68796759043E+01  0.13169562804E+02 -0.83317016339E+01  0.17034804875E+02  0.00000000000E+00 0. -1.
</event>
<event>
 7    1  0.3449603E-013  0.5930196E+02  0.7816164E-02  0.1266605E+00
        -11   -1    0    0    0    0  0.00000000000E+00  0.00000000000E+00  0.45593999997E+02  0.45594000000E+02  0.51100000000E-03 0.  1.
         11   -1    0    0    0    0 -0.00000000000E+00 -0.00000000000E+00 -0.45593999997E+02  0.45594000000E+02  0.51100000000E-03 0. -1.
    9900012    2    1    2    0    0 -0.23462952402E+01 -0.13728954538E+02  0.28683279764E+02  0.59301955528E+02  0.50000020973E+02 0.  0.
         12    1    1    2    0    0  0.23462952402E+01  0.13728954538E+02 -0.28683279764E+02  0.31886044472E+02  0.00000000000E+00 0. -1.
         11    1    3    3    0    0 -0.14559968424E+02 -0.82806465039E+01  0.92452240870E+01  0.19132066164E+02  0.51100000000E-03 0. -1.
        -11    1    3    3    0    0  0.10192722886E+02 -0.18921272908E+02  0.10982161030E+02  0.24135327415E+02  0.51100000000E-03 0.  1.
         12    1    3    3    0    0  0.20209502979E+01  0.13472964874E+02  0.84558946469E+01  0.16034561948E+02  0.00000000000E+00 0. -1.
</event>
<event>
 7    1  0.3449603E-013  0.5930198E+02  0.7816164E-02  0.1266605E+00
        -11   -1    0    0    0    0  0.00000000000E+00  0.00000000000E+00  0.45593999997E+02  0.45594000000E+02  0.51100000000E-03 0.  1.
         11   -1    0    0    0    0 -0.00000000000E+00 -0.00000000000E+00 -0.45593999997E+02  0.45594000000E+02  0.51100000000E-03 0. -1.
    9900012    2    1    2    0    0 -0.20759304665E+02  0.77763287686E+01  0.22919387231E+02  0.59301979077E+02  0.50000063921E+02 0.  0.
         12    1    1    2    0    0  0.20759304665E+02 -0.77763287686E+01 -0.22919387231E+02  0.31886020923E+02  0.00000000000E+00 0. -1.
         11    1    3    3    0    0 -0.15213744385E+02 -0.71217866381E+01  0.35103517779E+01  0.17161014918E+02  0.51100000000E-03 0. -1.
        -11    1    3    3    0    0  0.94055498630E+01 -0.32268830935E+01  0.15361694047E+02  0.18299147165E+02  0.51100000000E-03 0.  1.
        -12    1    3    3    0    0 -0.14951110142E+02  0.18124998500E+02  0.40473414061E+01  0.23841816994E+02  0.00000000000E+00 0.  1.
</event>
<event>
 7    1  0.3449603E-013  0.5930198E+02  0.7816164E-02  0.1266605E+00
        -11   -1    0    0    0    0  0.00000000000E+00  0.00000000000E+00  0.45593999997E+02  0.45594000000E+02  0.51100000000E-03 0.  1.
         11   -1    0    0    0    0 -0.00000000000E+00 -0.00000000000E+00 -0.45593999997E+02  0.45594000000E+02  0.51100000000E-03 0. -1.
    9900012    2    1    2    0    0  0.55769089994E+01 -0.10448989086E+01  0.31377134382E+02  0.59301979713E+02  0.50000065082E+02 0.  0.
         12    1    1    2    0    0 -0.55769089994E+01  0.10448989086E+01 -0.31377134382E+02  0.31886020287E+02  0.00000000000E+00 0. -1.
         11    1    3    3    0    0 -0.15277084793E+02  0.10609648059E+02  0.12145850153E+02  0.22214311331E+02  0.51100000000E-03 0. -1.
        -11    1    3    3    0    0  0.13542331764E+01  0.89531518101E+00  0.12965647519E+02  0.13066887641E+02  0.51100000000E-03 0.  1.
         12    1    3    3    0    0  0.19499760616E+02 -0.12549862149E+02  0.62656367098E+01  0.24020780741E+02  0.00000000000E+00 0. -1.
</event>
<event>
 7    1  0.3449603E-013  0.5930195E+02  0.7816164E-02  0.1266605E+00
        -11   -1    0    0    0    0  0.00000000000E+00  0.00000000000E+00  0.45593999997E+02  0.45594000000E+02  0.51100000000E-03 0. -1.
         11   -1    0    0    0    0 -0.00000000000E+00 -0.00000000000E+00 -0.45593999997E+02  0.45594000000E+02  0.51100000000E-03 0.  1.
    9900012    2    1    2    0    0 -0.12829939930E+02 -0.17049831523E+02 -0.23694224137E+02  0.59301947077E+02  0.50000005561E+02 0.  0.
         12    1    1    2    0    0  0.12829939930E+02  0.17049831523E+02  0.23694224137E+02  0.31886052923E+02  0.00000000000E+00 0. -1.
         11    1    3    3    0    0  0.31889117159E+01 -0.10073653195E+02  0.14362355087E+01  0.10663508772E+02  0.51100000000E-03 0. -1.
        -11    1    3    3    0    0 -0.20873102637E+02  0.30998334745E+01  0.32271394464E-01  0.21102047838E+02  0.51100000000E-03 0.  1.
         12    1    3    3    0    0  0.48542509911E+01 -0.10076011802E+02 -0.25162731040E+02  0.27536390467E+02  0.00000000000E+00 0. -1.
</event>
<event>
 7    1  0.3449603E-013  0.5930195E+02  0.7816164E-02  0.1266605E+00
        -11   -1    0    0    0    0  0.00000000000E+00  0.00000000000E+00  0.45593999997E+02  0.45594000000E+02  0.51100000000E-03 0. -1.
         11   -1    0    0    0    0 -0.00000000000E+00 -0.00000000000E+00 -0.45593999997E+02  0.45594000000E+02  0.51100000000E-03 0.  1.
    9900012    2    1    2    0    0  0.23204140277E+02 -0.45845496522E+01 -0.21383871811E+02  0.59301949834E+02  0.50000010590E+02 0.  0.
         12    1    1    2    0    0 -0.23204140277E+02  0.45845496522E+01  0.21383871811E+02  0.31886050166E+02  0.00000000000E+00 0. -1.
         11    1    3    3    0    0  0.64477304810E+01 -0.31734865933E+01 -0.10503250047E+02  0.12726449125E+02  0.51100000000E-03 0. -1.
        -11    1    3    3    0    0  0.58448065275E-01 -0.59235345293E+01 -0.24092432211E+02  0.24810017485E+02  0.51100000000E-03 0.  1.
         12    1    3    3    0    0  0.16697961731E+02  0.45124714704E+01  0.13211810446E+02  0.21765483225E+02  0.00000000000E+00 0. -1.
</event>
<event>
 7    1  0.3449603E-013  0.5930193E+02  0.7816164E-02  0.1266605E+00
        -11   -1    0    0    0    0  0.00000000000E+00  0.00000000000E+00  0.45593999997E+02  0.45594000000E+02  0.51100000000E-03 0. -1.
         11   -1    0    0    0    0 -0.00000000000E+00 -0.00000000000E+00 -0.45593999997E+02  0.45594000000E+02  0.51100000000E-03 0.  1.
    9900012    2    1    2    0    0  0.16562864978E+02 -0.26189721117E+02 -0.75160638329E+01  0.59301934015E+02  0.49999981739E+02 0.  0.
         12    1    1    2    0    0 -0.16562864978E+02  0.26189721117E+02  0.75160638329E+01  0.31886065985E+02  0.00000000000E+00 0. -1.
         11    1    3    3    0    0 -0.36426408400E+01 -0.54655602235E+01 -0.38348493536E+01  0.76057380097E+01  0.51100000000E-03 0. -1.
        -11    1    3    3    0    0 -0.10921006878E+02 -0.14533262774E+02  0.48851930443E+01  0.18824166102E+02  0.51100000000E-03 0.  1.
         12    1    3    3    0    0  0.31126512696E+02 -0.61908981192E+01 -0.85664075235E+01  0.32872029903E+02  0.00000000000E+00 0. -1.
</event>
<event>
 7    1  0.3449603E-013  0.5930192E+02  0.7816164E-02  0.1266605E+00
        -11   -1    0    0    0    0  0.00000000000E+00  0.00000000000E+00  0.45593999997E+02  0.45594000000E+02  0.51100000000E-03 0.  1.
         11   -1    0    0    0    0 -0.00000000000E+00 -0.00000000000E+00 -0.45593999997E+02  0.45594000000E+02  0.51100000000E-03 0. -1.
    9900012    2    1    2    0    0  0.36682427109E+01 -0.13775849792E+02  0.28521785995E+02  0.59301916540E+02  0.49999949868E+02 0.  0.
         12    1    1    2    0    0 -0.36682427109E+01  0.13775849792E+02 -0.28521785995E+02  0.31886083460E+02  0.00000000000E+00 0. -1.
         11    1    3    3    0    0 -0.36413777051E+01 -0.14240031119E+02  0.18268283066E+02  0.23447138083E+02  0.51100000000E-03 0. -1.
        -11    1    3    3    0    0 -0.31337884703E+01 -0.84444651538E+01  0.17974774683E+02  0.20105276598E+02  0.51100000000E-03 0.  1.
         12    1    3    3    0    0  0.10443408886E+02  0.89086464812E+01 -0.77212717536E+01  0.15749501858E+02  0.00000000000E+00 0. -1.
</event>
<event>
 7    1  0.3449603E-013  0.5930196E+02  0.7816164E-02  0.1266605E+00
        -11   -1    0    0    0    0  0.00000000000E+00  0.00000000000E+00  0.45593999997E+02  0.45594000000E+02  0.51100000000E-03 0.  1.
         11   -1    0    0    0    0 -0.00000000000E+00 -0.00000000000E+00 -0.45593999997E+02  0.45594000000E+02  0.51100000000E-03 0. -1.
    9900012    2    1    2    0    0  0.12372224754E+02  0.50589895439E+01  0.28949168543E+02  0.59301957915E+02  0.50000025326E+02 0.  0.
         12    1    1    2    0    0 -0.12372224754E+02 -0.50589895439E+01 -0.28949168543E+02  0.31886042085E+02  0.00000000000E+00 0. -1.
         11    1    3    3    0    0 -0.49646784455E+01 -0.16239276238E+02  0.11581928135E+02  0.20554882252E+02  0.51100000000E-03 0. -1.
        -11    1    3    3    0    0 -0.21632554227E+01 -0.11434351695E+01  0.67468670020E+01  0.71768609165E+01  0.51100000000E-03 0.  1.
        -12    1    3    3    0    0  0.19500158622E+02  0.22441700951E+02  0.10620373406E+02  0.31570214746E+02  0.00000000000E+00 0.  1.
</event>
<event>
 7    1  0.3449603E-013  0.5930195E+02  0.7816164E-02  0.1266605E+00
        -11   -1    0    0    0    0  0.00000000000E+00  0.00000000000E+00  0.45593999997E+02  0.45594000000E+02  0.51100000000E-03 0. -1.
         11   -1    0    0    0    0 -0.00000000000E+00 -0.00000000000E+00 -0.45593999997E+02  0.45594000000E+02  0.51100000000E-03 0.  1.
    9900012    2    1    2    0    0 -0.26971937703E+02  0.16022598675E+02 -0.57018426226E+01  0.59301951310E+02  0.50000013281E+02 0.  0.
         12    1    1    2    0    0  0.26971937703E+02 -0.16022598675E+02  0.57018426226E+01  0.31886048690E+02  0.00000000000E+00 0. -1.
         11    1    3    3    0    0  0.42240686576E+01 -0.46175206614E+01 -0.83737974203E+01  0.10453934024E+02  0.51100000000E-03 0. -1.
        -11    1    3    3    0    0 -0.60855631499E-01 -0.29947952867E+00 -0.94209515157E+01  0.94259068061E+01  0.51100000000E-03 0.  1.
         12    1    3    3    0    0 -0.31135150729E+02  0.20939598865E+02  0.12092906313E+02  0.39422110480E+02  0.00000000000E+00 0. -1.
</event>
<event>
 7    1  0.3449603E-013  0.5930191E+02  0.7816164E-02  0.1266605E+00
        -11   -1    0    0    0    0  0.00000000000E+00  0.00000000000E+00  0.45593999997E+02  0.45594000000E+02  0.51100000000E-03 0.  1.
         11   -1    0    0    0    0 -0.00000000000E+00 -0.00000000000E+00 -0.45593999997E+02  0.45594000000E+02  0.51100000000E-03 0. -1.
    9900012    2    1    2    0    0  0.15454858088E+01  0.27792039686E+02  0.15554305715E+02  0.59301914907E+02  0.49999946891E+02 0.  0.
         12    1    1    2    0    0 -0.15454858088E+01 -0.27792039686E+02 -0.15554305715E+02  0.31886085093E+02  0.00000000000E+00 0. -1.
         11    1    3    3    0    0  0.54615832083E+01 -0.51376403747E+01 -0.45658455452E+01  0.87790196243E+01  0.51100000000E-03 0. -1.
        -11    1    3    3    0    0  0.10694388245E+02  0.65853910760E+01  0.15653341998E+02  0.20068991791E+02  0.51100000000E-03 0.  1.
        -12    1    3    3    0    0 -0.14610485645E+02  0.26344288984E+02  0.44668092630E+01  0.30453903491E+02  0.00000000000E+00 0.  1.
</event>
<event>
 7    1  0.4501381E-013  0.5930194E+02  0.7816164E-02  0.1266605E+00
        -11   -1    0    0    0    0  0.00000000000E+00  0.00000000000E+00  0.45593999997E+02  0.45594000000E+02  0.51100000000E-03 0. -1.
         11   -1    0    0    0    0 -0.00000000000E+00 -0.00000000000E+00 -0.45593999997E+02  0.45594000000E+02  0.51100000000E-03 0.  1.
    9900012    2    1    2    0    0 -0.40726428942E+01 -0.29344285936E+02 -0.11791824170E+02  0.59301942632E+02  0.49999997454E+02 0.  0.
         12    1    1    2    0    0  0.40726428942E+01  0.29344285936E+02  0.11791824170E+02  0.31886057368E+02  0.00000000000E+00 0. -1.
         11    1    3    3    0    0  0.34232993651E+01  0.99392838769E+01 -0.27721185454E+01  0.10871659672E+02  0.51100000000E-03 0. -1.
        -11    1    3    3    0    0 -0.31237357178E+01 -0.16543585616E+02 -0.17010973278E+02  0.23933682583E+02  0.51100000000E-03 0.  1.
         12    1    3    3    0    0 -0.43722065415E+01 -0.22739984197E+02  0.79912676533E+01  0.24496600377E+02  0.00000000000E+00 0. -1.
</event>
<event>
 7    1  0.3449603E-013  0.5930196E+02  0.7816164E-02  0.1266605E+00
        -11   -1    0    0    0    0  0.00000000000E+00  0.00000000000E+00  0.45593999997E+02  0.45594000000E+02  0.51100000000E-03 0. -1.
         11   -1    0    0    0    0 -0.00000000000E+00 -0.00000000000E+00 -0.45593999997E+02  0.45594000000E+02  0.51100000000E-03 0.  1.
    9900012    2    1    2    0    0 -0.12387628165E+02 -0.18979441621E+02 -0.22428709976E+02  0.59301959685E+02  0.50000028555E+02 0.  0.
         12    1    1    2    0    0  0.12387628165E+02  0.18979441621E+02  0.22428709976E+02  0.31886040315E+02  0.00000000000E+00 0. -1.
         11    1    3    3    0    0  0.11628140162E+02 -0.90392117056E+01 -0.40831245320E+01  0.15283746206E+02  0.51100000000E-03 0. -1.
        -11    1    3    3    0    0  0.32159930028E+01 -0.10886176943E+02 -0.33614030998E+00  0.11356251582E+02  0.51100000000E-03 0.  1.
        -12    1    3    3    0    0 -0.27231761329E+02  0.94594702735E+00 -0.18009445134E+02  0.32661961896E+02  0.00000000000E+00 0.  1.
</event>
<event>
 7    1  0.3449603E-013  0.5930221E+02  0.7816164E-02  0.1266604E+00
        -11   -1    0    0    0    0  0.00000000000E+00  0.00000000000E+00  0.45593999997E+02  0.45594000000E+02  0.51100000000E-03 0. -1.
         11   -1    0    0    0    0 -0.00000000000E+00 -0.00000000000E+00 -0.45593999997E+02  0.45594000000E+02  0.51100000000E-03 0.  1.
    9900012    2    1    2    0    0 -0.13705919308E+02  0.27065270763E+02 -0.98144077953E+01  0.59302208401E+02  0.50000482151E+02 0.  0.
         12    1    1    2    0    0  0.13705919308E+02 -0.27065270763E+02  0.98144077953E+01  0.31885791599E+02  0.00000000000E+00 0. -1.
         11    1    3    3    0    0 -0.15978788432E+02 -0.42154209985E+01  0.41429762689E+01  0.17036892516E+02  0.51100000000E-03 0. -1.
        -11    1    3    3    0    0  0.34091903375E+01  0.13827314476E+02  0.62390963917E+01  0.15548103692E+02  0.51100000000E-03 0.  1.
         12    1    3    3    0    0 -0.11363212132E+01  0.17453377285E+02 -0.20196480456E+02  0.26717212193E+02  0.00000000000E+00 0. -1.
</event>
<event>
 7    1  0.3449603E-013  0.5930202E+02  0.7816164E-02  0.1266604E+00
        -11   -1    0    0    0    0  0.00000000000E+00  0.00000000000E+00  0.45593999997E+02  0.45594000000E+02  0.51100000000E-03 0.  1.
         11   -1    0    0    0    0 -0.00000000000E+00 -0.00000000000E+00 -0.45593999997E+02  0.45594000000E+02  0.51100000000E-03 0. -1.
    9900012    2    1    2    0    0 -0.21874853348E+02 -0.57291963407E+01  0.22480717710E+02  0.59302022385E+02  0.50000142905E+02 0.  0.
         12    1    1    2    0    0  0.21874853348E+02  0.57291963407E+01 -0.22480717710E+02  0.31885977615E+02  0.00000000000E+00 0. -1.
         11    1    3    3    0    0 -0.11844154735E+01 -0.91836238714E+01  0.10074359620E+02  0.13683366159E+02  0.51100000000E-03 0. -1.
        -11    1    3    3    0    0 -0.21668498484E+02  0.49275557651E+01  0.24684760264E+02  0.33213581889E+02  0.51100000000E-03 0.  1.
         12    1    3    3    0    0  0.97806060918E+00 -0.14731282344E+01 -0.12278402174E+02  0.12405074337E+02  0.00000000000E+00 0. -1.
</event>
<event>
 7    1  0.3449603E-013  0.5930197E+02  0.7816164E-02  0.1266605E+00
        -11   -1    0    0    0    0  0.00000000000E+00  0.00000000000E+00  0.45593999997E+02  0.45594000000E+02  0.51100000000E-03 0.  1.
         11   -1    0    0    0    0 -0.00000000000E+00 -0.00000000000E+00 -0.45593999997E+02  0.45594000000E+02  0.51100000000E-03 0. -1.
    9900012    2    1    2    0    0  0.21711393561E+02 -0.21331187238E+02  0.95033939544E+01  0.59301973970E+02  0.50000054607E+02 0.  0.
         12    1    1    2    0    0 -0.21711393561E+02  0.21331187238E+02 -0.95033939544E+01  0.31886026030E+02  0.00000000000E+00 0. -1.
         11    1    3    3    0    0  0.12601865073E+02  0.33166151119E+00  0.24314045693E+02  0.27387767723E+02  0.51100000000E-03 0. -1.
        -11    1    3    3    0    0  0.70942180218E+01 -0.18650059254E+02 -0.37870269201E+01  0.20309953537E+02  0.51100000000E-03 0.  1.
        -12    1    3    3    0    0  0.20153104664E+01 -0.30127894953E+01 -0.11023624818E+02  0.11604252710E+02  0.00000000000E+00 0.  1.
</event>
<event>
 7    1  0.3449603E-013  0.5930196E+02  0.7816164E-02  0.1266605E+00
        -11   -1    0    0    0    0  0.00000000000E+00  0.00000000000E+00  0.45593999997E+02  0.45594000000E+02  0.51100000000E-03 0.  1.
         11   -1    0    0    0    0 -0.00000000000E+00 -0.00000000000E+00 -0.45593999997E+02  0.45594000000E+02  0.51100000000E-03 0. -1.
    9900012    2    1    2    0    0 -0.66179925216E+01 -0.23405552245E+02  0.20618005163E+02  0.59301955438E+02  0.50000020810E+02 0.  0.
         12    1    1    2    0    0  0.66179925216E+01  0.23405552245E+02 -0.20618005163E+02  0.31886044562E+02  0.00000000000E+00 0. -1.
         11    1    3    3    0    0 -0.88620063026E+00  0.10312177293E+02  0.70127590688E+01  0.12502205490E+02  0.51100000000E-03 0. -1.
        -11    1    3    3    0    0 -0.14126398765E+01 -0.25153050972E+01  0.14994204284E+02  0.15269200160E+02  0.51100000000E-03 0.  1.
        -12    1    3    3    0    0 -0.43191520149E+01 -0.31202424441E+02 -0.13889581892E+01  0.31530549789E+02  0.00000000000E+00 0.  1.
</event>
<event>
 7    1  0.3449603E-013  0.5930197E+02  0.7816164E-02  0.1266605E+00
        -11   -1    0    0    0    0  0.00000000000E+00  0.00000000000E+00  0.45593999997E+02  0.45594000000E+02  0.51100000000E-03 0. -1.
         11   -1    0    0    0    0 -0.00000000000E+00 -0.00000000000E+00 -0.45593999997E+02  0.45594000000E+02  0.51100000000E-03 0.  1.
    9900012    2    1    2    0    0  0.19120190501E+02  0.63321033368E+00 -0.25509532023E+02  0.59301970706E+02  0.50000048654E+02 0.  0.
         12    1    1    2    0    0 -0.19120190501E+02 -0.63321033368E+00  0.25509532023E+02  0.31886029294E+02  0.00000000000E+00 0. -1.
         11    1    3    3    0    0  0.10837858042E+02  0.24078991102E+01 -0.12512134074E+02  0.16727541494E+02  0.51100000000E-03 0. -1.
        -11    1    3    3    0    0  0.20633103418E+02  0.95180816680E+01 -0.12268911591E+02  0.25823342680E+02  0.51100000000E-03 0.  1.
         12    1    3    3    0    0 -0.12350770960E+02 -0.11292770445E+02 -0.72848635803E+00  0.16751086531E+02  0.00000000000E+00 0. -1.
</event>
<event>
 7    1  0.3449603E-013  0.5930199E+02  0.7816164E-02  0.1266605E+00
        -11   -1    0    0    0    0  0.00000000000E+00  0.00000000000E+00  0.45593999997E+02  0.45594000000E+02  0.51100000000E-03 0.  1.
         11   -1    0    0    0    0 -0.00000000000E+00 -0.00000000000E+00 -0.45593999997E+02  0.45594000000E+02  0.51100000000E-03 0. -1.
    9900012    2    1    2    0    0 -0.27672107532E+02  0.82255148968E+01  0.13539311852E+02  0.59301990591E+02  0.50000084921E+02 0.  0.
         12    1    1    2    0    0  0.27672107532E+02 -0.82255148968E+01 -0.13539311852E+02  0.31886009409E+02  0.00000000000E+00 0. -1.
         11    1    3    3    0    0 -0.66149275811E+01  0.85076996025E+01 -0.74369752359E+01  0.13093770288E+02  0.51100000000E-03 0. -1.
        -11    1    3    3    0    0  0.91102903275E+01 -0.16408898348E+01 -0.30976438601E+00  0.92620658352E+01  0.51100000000E-03 0.  1.
        -12    1    3    3    0    0 -0.30167470279E+02  0.13587051290E+01  0.21286051474E+02  0.36946154468E+02  0.00000000000E+00 0.  1.
</event>
<event>
 7    1  0.3549614E-013  0.5930195E+02  0.7816164E-02  0.1266605E+00
        -11   -1    0    0    0    0  0.00000000000E+00  0.00000000000E+00  0.45593999997E+02  0.45594000000E+02  0.51100000000E-03 0.  1.
         11   -1    0    0    0    0 -0.00000000000E+00 -0.00000000000E+00 -0.45593999997E+02  0.45594000000E+02  0.51100000000E-03 0. -1.
    9900012    2    1    2    0    0 -0.10431487615E+02  0.26161690087E+02 -0.14948917841E+02  0.59301951222E+02  0.50000013121E+02 0.  0.
         12    1    1    2    0    0  0.10431487615E+02 -0.26161690087E+02  0.14948917841E+02  0.31886048778E+02  0.00000000000E+00 0. -1.
         11    1    3    3    0    0 -0.12118866644E+02  0.67802801817E+01 -0.15103201152E+02  0.20516964039E+02  0.51100000000E-03 0. -1.
        -11    1    3    3    0    0  0.56459738269E+00  0.14222117302E+02 -0.16220544626E+02  0.21579931857E+02  0.51100000000E-03 0.  1.
         12    1    3    3    0    0  0.11227816456E+01  0.51592926029E+01  0.16374827937E+02  0.17205055326E+02  0.00000000000E+00 0. -1.
</event>
<event>
 7    1  0.3449603E-013  0.5930200E+02  0.7816164E-02  0.1266605E+00
        -11   -1    0    0    0    0  0.00000000000E+00  0.00000000000E+00  0.45593999997E+02  0.45594000000E+02  0.51100000000E-03 0. -1.
         11   -1    0    0    0    0 -0.00000000000E+00 -0.00000000000E+00 -0.45593999997E+02  0.45594000000E+02  0.51100000000E-03 0.  1.
    9900012    2    1    2    0    0 -0.26259407341E+02  0.56374729108E+01 -0.17186610367E+02  0.59301997576E+02  0.50000097658E+02 0.  0.
         12    1    1    2    0    0  0.26259407341E+02 -0.56374729108E+01  0.17186610367E+02  0.31886002424E+02  0.00000000000E+00 0. -1.
         11    1    3    3    0    0 -0.19116499290E+02  0.18270552548E+02 -0.87723871861E+01  0.27860517093E+02  0.51100000000E-03 0. -1.
        -11    1    3    3    0    0  0.75150422977E+00  0.72532988675E+01 -0.68229296173E+01  0.99863642980E+01  0.51100000000E-03 0.  1.
        -12    1    3    3    0    0 -0.78944122811E+01 -0.19886378504E+02 -0.15912935634E+01  0.21455116185E+02  0.00000000000E+00 0.  1.
</event>
<event>
 7    1  0.3449603E-013  0.5930195E+02  0.7816164E-02  0.1266605E+00
        -11   -1    0    0    0    0  0.00000000000E+00  0.00000000000E+00  0.45593999997E+02  0.45594000000E+02  0.51100000000E-03 0.  1.
         11   -1    0    0    0    0 -0.00000000000E+00 -0.00000000000E+00 -0.45593999997E+02  0.45594000000E+02  0.51100000000E-03 0. -1.
    9900012    2    1    2    0    0  0.31381099698E+02 -0.44730722134E+01 -0.34551696372E+01  0.59301953044E+02  0.50000016443E+02 0.  0.
         12    1    1    2    0    0 -0.31381099698E+02  0.44730722134E+01  0.34551696372E+01  0.31886046956E+02  0.00000000000E+00 0. -1.
         11    1    3    3    0    0 -0.28895088631E+01 -0.11188992052E+02 -0.90333578186E+01  0.14667800051E+02  0.51100000000E-03 0. -1.
        -11    1    3    3    0    0  0.19372812776E+02  0.26113446626E+00 -0.10284826118E+02  0.21935170722E+02  0.51100000000E-03 0.  1.
        -12    1    3    3    0    0  0.14897795785E+02  0.64547853719E+01  0.15863014299E+02  0.22698982270E+02  0.00000000000E+00 0.  1.
</event>
<event>
 7    1  0.3449603E-013  0.5930196E+02  0.7816164E-02  0.1266605E+00
        -11   -1    0    0    0    0  0.00000000000E+00  0.00000000000E+00  0.45593999997E+02  0.45594000000E+02  0.51100000000E-03 0.  1.
         11   -1    0    0    0    0 -0.00000000000E+00 -0.00000000000E+00 -0.45593999997E+02  0.45594000000E+02  0.51100000000E-03 0. -1.
    9900012    2    1    2    0    0 -0.26381921802E+02  0.23433165617E+01  0.17754517920E+02  0.59301955450E+02  0.50000020832E+02 0.  0.
         12    1    1    2    0    0  0.26381921802E+02 -0.23433165617E+01 -0.17754517920E+02  0.31886044550E+02  0.00000000000E+00 0. -1.
         11    1    3    3    0    0 -0.13811414149E+02 -0.32520137384E+00  0.10874154306E+02  0.17581471749E+02  0.51100000000E-03 0. -1.
        -11    1    3    3    0    0 -0.16178795423E+02 -0.15589029288E+02  0.25388679316E+01  0.22610110706E+02  0.51100000000E-03 0.  1.
         12    1    3    3    0    0  0.36082877711E+01  0.18257547224E+02  0.43414956826E+01  0.19110372995E+02  0.00000000000E+00 0. -1.
</event>
<event>
 7    1  0.3449603E-013  0.5930196E+02  0.7816164E-02  0.1266605E+00
        -11   -1    0    0    0    0  0.00000000000E+00  0.00000000000E+00  0.45593999997E+02  0.45594000000E+02  0.51100000000E-03 0.  1.
         11   -1    0    0    0    0 -0.00000000000E+00 -0.00000000000E+00 -0.45593999997E+02  0.45594000000E+02  0.51100000000E-03 0. -1.
    9900012    2    1    2    0    0  0.13741624177E+02 -0.26319857692E+02  0.11625517954E+02  0.59301955848E+02  0.50000021557E+02 0.  0.
         12    1    1    2    0    0 -0.13741624177E+02  0.26319857692E+02 -0.11625517954E+02  0.31886044152E+02  0.00000000000E+00 0. -1.
         11    1    3    3    0    0 -0.17525398901E+01 -0.10449004039E+02 -0.44770473553E+01  0.11502044807E+02  0.51100000000E-03 0. -1.
        -11    1    3    3    0    0  0.27381236865E+02 -0.12197196594E+02  0.36491852084E+01  0.30196362198E+02  0.51100000000E-03 0.  1.
         12    1    3    3    0    0 -0.11887072799E+02 -0.36736570592E+01  0.12453380101E+02  0.17603548842E+02  0.00000000000E+00 0. -1.
</event>
<event>
 7    1  0.3449603E-013  0.5930194E+02  0.7816164E-02  0.1266605E+00
        -11   -1    0    0    0    0  0.00000000000E+00  0.00000000000E+00  0.45593999997E+02  0.45594000000E+02  0.51100000000E-03 0.  1.
         11   -1    0    0    0    0 -0.00000000000E+00 -0.00000000000E+00 -0.45593999997E+02  0.45594000000E+02  0.51100000000E-03 0. -1.
    9900012    2    1    2    0    0  0.11797591979E+02 -0.15293996170E+02  0.25369886086E+02  0.59301943246E+02  0.49999998574E+02 0.  0.
         12    1    1    2    0    0 -0.11797591979E+02  0.15293996170E+02 -0.25369886086E+02  0.31886056754E+02  0.00000000000E+00 0. -1.
         11    1    3    3    0    0 -0.96467116742E+00 -0.17129604202E+02 -0.10772295924E+01  0.17190530953E+02  0.51100000000E-03 0.  1.
        -11    1    3    3    0    0  0.52203208112E+01 -0.11479317606E+02  0.13041703608E+01  0.12677828784E+02  0.51100000000E-03 0. -1.
        -12    1    3    3    0    0  0.75419423349E+01  0.13314925639E+02  0.25142945317E+02  0.29433583509E+02  0.00000000000E+00 0.  1.
</event>
<event>
 7    1  0.3449603E-013  0.5930195E+02  0.7816164E-02  0.1266605E+00
        -11   -1    0    0    0    0  0.00000000000E+00  0.00000000000E+00  0.45593999997E+02  0.45594000000E+02  0.51100000000E-03 0. -1.
         11   -1    0    0    0    0 -0.00000000000E+00 -0.00000000000E+00 -0.45593999997E+02  0.45594000000E+02  0.51100000000E-03 0.  1.
    9900012    2    1    2    0    0  0.98610950567E+01 -0.29795763512E+02 -0.56295161912E+01  0.59301950205E+02  0.50000011266E+02 0.  0.
         12    1    1    2    0    0 -0.98610950567E+01  0.29795763512E+02  0.56295161912E+01  0.31886049795E+02  0.00000000000E+00 0. -1.
         11    1    3    3    0    0  0.81137941661E+01 -0.18583567876E+02 -0.21320236612E+02  0.29423377444E+02  0.51100000000E-03 0.  1.
        -11    1    3    3    0    0  0.86322119652E+01  0.29123316445E+00 -0.74428699281E+00  0.86691328031E+01  0.51100000000E-03 0. -1.
         12    1    3    3    0    0 -0.68849110746E+01 -0.11503428800E+02  0.16435007413E+02  0.21209439958E+02  0.00000000000E+00 0. -1.
</event>
<event>
 7    1  0.3449603E-013  0.5930195E+02  0.7816164E-02  0.1266605E+00
        -11   -1    0    0    0    0  0.00000000000E+00  0.00000000000E+00  0.45593999997E+02  0.45594000000E+02  0.51100000000E-03 0.  1.
         11   -1    0    0    0    0 -0.00000000000E+00 -0.00000000000E+00 -0.45593999997E+02  0.45594000000E+02  0.51100000000E-03 0. -1.
    9900012    2    1    2    0    0 -0.11185342014E+02 -0.13199146869E+02  0.26784147890E+02  0.59301953957E+02  0.50000018109E+02 0.  0.
         12    1    1    2    0    0  0.11185342014E+02  0.13199146869E+02 -0.26784147890E+02  0.31886046043E+02  0.00000000000E+00 0. -1.
         11    1    3    3    0    0  0.41464399627E+01 -0.53186270572E+01 -0.11074724915E+02  0.12966506482E+02  0.51100000000E-03 0. -1.
        -11    1    3    3    0    0  0.48121667797E+01  0.60543529379E+00  0.72675147900E+01  0.87372920573E+01  0.51100000000E-03 0.  1.
        -12    1    3    3    0    0 -0.20143948757E+02 -0.84859551058E+01  0.30591358016E+02  0.37598155418E+02  0.00000000000E+00 0.  1.
</event>
<event>
 7    1  0.3449603E-013  0.5930194E+02  0.7816164E-02  0.1266605E+00
        -11   -1    0    0    0    0  0.00000000000E+00  0.00000000000E+00  0.45593999997E+02  0.45594000000E+02  0.51100000000E-03 0.  1.
         11   -1    0    0    0    0 -0.00000000000E+00 -0.00000000000E+00 -0.45593999997E+02  0.45594000000E+02  0.51100000000E-03 0. -1.
    9900012    2    1    2    0    0  0.12993729518E+02  0.25936199159E+02  0.13236213903E+02  0.59301940474E+02  0.49999993519E+02 0.  0.
         12    1    1    2    0    0 -0.12993729518E+02 -0.25936199159E+02 -0.13236213903E+02  0.31886059526E+02  0.00000000000E+00 0. -1.
         11    1    3    3    0    0 -0.54484768265E+01  0.10913387952E+02 -0.22619130762E+01  0.12405812643E+02  0.51100000000E-03 0. -1.
        -11    1    3    3    0    0  0.82128300813E+01  0.18575103561E+02  0.25194149758E+02  0.32360936830E+02  0.51100000000E-03 0.  1.
         12    1    3    3    0    0  0.10229376263E+02 -0.35522923540E+01 -0.96960227788E+01  0.14535191001E+02  0.00000000000E+00 0. -1.
</event>
<event>
 7    1  0.3449603E-013  0.5930191E+02  0.7816164E-02  0.1266605E+00
        -11   -1    0    0    0    0  0.00000000000E+00  0.00000000000E+00  0.45593999997E+02  0.45594000000E+02  0.51100000000E-03 0.  1.
         11   -1    0    0    0    0 -0.00000000000E+00 -0.00000000000E+00 -0.45593999997E+02  0.45594000000E+02  0.51100000000E-03 0. -1.
    9900012    2    1    2    0    0 -0.69250120961E+01  0.21693579828E+02 -0.22319396270E+02  0.59301911369E+02  0.49999940439E+02 0.  0.
         12    1    1    2    0    0  0.69250120961E+01 -0.21693579828E+02  0.22319396270E+02  0.31886088631E+02  0.00000000000E+00 0. -1.
         11    1    3    3    0    0  0.10248522286E+02  0.39745877747E+01 -0.42957628679E+01  0.11801827651E+02  0.51100000000E-03 0. -1.
        -11    1    3    3    0    0 -0.10473661928E+02  0.28639015475E+02 -0.16288026095E+02  0.34571528689E+02  0.51100000000E-03 0.  1.
        -12    1    3    3    0    0 -0.66998724544E+01 -0.10920023422E+02 -0.17356073077E+01  0.12928555030E+02  0.00000000000E+00 0.  1.
</event>
<event>
 7    1  0.3449603E-013  0.5930197E+02  0.7816164E-02  0.1266605E+00
        -11   -1    0    0    0    0  0.00000000000E+00  0.00000000000E+00  0.45593999997E+02  0.45594000000E+02  0.51100000000E-03 0.  1.
         11   -1    0    0    0    0 -0.00000000000E+00 -0.00000000000E+00 -0.45593999997E+02  0.45594000000E+02  0.51100000000E-03 0. -1.
    9900012    2    1    2    0    0  0.27908702995E+02 -0.14678180080E+02  0.47301575429E+01  0.59301967577E+02  0.50000042948E+02 0.  0.
         12    1    1    2    0    0 -0.27908702995E+02  0.14678180080E+02 -0.47301575429E+01  0.31886032423E+02  0.00000000000E+00 0. -1.
         11    1    3    3    0    0  0.46272219501E+01  0.72001660704E+01 -0.31590809663E+01  0.91232322797E+01  0.51100000000E-03 0. -1.
        -11    1    3    3    0    0  0.16037641279E+02 -0.23368315090E+01  0.20258439147E+02  0.25943613399E+02  0.51100000000E-03 0.  1.
         12    1    3    3    0    0  0.72438397658E+01 -0.19541514641E+02 -0.12369200637E+02  0.24235121898E+02  0.00000000000E+00 0. -1.
</event>
<event>
 7    1  0.3449603E-013  0.5930192E+02  0.7816164E-02  0.1266605E+00
        -11   -1    0    0    0    0  0.00000000000E+00  0.00000000000E+00  0.45593999997E+02  0.45594000000E+02  0.51100000000E-03 0.  1.
         11   -1    0    0    0    0 -0.00000000000E+00 -0.00000000000E+00 -0.45593999997E+02  0.45594000000E+02  0.51100000000E-03 0. -1.
    9900012    2    1    2    0    0 -0.15689032344E+02 -0.14425625520E+02 -0.23716612765E+02  0.59301919517E+02  0.49999955298E+02 0.  0.
         12    1    1    2    0    0  0.15689032344E+02  0.14425625520E+02  0.23716612765E+02  0.31886080483E+02  0.00000000000E+00 0. -1.
         11    1    3    3    0    0  0.33651660473E+00 -0.42934711222E+01 -0.24005640247E+02  0.24388888897E+02  0.51100000000E-03 0. -1.
        -11    1    3    3    0    0 -0.12511936535E+02 -0.20452631264E+02 -0.50964436907E+00  0.23981626699E+02  0.51100000000E-03 0.  1.
         12    1    3    3    0    0 -0.35136124134E+01  0.10320476866E+02  0.79867185089E+00  0.10931403920E+02  0.00000000000E+00 0. -1.
</event>
<event>
 7    1  0.3449603E-013  0.5930196E+02  0.7816164E-02  0.1266605E+00
        -11   -1    0    0    0    0  0.00000000000E+00  0.00000000000E+00  0.45593999997E+02  0.45594000000E+02  0.51100000000E-03 0.  1.
         11   -1    0    0    0    0 -0.00000000000E+00 -0.00000000000E+00 -0.45593999997E+02  0.45594000000E+02  0.51100000000E-03 0. -1.
    9900012    2    1    2    0    0 -0.78771107147E+01  0.73401906273E+00  0.30889029264E+02  0.59301956250E+02  0.50000022290E+02 0.  0.
         12    1    1    2    0    0  0.78771107147E+01 -0.73401906273E+00 -0.30889029264E+02  0.31886043750E+02  0.00000000000E+00 0. -1.
         11    1    3    3    0    0  0.61968454529E+00  0.47648627271E+01  0.11956779262E+01  0.49515221607E+01  0.51100000000E-03 0. -1.
        -11    1    3    3    0    0  0.71959546406E+00  0.17842259628E+02  0.24047998274E+02  0.29952800662E+02  0.51100000000E-03 0.  1.
         12    1    3    3    0    0 -0.92163907241E+01 -0.21873103293E+02  0.56453530636E+01  0.24397633427E+02  0.00000000000E+00 0. -1.
</event>
<event>
 7    1  0.3449603E-013  0.5930194E+02  0.7816164E-02  0.1266605E+00
        -11   -1    0    0    0    0  0.00000000000E+00  0.00000000000E+00  0.45593999997E+02  0.45594000000E+02  0.51100000000E-03 0.  1.
         11   -1    0    0    0    0 -0.00000000000E+00 -0.00000000000E+00 -0.45593999997E+02  0.45594000000E+02  0.51100000000E-03 0. -1.
    9900012    2    1    2    0    0  0.31500373063E+02 -0.43146892787E+01 -0.24147250396E+01  0.59301938097E+02  0.49999989183E+02 0.  0.
         12    1    1    2    0    0 -0.31500373063E+02  0.43146892787E+01  0.24147250396E+01  0.31886061903E+02  0.00000000000E+00 0. -1.
         11    1    3    3    0    0  0.25743734081E+01  0.35429664872E+01  0.33116662406E+00  0.43920019999E+01  0.51100000000E-03 0. -1.
        -11    1    3    3    0    0 -0.13518122741E+01  0.14651795110E+02 -0.81119741511E+01  0.16801982659E+02  0.51100000000E-03 0.  1.
        -12    1    3    3    0    0  0.30277811929E+02 -0.22509450876E+02  0.53660824874E+01  0.38107953438E+02  0.00000000000E+00 0.  1.
</event>
<event>
 7    1  0.3449603E-013  0.5930193E+02  0.7816164E-02  0.1266605E+00
        -11   -1    0    0    0    0  0.00000000000E+00  0.00000000000E+00  0.45593999997E+02  0.45594000000E+02  0.51100000000E-03 0.  1.
         11   -1    0    0    0    0 -0.00000000000E+00 -0.00000000000E+00 -0.45593999997E+02  0.45594000000E+02  0.51100000000E-03 0. -1.
    9900012    2    1    2    0    0 -0.24967359145E+02  0.11729832206E+02  0.15992608030E+02  0.59301929407E+02  0.49999973336E+02 0.  0.
         12    1    1    2    0    0  0.24967359145E+02 -0.11729832206E+02 -0.15992608030E+02  0.31886070593E+02  0.00000000000E+00 0. -1.
         11    1    3    3    0    0  0.25140802379E+01  0.28498878105E+00 -0.31372764567E+01  0.40304245279E+01  0.51100000000E-03 0. -1.
        -11    1    3    3    0    0  0.15298416251E+01  0.87422737131E+01 -0.10477839714E+02  0.13731456238E+02  0.51100000000E-03 0.  1.
        -12    1    3    3    0    0 -0.29011281008E+02  0.27025697118E+01  0.29607724201E+02  0.41540048641E+02  0.00000000000E+00 0.  1.
</event>
<event>
 7    1  0.3449603E-013  0.5930189E+02  0.7816164E-02  0.1266605E+00
        -11   -1    0    0    0    0  0.00000000000E+00  0.00000000000E+00  0.45593999997E+02  0.45594000000E+02  0.51100000000E-03 0.  1.
         11   -1    0    0    0    0 -0.00000000000E+00 -0.00000000000E+00 -0.45593999997E+02  0.45594000000E+02  0.51100000000E-03 0. -1.
    9900012    2    1    2    0    0 -0.26308170261E+02  0.94054776184E+00  0.17992205983E+02  0.59301891289E+02  0.49999903818E+02 0.  0.
         12    1    1    2    0    0  0.26308170261E+02 -0.94054776184E+00 -0.17992205983E+02  0.31886108711E+02  0.00000000000E+00 0. -1.
         11    1    3    3    0    0 -0.18415145861E+02  0.60615151283E+01  0.16553715690E+02  0.25492843430E+02  0.51100000000E-03 0. -1.
        -11    1    3    3    0    0  0.66474298840E+01  0.10470105038E+02  0.14782042343E+01  0.12489856348E+02  0.51100000000E-03 0.  1.
         12    1    3    3    0    0 -0.14540454284E+02 -0.15591072405E+02 -0.39713941141E-01  0.21319191512E+02  0.00000000000E+00 0. -1.
</event>
<event>
 7    1  0.3449603E-013  0.5930195E+02  0.7816164E-02  0.1266605E+00
        -11   -1    0    0    0    0  0.00000000000E+00  0.00000000000E+00  0.45593999997E+02  0.45594000000E+02  0.51100000000E-03 0. -1.
         11   -1    0    0    0    0 -0.00000000000E+00 -0.00000000000E+00 -0.45593999997E+02  0.45594000000E+02  0.51100000000E-03 0.  1.
    9900012    2    1    2    0    0 -0.30799848222E+02 -0.71920954733E+01  0.40451220655E+01  0.59301954458E+02  0.50000019022E+02 0.  0.
         12    1    1    2    0    0  0.30799848222E+02  0.71920954733E+01 -0.40451220655E+01  0.31886045542E+02  0.00000000000E+00 0. -1.
         11    1    3    3    0    0 -0.11584665682E+02 -0.28268777822E+01  0.12597148418E+02  0.17346004309E+02  0.51100000000E-03 0. -1.
        -11    1    3    3    0    0 -0.23807213802E+02  0.99343548471E+01 -0.76628107988E+01  0.26910843630E+02  0.51100000000E-03 0.  1.
         12    1    3    3    0    0  0.45920312625E+01 -0.14299572538E+02 -0.88921555341E+00  0.15045106520E+02  0.00000000000E+00 0. -1.
</event>
<event>
 7    1  0.3449603E-013  0.5930197E+02  0.7816164E-02  0.1266605E+00
        -11   -1    0    0    0    0  0.00000000000E+00  0.00000000000E+00  0.45593999997E+02  0.45594000000E+02  0.51100000000E-03 0.  1.
         11   -1    0    0    0    0 -0.00000000000E+00 -0.00000000000E+00 -0.45593999997E+02  0.45594000000E+02  0.51100000000E-03 0. -1.
    9900012    2    1    2    0    0 -0.16763198048E+02  0.25688252431E+02  0.87079182916E+01  0.59301969160E+02  0.50000045835E+02 0.  0.
         12    1    1    2    0    0  0.16763198048E+02 -0.25688252431E+02 -0.87079182916E+01  0.31886030840E+02  0.00000000000E+00 0. -1.
         11    1    3    3    0    0 -0.20371825956E+02 -0.19480549509E+01  0.15934041738E+02  0.25936458842E+02  0.51100000000E-03 0. -1.
        -11    1    3    3    0    0  0.50924913021E+01  0.65568357064E+00  0.75581609723E+00  0.51898600021E+01  0.51100000000E-03 0.  1.
        -12    1    3    3    0    0 -0.14838633937E+01  0.26980623812E+02 -0.79819395438E+01  0.28175650316E+02  0.00000000000E+00 0.  1.
</event>
<event>
 7    1  0.3449603E-013  0.5930196E+02  0.7816164E-02  0.1266605E+00
        -11   -1    0    0    0    0  0.00000000000E+00  0.00000000000E+00  0.45593999997E+02  0.45594000000E+02  0.51100000000E-03 0.  1.
         11   -1    0    0    0    0 -0.00000000000E+00 -0.00000000000E+00 -0.45593999997E+02  0.45594000000E+02  0.51100000000E-03 0. -1.
    9900012    2    1    2    0    0  0.29898950958E+02 -0.78034220715E+01 -0.78663142893E+01  0.59301959717E+02  0.50000028613E+02 0.  0.
         12    1    1    2    0    0 -0.29898950958E+02  0.78034220715E+01  0.78663142893E+01  0.31886040283E+02  0.00000000000E+00 0. -1.
         11    1    3    3    0    0  0.60415224914E+01  0.17564605934E+00  0.21266818820E+01  0.64073100160E+01  0.51100000000E-03 0. -1.
        -11    1    3    3    0    0  0.35285086943E+02 -0.14844356369E+02 -0.47690447574E+01  0.38576366661E+02  0.51100000000E-03 0.  1.
         12    1    3    3    0    0 -0.11427658476E+02  0.68652882386E+01 -0.52239514139E+01  0.14318283040E+02  0.00000000000E+00 0. -1.
</event>
<event>
 7    1  0.3703598E-013  0.5930198E+02  0.7816164E-02  0.1266605E+00
        -11   -1    0    0    0    0  0.00000000000E+00  0.00000000000E+00  0.45593999997E+02  0.45594000000E+02  0.51100000000E-03 0.  1.
         11   -1    0    0    0    0 -0.00000000000E+00 -0.00000000000E+00 -0.45593999997E+02  0.45594000000E+02  0.51100000000E-03 0. -1.
    9900012    2    1    2    0    0 -0.28700777377E+02  0.95414453527E+01  0.10096770278E+02  0.59301975295E+02  0.50000057024E+02 0.  0.
         12    1    1    2    0    0  0.28700777377E+02 -0.95414453527E+01 -0.10096770278E+02  0.31886024705E+02  0.00000000000E+00 0. -1.
         11    1    3    3    0    0 -0.21374231278E+02  0.62504211077E+01  0.13178859071E+01  0.22308347099E+02  0.51100000000E-03 0. -1.
        -11    1    3    3    0    0 -0.85802447086E+01 -0.51287179286E+01  0.20324146771E+02  0.22649399309E+02  0.51100000000E-03 0.  1.
         12    1    3    3    0    0  0.12536986100E+01  0.84197421736E+01 -0.11545262400E+02  0.14344228887E+02  0.00000000000E+00 0. -1.
</event>
<event>
 7    1  0.3449603E-013  0.5930192E+02  0.7816164E-02  0.1266605E+00
        -11   -1    0    0    0    0  0.00000000000E+00  0.00000000000E+00  0.45593999997E+02  0.45594000000E+02  0.51100000000E-03 0.  1.
         11   -1    0    0    0    0 -0.00000000000E+00 -0.00000000000E+00 -0.45593999997E+02  0.45594000000E+02  0.51100000000E-03 0. -1.
    9900012    2    1    2    0    0  0.29181763123E+01 -0.10270816996E+02  0.30045245136E+02  0.59301918553E+02  0.49999953541E+02 0.  0.
         12    1    1    2    0    0 -0.29181763123E+01  0.10270816996E+02 -0.30045245136E+02  0.31886081447E+02  0.00000000000E+00 0. -1.
         11    1    3    3    0    0 -0.18093038839E+01  0.84988241257E+01 -0.87352269075E+01  0.12321030048E+02  0.51100000000E-03 0. -1.
        -11    1    3    3    0    0 -0.47264788966E+01 -0.13167402641E+02  0.13618699416E+02  0.19524063848E+02  0.51100000000E-03 0.  1.
        -12    1    3    3    0    0  0.94539590929E+01 -0.56022384809E+01  0.25161772627E+02  0.27456824657E+02  0.00000000000E+00 0.  1.
</event>
<event>
 7    1  0.3449603E-013  0.5930193E+02  0.7816164E-02  0.1266605E+00
        -11   -1    0    0    0    0  0.00000000000E+00  0.00000000000E+00  0.45593999997E+02  0.45594000000E+02  0.51100000000E-03 0.  1.
         11   -1    0    0    0    0 -0.00000000000E+00 -0.00000000000E+00 -0.45593999997E+02  0.45594000000E+02  0.51100000000E-03 0. -1.
    9900012    2    1    2    0    0 -0.31833711473E+02  0.17579427092E+01 -0.49615777930E+00  0.59301925904E+02  0.49999966947E+02 0.  0.
         12    1    1    2    0    0  0.31833711473E+02 -0.17579427092E+01  0.49615777930E+00  0.31886074096E+02  0.00000000000E+00 0. -1.
         11    1    3    3    0    0 -0.68012476068E+01  0.22792502468E+01 -0.81480948451E+01  0.10855570025E+02  0.51100000000E-03 0. -1.
        -11    1    3    3    0    0  0.56859104394E+01 -0.11118573725E+02 -0.51663700883E+01  0.13514571372E+02  0.51100000000E-03 0.  1.
        -12    1    3    3    0    0 -0.30718374305E+02  0.10597266188E+02  0.12818307154E+02  0.34931784508E+02  0.00000000000E+00 0.  1.
</event>
<event>
 7    1  0.3449603E-013  0.5930192E+02  0.7816164E-02  0.1266605E+00
        -11   -1    0    0    0    0  0.00000000000E+00  0.00000000000E+00  0.45593999997E+02  0.45594000000E+02  0.51100000000E-03 0. -1.
         11   -1    0    0    0    0 -0.00000000000E+00 -0.00000000000E+00 -0.45593999997E+02  0.45594000000E+02  0.51100000000E-03 0.  1.
    9900012    2    1    2    0    0  0.24255175098E+02 -0.19463335587E+02 -0.70417970536E+01  0.59301923776E+02  0.49999963067E+02 0.  0.
         12    1    1    2    0    0 -0.24255175098E+02  0.19463335587E+02  0.70417970536E+01  0.31886076224E+02  0.00000000000E+00 0. -1.
         11    1    3    3    0    0  0.42169043104E+01 -0.18412830074E+02 -0.96908780188E+01  0.21230348803E+02  0.51100000000E-03 0. -1.
        -11    1    3    3    0    0  0.20215431712E+02 -0.91727709653E+01 -0.89289183429E+01  0.23927578012E+02  0.51100000000E-03 0.  1.
         12    1    3    3    0    0 -0.17716092428E+00  0.81222654519E+01  0.11577999308E+02  0.14143996961E+02  0.00000000000E+00 0. -1.
</event>
<event>
 7    1  0.3449603E-013  0.5930195E+02  0.7816164E-02  0.1266605E+00
        -11   -1    0    0    0    0  0.00000000000E+00  0.00000000000E+00  0.45593999997E+02  0.45594000000E+02  0.51100000000E-03 0. -1.
         11   -1    0    0    0    0 -0.00000000000E+00 -0.00000000000E+00 -0.45593999997E+02  0.45594000000E+02  0.51100000000E-03 0.  1.
    9900012    2    1    2    0    0  0.13470363012E+02 -0.14874976785E+02 -0.24779116807E+02  0.59301949072E+02  0.50000009200E+02 0.  0.
         12    1    1    2    0    0 -0.13470363012E+02  0.14874976785E+02  0.24779116807E+02  0.31886050928E+02  0.00000000000E+00 0. -1.
         11    1    3    3    0    0  0.10638468300E+02 -0.39763245645E+01 -0.85790825622E+01  0.14233370040E+02  0.51100000000E-03 0. -1.
        -11    1    3    3    0    0  0.16431304685E+01 -0.63545850044E+01 -0.29886408260E+02  0.30598660547E+02  0.51100000000E-03 0.  1.
         12    1    3    3    0    0  0.11887642432E+01 -0.45440672159E+01  0.13686374016E+02  0.14469918486E+02  0.00000000000E+00 0. -1.
</event>
<event>
 7    1  0.3449603E-013  0.5930193E+02  0.7816164E-02  0.1266605E+00
        -11   -1    0    0    0    0  0.00000000000E+00  0.00000000000E+00  0.45593999997E+02  0.45594000000E+02  0.51100000000E-03 0.  1.
         11   -1    0    0    0    0 -0.00000000000E+00 -0.00000000000E+00 -0.45593999997E+02  0.45594000000E+02  0.51100000000E-03 0. -1.
    9900012    2    1    2    0    0  0.10121504740E+02 -0.12796595807E+02  0.27395691283E+02  0.59301927440E+02  0.49999969748E+02 0.  0.
         12    1    1    2    0    0 -0.10121504740E+02  0.12796595807E+02 -0.27395691283E+02  0.31886072560E+02  0.00000000000E+00 0. -1.
         11    1    3    3    0    0  0.22298307858E+02 -0.17710118156E+02  0.70016091781E+01  0.29323801762E+02  0.51100000000E-03 0. -1.
        -11    1    3    3    0    0 -0.72425159888E+01 -0.43275242949E+01  0.17860362960E+01  0.86238871910E+01  0.51100000000E-03 0.  1.
        -12    1    3    3    0    0 -0.49342871288E+01  0.92410466439E+01  0.18608045808E+02  0.21354238487E+02  0.00000000000E+00 0.  1.
</event>
<event>
 7    1  0.3449603E-013  0.5930195E+02  0.7816164E-02  0.1266605E+00
        -11   -1    0    0    0    0  0.00000000000E+00  0.00000000000E+00  0.45593999997E+02  0.45594000000E+02  0.51100000000E-03 0. -1.
         11   -1    0    0    0    0 -0.00000000000E+00 -0.00000000000E+00 -0.45593999997E+02  0.45594000000E+02  0.51100000000E-03 0.  1.
    9900012    2    1    2    0    0 -0.17408048619E+02 -0.22861320475E+02 -0.13821734578E+02  0.59301945410E+02  0.50000002521E+02 0.  0.
         12    1    1    2    0    0  0.17408048619E+02  0.22861320475E+02  0.13821734578E+02  0.31886054590E+02  0.00000000000E+00 0. -1.
         11    1    3    3    0    0 -0.13122872719E+02 -0.14201143129E+02 -0.87455219357E+01  0.21221838016E+02  0.51100000000E-03 0. -1.
        -11    1    3    3    0    0  0.44708551875E+01 -0.20950775641E+02  0.17974251584E+01  0.21497773920E+02  0.51100000000E-03 0.  1.
         12    1    3    3    0    0 -0.87560310869E+01  0.12290598295E+02 -0.68736378006E+01  0.16582333474E+02  0.00000000000E+00 0. -1.
</event>
<event>
 7    1  0.3449603E-013  0.5930191E+02  0.7816164E-02  0.1266605E+00
        -11   -1    0    0    0    0  0.00000000000E+00  0.00000000000E+00  0.45593999997E+02  0.45594000000E+02  0.51100000000E-03 0. -1.
         11   -1    0    0    0    0 -0.00000000000E+00 -0.00000000000E+00 -0.45593999997E+02  0.45594000000E+02  0.51100000000E-03 0.  1.
    9900012    2    1    2    0    0  0.16663644829E+02  0.17771895879E+02 -0.20571956307E+02  0.59301910111E+02  0.49999938144E+02 0.  0.
         12    1    1    2    0    0 -0.16663644829E+02 -0.17771895879E+02  0.20571956307E+02  0.31886089889E+02  0.00000000000E+00 0. -1.
         11    1    3    3    0    0 -0.37485057880E+01  0.42437306184E+01  0.17713770337E+01  0.59328173797E+01  0.51100000000E-03 0. -1.
        -11    1    3    3    0    0 -0.11301295058E+02 -0.34830711190E+01 -0.18925369892E+01  0.11976341299E+02  0.51100000000E-03 0.  1.
        -12    1    3    3    0    0  0.31713445674E+02  0.17011236380E+02 -0.20450796351E+02  0.41392751432E+02  0.00000000000E+00 0.  1.
</event>
<event>
 7    1  0.3449603E-013  0.5930196E+02  0.7816164E-02  0.1266605E+00
        -11   -1    0    0    0    0  0.00000000000E+00  0.00000000000E+00  0.45593999997E+02  0.45594000000E+02  0.51100000000E-03 0. -1.
         11   -1    0    0    0    0 -0.00000000000E+00 -0.00000000000E+00 -0.45593999997E+02  0.45594000000E+02  0.51100000000E-03 0.  1.
    9900012    2    1    2    0    0 -0.26060138574E+02 -0.17103974263E+02  0.67113770429E+01  0.59301963246E+02  0.50000035049E+02 0.  0.
         12    1    1    2    0    0  0.26060138574E+02  0.17103974263E+02 -0.67113770429E+01  0.31886036754E+02  0.00000000000E+00 0. -1.
         11    1    3    3    0    0  0.38807005693E+01  0.82416648146E+01  0.55074587245E+01  0.10645044748E+02  0.51100000000E-03 0. -1.
        -11    1    3    3    0    0  0.10106884394E+01  0.49294247991E+01 -0.15715542487E+01  0.52716698482E+01  0.51100000000E-03 0.  1.
         12    1    3    3    0    0 -0.30951527582E+02 -0.30275063877E+02  0.27754725671E+01  0.43385248650E+02  0.00000000000E+00 0. -1.
</event>
<event>
 7    1  0.3449603E-013  0.5930195E+02  0.7816164E-02  0.1266605E+00
        -11   -1    0    0    0    0  0.00000000000E+00  0.00000000000E+00  0.45593999997E+02  0.45594000000E+02  0.51100000000E-03 0. -1.
         11   -1    0    0    0    0 -0.00000000000E+00 -0.00000000000E+00 -0.45593999997E+02  0.45594000000E+02  0.51100000000E-03 0.  1.
    9900012    2    1    2    0    0 -0.16518396863E+02  0.49430251947E+01 -0.26822184186E+02  0.59301945093E+02  0.50000001943E+02 0.  0.
         12    1    1    2    0    0  0.16518396863E+02 -0.49430251947E+01  0.26822184186E+02  0.31886054907E+02  0.00000000000E+00 0. -1.
         11    1    3    3    0    0 -0.17536790893E+02  0.12710471206E+02 -0.79330889484E+01  0.23065754131E+02  0.51100000000E-03 0. -1.
        -11    1    3    3    0    0 -0.30504563044E+01  0.10903804778E+02 -0.39900129002E+01  0.12004934215E+02  0.51100000000E-03 0.  1.
        -12    1    3    3    0    0  0.40688503341E+01 -0.18671250789E+02 -0.14899082338E+02  0.24231256748E+02  0.00000000000E+00 0.  1.
</event>
<event>
 7    1  0.3449603E-013  0.5930196E+02  0.7816164E-02  0.1266605E+00
        -11   -1    0    0    0    0  0.00000000000E+00  0.00000000000E+00  0.45593999997E+02  0.45594000000E+02  0.51100000000E-03 0. -1.
         11   -1    0    0    0    0 -0.00000000000E+00 -0.00000000000E+00 -0.45593999997E+02  0.45594000000E+02  0.51100000000E-03 0.  1.
    9900012    2    1    2    0    0  0.15722315440E+01 -0.23647867499E+02 -0.21331335976E+02  0.59301961616E+02  0.50000032077E+02 0.  0.
         12    1    1    2    0    0 -0.15722315440E+01  0.23647867499E+02  0.21331335976E+02  0.31886038384E+02  0.00000000000E+00 0. -1.
         11    1    3    3    0    0 -0.43201670485E+01  0.36007266715E+01  0.13094960433E+01  0.57744139130E+01  0.51100000000E-03 0. -1.
        -11    1    3    3    0    0  0.10074758131E+02 -0.28655177102E+02 -0.31420107082E+02  0.43701751172E+02  0.51100000000E-03 0.  1.
         12    1    3    3    0    0 -0.41823595380E+01  0.14065829312E+01  0.87792750628E+01  0.98257965314E+01  0.00000000000E+00 0. -1.
</event>
<event>
 7    1  0.3449603E-013  0.5930197E+02  0.7816164E-02  0.1266605E+00
        -11   -1    0    0    0    0  0.00000000000E+00  0.00000000000E+00  0.45593999997E+02  0.45594000000E+02  0.51100000000E-03 0. -1.
         11   -1    0    0    0    0 -0.00000000000E+00 -0.00000000000E+00 -0.45593999997E+02  0.45594000000E+02  0.51100000000E-03 0.  1.
    9900012    2    1    2    0    0  0.55420136203E+01 -0.31079266577E+02  0.44815114219E+01  0.59301973741E+02  0.50000054191E+02 0.  0.
         12    1    1    2    0    0 -0.55420136203E+01  0.31079266577E+02 -0.44815114219E+01  0.31886026259E+02  0.00000000000E+00 0. -1.
         11    1    3    3    0    0  0.94886741573E+01 -0.71179147864E+00  0.58829570960E+01  0.11187080442E+02  0.51100000000E-03 0. -1.
        -11    1    3    3    0    0 -0.15591998943E+02 -0.14495848570E+00 -0.20031269628E+01  0.15720813016E+02  0.51100000000E-03 0.  1.
         12    1    3    3    0    0  0.11645338406E+02 -0.30222516613E+02  0.60168128861E+00  0.32394080283E+02  0.00000000000E+00 0. -1.
</event>
<event>
 7    1  0.3449603E-013  0.5930196E+02  0.7816164E-02  0.1266605E+00
        -11   -1    0    0    0    0  0.00000000000E+00  0.00000000000E+00  0.45593999997E+02  0.45594000000E+02  0.51100000000E-03 0.  1.
         11   -1    0    0    0    0 -0.00000000000E+00 -0.00000000000E+00 -0.45593999997E+02  0.45594000000E+02  0.51100000000E-03 0. -1.
    9900012    2    1    2    0    0  0.21633897553E+01 -0.89263639803E+00  0.31800034618E+02  0.59301964551E+02  0.50000037429E+02 0.  0.
         12    1    1    2    0    0 -0.21633897553E+01  0.89263639803E+00 -0.31800034618E+02  0.31886035449E+02  0.00000000000E+00 0. -1.
         11    1    3    3    0    0  0.63816399172E+01 -0.39603009840E+01 -0.36357838972E+01  0.83443535834E+01  0.51100000000E-03 0. -1.
        -11    1    3    3    0    0 -0.11844581810E+02  0.98971616907E+01  0.14961904150E+01  0.15507627600E+02  0.51100000000E-03 0.  1.
        -12    1    3    3    0    0  0.76263316477E+01 -0.68294971047E+01  0.33939628100E+02  0.35449983367E+02  0.00000000000E+00 0.  1.
</event>
<event>
 7    1  0.3449603E-013  0.5930190E+02  0.7816164E-02  0.1266605E+00
        -11   -1    0    0    0    0  0.00000000000E+00  0.00000000000E+00  0.45593999997E+02  0.45594000000E+02  0.51100000000E-03 0.  1.
         11   -1    0    0    0    0 -0.00000000000E+00 -0.00000000000E+00 -0.45593999997E+02  0.45594000000E+02  0.51100000000E-03 0. -1.
    9900012    2    1    2    0    0 -0.23199416720E+01  0.19542116313E+02  0.25088787163E+02  0.59301895179E+02  0.49999910911E+02 0.  0.
         12    1    1    2    0    0  0.23199416720E+01 -0.19542116313E+02 -0.25088787163E+02  0.31886104821E+02  0.00000000000E+00 0. -1.
         11    1    3    3    0    0 -0.39606742427E+01 -0.87016681741E+00 -0.67886500207E+01  0.79075849734E+01  0.51100000000E-03 0.  1.
        -11    1    3    3    0    0 -0.10200595621E+02 -0.55974024581E+01  0.76147728806E+01  0.13905676236E+02  0.51100000000E-03 0. -1.
        -12    1    3    3    0    0  0.11841328192E+02  0.26009685589E+02  0.24262664303E+02  0.37488633969E+02  0.00000000000E+00 0.  1.
</event>
<event>
 7    1  0.4654188E-013  0.5930191E+02  0.7816164E-02  0.1266605E+00
        -11   -1    0    0    0    0  0.00000000000E+00  0.00000000000E+00  0.45593999997E+02  0.45594000000E+02  0.51100000000E-03 0. -1.
         11   -1    0    0    0    0 -0.00000000000E+00 -0.00000000000E+00 -0.45593999997E+02  0.45594000000E+02  0.51100000000E-03 0.  1.
    9900012    2    1    2    0    0 -0.31180317616E+02  0.51187213795E+01 -0.42789206877E+01  0.59301910910E+02  0.49999939601E+02 0.  0.
         12    1    1    2    0    0  0.31180317616E+02 -0.51187213795E+01  0.42789206877E+01  0.31886089090E+02  0.00000000000E+00 0. -1.
         11    1    3    3    0    0 -0.15391613441E+02  0.12903124678E+02  0.35460562121E+01  0.20395266747E+02  0.51100000000E-03 0. -1.
        -11    1    3    3    0    0 -0.43780520883E+01  0.66179827712E+00 -0.19827741552E+02  0.20316118044E+02  0.51100000000E-03 0.  1.
         12    1    3    3    0    0 -0.11410652087E+02 -0.84462015753E+01  0.12002764652E+02  0.18590526120E+02  0.00000000000E+00 0. -1.
</event>
<event>
 7    1  0.3449603E-013  0.5930205E+02  0.7816164E-02  0.1266604E+00
        -11   -1    0    0    0    0  0.00000000000E+00  0.00000000000E+00  0.45593999997E+02  0.45594000000E+02  0.51100000000E-03 0.  1.
         11   -1    0    0    0    0 -0.00000000000E+00 -0.00000000000E+00 -0.45593999997E+02  0.45594000000E+02  0.51100000000E-03 0. -1.
    9900012    2    1    2    0    0 -0.27886203980E+02  0.90344574303E+01 -0.12547979221E+02  0.59302053629E+02  0.50000199885E+02 0.  0.
         12    1    1    2    0    0  0.27886203980E+02 -0.90344574303E+01  0.12547979221E+02  0.31885946371E+02  0.00000000000E+00 0. -1.
         11    1    3    3    0    0 -0.12828544902E+02 -0.33966951723E+01 -0.72782854786E+01  0.15135472975E+02  0.51100000000E-03 0. -1.
        -11    1    3    3    0    0 -0.17159378405E+02 -0.52426026221E+01 -0.15436796844E+02  0.23669048282E+02  0.51100000000E-03 0.  1.
        -12    1    3    3    0    0  0.21017193270E+01  0.17673755225E+02  0.10167103102E+02  0.20497532372E+02  0.00000000000E+00 0.  1.
</event>
<event>
 7    1  0.3449603E-013  0.5930198E+02  0.7816164E-02  0.1266605E+00
        -11   -1    0    0    0    0  0.00000000000E+00  0.00000000000E+00  0.45593999997E+02  0.45594000000E+02  0.51100000000E-03 0. -1.
         11   -1    0    0    0    0 -0.00000000000E+00 -0.00000000000E+00 -0.45593999997E+02  0.45594000000E+02  0.51100000000E-03 0.  1.
    9900012    2    1    2    0    0  0.13077301022E+02  0.13779986144E+02 -0.25608876992E+02  0.59301977969E+02  0.50000061901E+02 0.  0.
         12    1    1    2    0    0 -0.13077301022E+02 -0.13779986144E+02  0.25608876992E+02  0.31886022031E+02  0.00000000000E+00 0. -1.
         11    1    3    3    0    0 -0.68619483488E+01 -0.27810955243E+01  0.98315582486E+01  0.12307735995E+02  0.51100000000E-03 0. -1.
        -11    1    3    3    0    0  0.34273576324E+01 -0.23672019063E+01 -0.85875674580E+00  0.42529858471E+01  0.51100000000E-03 0.  1.
        -12    1    3    3    0    0  0.16511891738E+02  0.18928283574E+02 -0.34581678495E+02  0.42741256128E+02  0.00000000000E+00 0.  1.
</event>
<event>
 7    1  0.3449603E-013  0.5930191E+02  0.7816164E-02  0.1266605E+00
        -11   -1    0    0    0    0  0.00000000000E+00  0.00000000000E+00  0.45593999997E+02  0.45594000000E+02  0.51100000000E-03 0.  1.
         11   -1    0    0    0    0 -0.00000000000E+00 -0.00000000000E+00 -0.45593999997E+02  0.45594000000E+02  0.51100000000E-03 0. -1.
    9900012    2    1    2    0    0  0.24031186864E+02  0.20903983416E+02 -0.14995076144E+01  0.59301906043E+02  0.49999930725E+02 0.  0.
         12    1    1    2    0    0 -0.24031186864E+02 -0.20903983416E+02  0.14995076144E+01  0.31886093957E+02  0.00000000000E+00 0. -1.
         11    1    3    3    0    0 -0.66149155119E+01  0.61969900959E+01 -0.65777873880E+01  0.11199423229E+02  0.51100000000E-03 0. -1.
        -11    1    3    3    0    0 -0.35898266191E+01  0.99208745555E+01 -0.55704489001E+01  0.11930654144E+02  0.51100000000E-03 0.  1.
         12    1    3    3    0    0  0.34235928995E+02  0.47861187643E+01  0.10648728674E+02  0.36171828670E+02  0.00000000000E+00 0. -1.
</event>
<event>
 7    1  0.3449603E-013  0.5930194E+02  0.7816164E-02  0.1266605E+00
        -11   -1    0    0    0    0  0.00000000000E+00  0.00000000000E+00  0.45593999997E+02  0.45594000000E+02  0.51100000000E-03 0. -1.
         11   -1    0    0    0    0 -0.00000000000E+00 -0.00000000000E+00 -0.45593999997E+02  0.45594000000E+02  0.51100000000E-03 0.  1.
    9900012    2    1    2    0    0 -0.24704064208E+02 -0.17957470394E+02 -0.91629311333E+01  0.59301939749E+02  0.49999992198E+02 0.  0.
         12    1    1    2    0    0  0.24704064208E+02  0.17957470394E+02  0.91629311333E+01  0.31886060251E+02  0.00000000000E+00 0. -1.
         11    1    3    3    0    0 -0.95104900511E+01  0.70324166912E+01  0.10380240922E+02  0.15737017106E+02  0.51100000000E-03 0. -1.
        -11    1    3    3    0    0 -0.59193157315E+01  0.43345080128E+01 -0.42027361878E+00  0.73486657712E+01  0.51100000000E-03 0.  1.
        -12    1    3    3    0    0 -0.92742584256E+01 -0.29324395098E+02 -0.19122898437E+02  0.36216256872E+02  0.00000000000E+00 0.  1.
</event>
<event>
 7    1  0.3449603E-013  0.5930177E+02  0.7816164E-02  0.1266605E+00
        -11   -1    0    0    0    0  0.00000000000E+00  0.00000000000E+00  0.45593999997E+02  0.45594000000E+02  0.51100000000E-03 0. -1.
         11   -1    0    0    0    0 -0.00000000000E+00 -0.00000000000E+00 -0.45593999997E+02  0.45594000000E+02  0.51100000000E-03 0.  1.
    9900012    2    1    2    0    0  0.20206775315E+02 -0.12098429116E+02 -0.21495258101E+02  0.59301766661E+02  0.49999676525E+02 0.  0.
         12    1    1    2    0    0 -0.20206775315E+02  0.12098429116E+02  0.21495258101E+02  0.31886233339E+02  0.00000000000E+00 0. -1.
         11    1    3    3    0    0  0.82375143428E+01  0.18383057120E+01 -0.15725221532E+02  0.17847089480E+02  0.51100000000E-03 0. -1.
        -11    1    3    3    0    0  0.66338464823E+01 -0.24649835021E+02  0.42095991273E+01  0.25871664245E+02  0.51100000000E-03 0.  1.
         12    1    3    3    0    0  0.53354144900E+01  0.10713100193E+02 -0.99796356967E+01  0.15583012936E+02  0.00000000000E+00 0. -1.
</event>
<event>
 7    1  0.3449603E-013  0.5930220E+02  0.7816164E-02  0.1266604E+00
        -11   -1    0    0    0    0  0.00000000000E+00  0.00000000000E+00  0.45593999997E+02  0.45594000000E+02  0.51100000000E-03 0.  1.
         11   -1    0    0    0    0 -0.00000000000E+00 -0.00000000000E+00 -0.45593999997E+02  0.45594000000E+02  0.51100000000E-03 0. -1.
    9900012    2    1    2    0    0  0.90012106816E+01 -0.19212745489E+02  0.23802375748E+02  0.59302196354E+02  0.50000460180E+02 0.  0.
         12    1    1    2    0    0 -0.90012106816E+01  0.19212745489E+02 -0.23802375748E+02  0.31885803646E+02  0.00000000000E+00 0. -1.
         11    1    3    3    0    0  0.37884671630E+01 -0.40026134382E+01  0.79011171861E+01  0.96333302046E+01  0.51100000000E-03 0. -1.
        -11    1    3    3    0    0  0.22097140027E+02 -0.11559226795E+02  0.19938551071E+02  0.31928751002E+02  0.51100000000E-03 0.  1.
         12    1    3    3    0    0 -0.16884396508E+02 -0.36509052550E+01 -0.40372925099E+01  0.17740115147E+02  0.00000000000E+00 0. -1.
</event>
<event>
 7    1  0.3449603E-013  0.5930196E+02  0.7816164E-02  0.1266605E+00
        -11   -1    0    0    0    0  0.00000000000E+00  0.00000000000E+00  0.45593999997E+02  0.45594000000E+02  0.51100000000E-03 0.  1.
         11   -1    0    0    0    0 -0.00000000000E+00 -0.00000000000E+00 -0.45593999997E+02  0.45594000000E+02  0.51100000000E-03 0. -1.
    9900012    2    1    2    0    0  0.53639506533E+01 -0.15248813787E+02  0.27484932387E+02  0.59301956081E+02  0.50000021982E+02 0.  0.
         12    1    1    2    0    0 -0.53639506533E+01  0.15248813787E+02 -0.27484932387E+02  0.31886043919E+02  0.00000000000E+00 0. -1.
         11    1    3    3    0    0  0.98028203730E+01  0.25737961059E+01 -0.94308906270E+01  0.13844183325E+02  0.51100000000E-03 0. -1.
        -11    1    3    3    0    0 -0.92554248421E+01 -0.45833623305E+01  0.72562953019E+01  0.12622357982E+02  0.51100000000E-03 0.  1.
        -12    1    3    3    0    0  0.48165551224E+01 -0.13239247562E+02  0.29659527712E+02  0.32835414774E+02  0.00000000000E+00 0.  1.
</event>
<event>
 7    1  0.3449603E-013  0.5930196E+02  0.7816164E-02  0.1266605E+00
        -11   -1    0    0    0    0  0.00000000000E+00  0.00000000000E+00  0.45593999997E+02  0.45594000000E+02  0.51100000000E-03 0. -1.
         11   -1    0    0    0    0 -0.00000000000E+00 -0.00000000000E+00 -0.45593999997E+02  0.45594000000E+02  0.51100000000E-03 0.  1.
    9900012    2    1    2    0    0 -0.11774689831E+02 -0.24030242389E+02 -0.17338504988E+02  0.59301958773E+02  0.50000026892E+02 0.  0.
         12    1    1    2    0    0  0.11774689831E+02  0.24030242389E+02  0.17338504988E+02  0.31886041227E+02  0.00000000000E+00 0. -1.
         11    1    3    3    0    0  0.95079142785E+01 -0.11526678450E+02 -0.19091524856E+01  0.15063519293E+02  0.51100000000E-03 0. -1.
        -11    1    3    3    0    0  0.73369890870E+01 -0.98070249280E+01 -0.77143186811E+01  0.14474800854E+02  0.51100000000E-03 0.  1.
        -12    1    3    3    0    0 -0.28619593197E+02 -0.26965390112E+01 -0.77150338213E+01  0.29763638626E+02  0.00000000000E+00 0.  1.
</event>
<event>
 7    1  0.3449603E-013  0.5930190E+02  0.7816164E-02  0.1266605E+00
        -11   -1    0    0    0    0  0.00000000000E+00  0.00000000000E+00  0.45593999997E+02  0.45594000000E+02  0.51100000000E-03 0.  1.
         11   -1    0    0    0    0 -0.00000000000E+00 -0.00000000000E+00 -0.45593999997E+02  0.45594000000E+02  0.51100000000E-03 0. -1.
    9900012    2    1    2    0    0 -0.13532305736E+02  0.88701639324E+01  0.27475813048E+02  0.59301899433E+02  0.49999918670E+02 0.  0.
         12    1    1    2    0    0  0.13532305736E+02 -0.88701639324E+01 -0.27475813048E+02  0.31886100567E+02  0.00000000000E+00 0. -1.
         11    1    3    3    0    0 -0.39214375463E+01 -0.11261494578E+02 -0.42150249615E+01  0.12647741626E+02  0.51100000000E-03 0. -1.
        -11    1    3    3    0    0 -0.14772791886E+02  0.63539883519E+01  0.62259219494E+01  0.17244438305E+02  0.51100000000E-03 0.  1.
         12    1    3    3    0    0  0.51619236958E+01  0.13777670158E+02  0.25464916060E+02  0.29409719502E+02  0.00000000000E+00 0. -1.
</event>
<event>
 7    1  0.3449603E-013  0.5930195E+02  0.7816164E-02  0.1266605E+00
        -11   -1    0    0    0    0  0.00000000000E+00  0.00000000000E+00  0.45593999997E+02  0.45594000000E+02  0.51100000000E-03 0. -1.
         11   -1    0    0    0    0 -0.00000000000E+00 -0.00000000000E+00 -0.45593999997E+02  0.45594000000E+02  0.51100000000E-03 0.  1.
    9900012    2    1    2    0    0  0.22508370135E+02  0.21962065351E+02 -0.52688687541E+01  0.59301952604E+02  0.50000015640E+02 0.  0.
         12    1    1    2    0    0 -0.22508370135E+02 -0.21962065351E+02  0.52688687541E+01  0.31886047396E+02  0.00000000000E+00 0. -1.
         11    1    3    3    0    0 -0.95370118890E+01  0.11630892485E+02 -0.64822103409E+01  0.16378379252E+02  0.51100000000E-03 0. -1.
        -11    1    3    3    0    0  0.23462014494E+02  0.84828076224E+01 -0.11501355854E+02  0.27471900844E+02  0.51100000000E-03 0.  1.
         12    1    3    3    0    0  0.85833675306E+01  0.18483652437E+01  0.12714697441E+02  0.15451672507E+02  0.00000000000E+00 0. -1.
</event>
<event>
 7    1  0.3449603E-013  0.5930194E+02  0.7816164E-02  0.1266605E+00
        -11   -1    0    0    0    0  0.00000000000E+00  0.00000000000E+00  0.45593999997E+02  0.45594000000E+02  0.51100000000E-03 0.  1.
         11   -1    0    0    0    0 -0.00000000000E+00 -0.00000000000E+00 -0.45593999997E+02  0.45594000000E+02  0.51100000000E-03 0. -1.
    9900012    2    1    2    0    0 -0.16687461648E+01 -0.28880526770E+02  0.13410868977E+02  0.59301938045E+02  0.49999989089E+02 0.  0.
         12    1    1    2    0    0  0.16687461648E+01  0.28880526770E+02 -0.13410868977E+02  0.31886061955E+02  0.00000000000E+00 0. -1.
         11    1    3    3    0    0  0.77374403832E+01 -0.27814028093E+02 -0.71898396982E+00  0.28879146121E+02  0.51100000000E-03 0. -1.
        -11    1    3    3    0    0  0.96864363419E+00 -0.11900663192E+02  0.60852692422E+01  0.13401289375E+02  0.51100000000E-03 0.  1.
         12    1    3    3    0    0 -0.10374830182E+02  0.10834164515E+02  0.80445837046E+01  0.17021502549E+02  0.00000000000E+00 0. -1.
</event>
<event>
 7    1  0.5209325E-013  0.5930194E+02  0.7816164E-02  0.1266605E+00
        -11   -1    0    0    0    0  0.00000000000E+00  0.00000000000E+00  0.45593999997E+02  0.45594000000E+02  0.51100000000E-03 0. -1.
         11   -1    0    0    0    0 -0.00000000000E+00 -0.00000000000E+00 -0.45593999997E+02  0.45594000000E+02  0.51100000000E-03 0.  1.
    9900012    2    1    2    0    0  0.20593983492E+02 -0.36815630335E+00 -0.24340768037E+02  0.59301942172E+02  0.49999996616E+02 0.  0.
         12    1    1    2    0    0 -0.20593983492E+02  0.36815630335E+00  0.24340768037E+02  0.31886057828E+02  0.00000000000E+00 0. -1.
         11    1    3    3    0    0  0.36601849188E+00  0.77949695706E+01  0.34940312529E+01  0.85500745495E+01  0.51100000000E-03 0. -1.
        -11    1    3    3    0    0 -0.18505761664E+01  0.92596550604E+01 -0.19091657929E+02  0.21299231130E+02  0.51100000000E-03 0.  1.
         12    1    3    3    0    0  0.22078541166E+02 -0.17422780934E+02 -0.87431413611E+01  0.29452636493E+02  0.00000000000E+00 0. -1.
</event>
<event>
 7    1  0.3449603E-013  0.5930194E+02  0.7816164E-02  0.1266605E+00
        -11   -1    0    0    0    0  0.00000000000E+00  0.00000000000E+00  0.45593999997E+02  0.45594000000E+02  0.51100000000E-03 0. -1.
         11   -1    0    0    0    0 -0.00000000000E+00 -0.00000000000E+00 -0.45593999997E+02  0.45594000000E+02  0.51100000000E-03 0.  1.
    9900012    2    1    2    0    0  0.14488623210E+02 -0.13004498026E+02 -0.25252400027E+02  0.59301939118E+02  0.49999991046E+02 0.  0.
         12    1    1    2    0    0 -0.14488623210E+02  0.13004498026E+02  0.25252400027E+02  0.31886060882E+02  0.00000000000E+00 0. -1.
         11    1    3    3    0    0 -0.27924415026E+01  0.92291563855E+01  0.45486926140E+01  0.10661409939E+02  0.51100000000E-03 0. -1.
        -11    1    3    3    0    0  0.12783700541E+02 -0.83192056801E+00 -0.15353523978E+01  0.12902418323E+02  0.51100000000E-03 0.  1.
        -12    1    3    3    0    0  0.44973641719E+01 -0.21401733844E+02 -0.28265740243E+02  0.35738110856E+02  0.00000000000E+00 0.  1.
</event>
<event>
 7    1  0.3449603E-013  0.5930193E+02  0.7816164E-02  0.1266605E+00
        -11   -1    0    0    0    0  0.00000000000E+00  0.00000000000E+00  0.45593999997E+02  0.45594000000E+02  0.51100000000E-03 0. -1.
         11   -1    0    0    0    0 -0.00000000000E+00 -0.00000000000E+00 -0.45593999997E+02  0.45594000000E+02  0.51100000000E-03 0.  1.
    9900012    2    1    2    0    0 -0.30121568724E+01  0.12137303028E+01 -0.31720268234E+02  0.59301927067E+02  0.49999969068E+02 0.  0.
         12    1    1    2    0    0  0.30121568724E+01 -0.12137303028E+01  0.31720268234E+02  0.31886072933E+02  0.00000000000E+00 0. -1.
         11    1    3    3    0    0 -0.95476581082E+00 -0.17116817857E+02 -0.65392846107E+01  0.18348277161E+02  0.51100000000E-03 0. -1.
        -11    1    3    3    0    0  0.27959433556E+01 -0.60192941350E+01 -0.94960802306E+01  0.11585540175E+02  0.51100000000E-03 0.  1.
         12    1    3    3    0    0 -0.48533344173E+01  0.24349842295E+02 -0.15684903392E+02  0.29368109731E+02  0.00000000000E+00 0. -1.
</event>
<event>
 7    1  0.3449603E-013  0.5930195E+02  0.7816164E-02  0.1266605E+00
        -11   -1    0    0    0    0  0.00000000000E+00  0.00000000000E+00  0.45593999997E+02  0.45594000000E+02  0.51100000000E-03 0. -1.
         11   -1    0    0    0    0 -0.00000000000E+00 -0.00000000000E+00 -0.45593999997E+02  0.45594000000E+02  0.51100000000E-03 0.  1.
    9900012    2    1    2    0    0  0.20677258250E+02  0.91419266785E+01 -0.22485463034E+02  0.59301954776E+02  0.50000019603E+02 0.  0.
         12    1    1    2    0    0 -0.20677258250E+02 -0.91419266785E+01  0.22485463034E+02  0.31886045224E+02  0.00000000000E+00 0. -1.
         11    1    3    3    0    0  0.15883564024E+02  0.63314302446E+01 -0.62986790679E+01  0.18222183549E+02  0.51100000000E-03 0. -1.
        -11    1    3    3    0    0 -0.39035435912E+01  0.10166629445E+02  0.85504478770E+01  0.13845871804E+02  0.51100000000E-03 0.  1.
        -12    1    3    3    0    0  0.86972378172E+01 -0.73561330113E+01 -0.24737231843E+02  0.27233899423E+02  0.00000000000E+00 0.  1.
</event>
<event>
 7    1  0.3449603E-013  0.5930195E+02  0.7816164E-02  0.1266605E+00
        -11   -1    0    0    0    0  0.00000000000E+00  0.00000000000E+00  0.45593999997E+02  0.45594000000E+02  0.51100000000E-03 0.  1.
         11   -1    0    0    0    0 -0.00000000000E+00 -0.00000000000E+00 -0.45593999997E+02  0.45594000000E+02  0.51100000000E-03 0. -1.
    9900012    2    1    2    0    0  0.14450328947E+02  0.23802000579E+02  0.15536187035E+02  0.59301947472E+02  0.50000006282E+02 0.  0.
         12    1    1    2    0    0 -0.14450328947E+02 -0.23802000579E+02 -0.15536187035E+02  0.31886052528E+02  0.00000000000E+00 0. -1.
         11    1    3    3    0    0 -0.33791629771E+01 -0.15422120769E+01  0.65200014944E+01  0.75038377025E+01  0.51100000000E-03 0. -1.
        -11    1    3    3    0    0 -0.66125842049E+00  0.13406963657E+01  0.19634738304E+02  0.19691563624E+02  0.51100000000E-03 0.  1.
        -12    1    3    3    0    0  0.18490750344E+02  0.24003516291E+02 -0.10618552763E+02  0.32106546146E+02  0.00000000000E+00 0.  1.
</event>
<event>
 7    1  0.3449603E-013  0.5930195E+02  0.7816164E-02  0.1266605E+00
        -11   -1    0    0    0    0  0.00000000000E+00  0.00000000000E+00  0.45593999997E+02  0.45594000000E+02  0.51100000000E-03 0. -1.
         11   -1    0    0    0    0 -0.00000000000E+00 -0.00000000000E+00 -0.45593999997E+02  0.45594000000E+02  0.51100000000E-03 0.  1.
    9900012    2    1    2    0    0 -0.25139105716E+02  0.16615540933E+02 -0.10424465620E+02  0.59301947875E+02  0.50000007016E+02 0.  0.
         12    1    1    2    0    0  0.25139105716E+02 -0.16615540933E+02  0.10424465620E+02  0.31886052125E+02  0.00000000000E+00 0. -1.
         11    1    3    3    0    0  0.72510414125E+01 -0.81976216289E+01 -0.32408940262E+01  0.11414113907E+02  0.51100000000E-03 0. -1.
        -11    1    3    3    0    0 -0.25297585078E+01  0.53877498145E+01  0.73122771459E+01  0.94285165053E+01  0.51100000000E-03 0.  1.
        -12    1    3    3    0    0 -0.29860388621E+02  0.19425412747E+02 -0.14495848739E+02  0.38459317462E+02  0.00000000000E+00 0.  1.
</event>
<event>
 7    1  0.3449603E-013  0.5930171E+02  0.7816164E-02  0.1266606E+00
        -11   -1    0    0    0    0  0.00000000000E+00  0.00000000000E+00  0.45593999997E+02  0.45594000000E+02  0.51100000000E-03 0.  1.
         11   -1    0    0    0    0 -0.00000000000E+00 -0.00000000000E+00 -0.45593999997E+02  0.45594000000E+02  0.51100000000E-03 0. -1.
    9900012    2    1    2    0    0  0.21547475708E+02  0.97375200630E+01  0.21392109720E+02  0.59301711966E+02  0.49999576773E+02 0.  0.
         12    1    1    2    0    0 -0.21547475708E+02 -0.97375200630E+01 -0.21392109720E+02  0.31886288034E+02  0.00000000000E+00 0. -1.
         11    1    3    3    0    0  0.17783639148E+02  0.13118144185E+02 -0.70074140790E+01  0.23182911390E+02  0.51100000000E-03 0. -1.
        -11    1    3    3    0    0  0.81826422245E+01  0.35591016915E+01  0.29903434572E+01  0.94108975596E+01  0.51100000000E-03 0.  1.
         12    1    3    3    0    0 -0.44188056644E+01 -0.69397258139E+01  0.25409180341E+02  0.26707903016E+02  0.00000000000E+00 0. -1.
</event>
<event>
 7    1  0.3449603E-013  0.5930198E+02  0.7816164E-02  0.1266605E+00
        -11   -1    0    0    0    0  0.00000000000E+00  0.00000000000E+00  0.45593999997E+02  0.45594000000E+02  0.51100000000E-03 0.  1.
         11   -1    0    0    0    0 -0.00000000000E+00 -0.00000000000E+00 -0.45593999997E+02  0.45594000000E+02  0.51100000000E-03 0. -1.
    9900012    2    1    2    0    0  0.12955882034E+02  0.28841596789E+02  0.41262395474E+01  0.59301977397E+02  0.50000060857E+02 0.  0.
         12    1    1    2    0    0 -0.12955882034E+02 -0.28841596789E+02 -0.41262395474E+01  0.31886022603E+02  0.00000000000E+00 0. -1.
         11    1    3    3    0    0 -0.55012353699E+01  0.14890360706E+02 -0.10806411971E+02  0.19203254216E+02  0.51100000000E-03 0. -1.
        -11    1    3    3    0    0 -0.27161487627E+01  0.50811884228E+01 -0.65046507552E+01  0.86894431121E+01  0.51100000000E-03 0.  1.
        -12    1    3    3    0    0  0.21173266167E+02  0.88700476600E+01  0.21437302273E+02  0.31409280068E+02  0.00000000000E+00 0.  1.
</event>
<event>
 7    1  0.3449603E-013  0.5930196E+02  0.7816164E-02  0.1266605E+00
        -11   -1    0    0    0    0  0.00000000000E+00  0.00000000000E+00  0.45593999997E+02  0.45594000000E+02  0.51100000000E-03 0. -1.
         11   -1    0    0    0    0 -0.00000000000E+00 -0.00000000000E+00 -0.45593999997E+02  0.45594000000E+02  0.51100000000E-03 0.  1.
    9900012    2    1    2    0    0  0.46856098978E+01 -0.52218469485E+01 -0.31104612058E+02  0.59301960469E+02  0.50000029985E+02 0.  0.
         12    1    1    2    0    0 -0.46856098978E+01  0.52218469485E+01  0.31104612058E+02  0.31886039531E+02  0.00000000000E+00 0. -1.
         11    1    3    3    0    0 -0.39003133046E+01  0.12623228048E+02 -0.26780834318E+01  0.13480744095E+02  0.51100000000E-03 0. -1.
        -11    1    3    3    0    0 -0.11592831008E+01 -0.14042840448E+02  0.14512340620E+01  0.14165146866E+02  0.51100000000E-03 0.  1.
        -12    1    3    3    0    0  0.97452063032E+01 -0.38022345477E+01 -0.29877762689E+02  0.31656069508E+02  0.00000000000E+00 0.  1.
</event>
<event>
 7    1  0.3449603E-013  0.5930194E+02  0.7816164E-02  0.1266605E+00
        -11   -1    0    0    0    0  0.00000000000E+00  0.00000000000E+00  0.45593999997E+02  0.45594000000E+02  0.51100000000E-03 0.  1.
         11   -1    0    0    0    0 -0.00000000000E+00 -0.00000000000E+00 -0.45593999997E+02  0.45594000000E+02  0.51100000000E-03 0. -1.
    9900012    2    1    2    0    0  0.25840277854E+01 -0.21084659675E+02  0.23779843571E+02  0.59301936689E+02  0.49999986615E+02 0.  0.
         12    1    1    2    0    0 -0.25840277854E+01  0.21084659675E+02 -0.23779843571E+02  0.31886063311E+02  0.00000000000E+00 0. -1.
         11    1    3    3    0    0 -0.19643827483E+01 -0.16827016594E+02  0.15592813389E+02  0.23024836952E+02  0.51100000000E-03 0.  1.
        -11    1    3    3    0    0  0.54131155484E+00 -0.19019870941E+02  0.21687682522E+00  0.19028808281E+02  0.51100000000E-03 0. -1.
        -12    1    3    3    0    0  0.40070989790E+01  0.14762227859E+02  0.79701533572E+01  0.17248291455E+02  0.00000000000E+00 0.  1.
</event>
<event>
 7    1  0.3449603E-013  0.5930198E+02  0.7816164E-02  0.1266605E+00
        -11   -1    0    0    0    0  0.00000000000E+00  0.00000000000E+00  0.45593999997E+02  0.45594000000E+02  0.51100000000E-03 0. -1.
         11   -1    0    0    0    0 -0.00000000000E+00 -0.00000000000E+00 -0.45593999997E+02  0.45594000000E+02  0.51100000000E-03 0.  1.
    9900012    2    1    2    0    0 -0.14569542432E+02 -0.17137214039E+02 -0.22600052890E+02  0.59301983279E+02  0.50000071585E+02 0.  0.
         12    1    1    2    0    0  0.14569542432E+02  0.17137214039E+02  0.22600052890E+02  0.31886016721E+02  0.00000000000E+00 0. -1.
         11    1    3    3    0    0 -0.14450177517E+02 -0.17096369598E+02 -0.63820857498E+01  0.23277124017E+02  0.51100000000E-03 0. -1.
        -11    1    3    3    0    0  0.12386736988E+02 -0.48992534277E+01  0.19262307279E+01  0.13458985936E+02  0.51100000000E-03 0.  1.
        -12    1    3    3    0    0 -0.12506101903E+02  0.48584089870E+01 -0.18144197868E+02  0.22565873326E+02  0.00000000000E+00 0.  1.
</event>
<event>
 7    1  0.3449603E-013  0.5930216E+02  0.7816164E-02  0.1266604E+00
        -11   -1    0    0    0    0  0.00000000000E+00  0.00000000000E+00  0.45593999997E+02  0.45594000000E+02  0.51100000000E-03 0.  1.
         11   -1    0    0    0    0 -0.00000000000E+00 -0.00000000000E+00 -0.45593999997E+02  0.45594000000E+02  0.51100000000E-03 0. -1.
    9900012    2    1    2    0    0  0.15431629307E+02 -0.21542479193E+02 -0.17733950364E+02  0.59302163201E+02  0.50000399718E+02 0.  0.
         12    1    1    2    0    0 -0.15431629307E+02  0.21542479193E+02  0.17733950364E+02  0.31885836799E+02  0.00000000000E+00 0. -1.
         11    1    3    3    0    0  0.28969313543E+02 -0.90442431652E+01 -0.13908025621E+02  0.33383418617E+02  0.51100000000E-03 0. -1.
        -11    1    3    3    0    0 -0.26468398123E+01 -0.74407473064E+01 -0.97351012941E+01  0.12535656303E+02  0.51100000000E-03 0.  1.
        -12    1    3    3    0    0 -0.10890844425E+02 -0.50574887219E+01  0.59091765506E+01  0.13383088282E+02  0.00000000000E+00 0.  1.
</event>
<event>
 7    1  0.3449603E-013  0.5930194E+02  0.7816164E-02  0.1266605E+00
        -11   -1    0    0    0    0  0.00000000000E+00  0.00000000000E+00  0.45593999997E+02  0.45594000000E+02  0.51100000000E-03 0.  1.
         11   -1    0    0    0    0 -0.00000000000E+00 -0.00000000000E+00 -0.45593999997E+02  0.45594000000E+02  0.51100000000E-03 0. -1.
    9900012    2    1    2    0    0  0.20301069533E+02  0.22123340778E+02  0.10730582774E+02  0.59301936617E+02  0.49999986485E+02 0.  0.
         12    1    1    2    0    0 -0.20301069533E+02 -0.22123340778E+02 -0.10730582774E+02  0.31886063383E+02  0.00000000000E+00 0. -1.
         11    1    3    3    0    0  0.14333801664E+02  0.48503675486E+00 -0.13404517400E+02  0.19630950507E+02  0.51100000000E-03 0. -1.
        -11    1    3    3    0    0  0.38224622710E+01 -0.77295029619E-01 -0.29932202127E+01  0.48555699807E+01  0.51100000000E-03 0.  1.
         12    1    3    3    0    0  0.21448055975E+01  0.21715599053E+02  0.27128320387E+02  0.34815416130E+02  0.00000000000E+00 0. -1.
</event>
<event>
 7    1  0.3449603E-013  0.5930195E+02  0.7816164E-02  0.1266605E+00
        -11   -1    0    0    0    0  0.00000000000E+00  0.00000000000E+00  0.45593999997E+02  0.45594000000E+02  0.51100000000E-03 0. -1.
         11   -1    0    0    0    0 -0.00000000000E+00 -0.00000000000E+00 -0.45593999997E+02  0.45594000000E+02  0.51100000000E-03 0.  1.
    9900012    2    1    2    0    0  0.25967888105E+02  0.63213729400E+01 -0.17390491728E+02  0.59301950213E+02  0.50000011280E+02 0.  0.
         12    1    1    2    0    0 -0.25967888105E+02 -0.63213729400E+01  0.17390491728E+02  0.31886049787E+02  0.00000000000E+00 0. -1.
         11    1    3    3    0    0  0.36293905672E+01 -0.11143527180E+02 -0.50427143216E+01  0.12758512527E+02  0.51100000000E-03 0. -1.
        -11    1    3    3    0    0  0.13918356250E+02  0.39967802422E+01 -0.23170322152E+02  0.27323226784E+02  0.51100000000E-03 0.  1.
        -12    1    3    3    0    0  0.84201412881E+01  0.13468119878E+02  0.10822544746E+02  0.19220210902E+02  0.00000000000E+00 0.  1.
</event>
<event>
 7    1  0.3449603E-013  0.5930190E+02  0.7816164E-02  0.1266605E+00
        -11   -1    0    0    0    0  0.00000000000E+00  0.00000000000E+00  0.45593999997E+02  0.45594000000E+02  0.51100000000E-03 0. -1.
         11   -1    0    0    0    0 -0.00000000000E+00 -0.00000000000E+00 -0.45593999997E+02  0.45594000000E+02  0.51100000000E-03 0.  1.
    9900012    2    1    2    0    0  0.21676913507E+02 -0.50375692182E+01 -0.22835449202E+02  0.59301899218E+02  0.49999918277E+02 0.  0.
         12    1    1    2    0    0 -0.21676913507E+02  0.50375692182E+01  0.22835449202E+02  0.31886100782E+02  0.00000000000E+00 0. -1.
         11    1    3    3    0    0 -0.68920262594E+01 -0.30347826524E+01 -0.31514816891E+01  0.81634409906E+01  0.51100000000E-03 0. -1.
        -11    1    3    3    0    0  0.15713175612E+02  0.17303018113E+02 -0.57123073027E+01  0.24060938855E+02  0.51100000000E-03 0.  1.
         12    1    3    3    0    0  0.12855764155E+02 -0.19305804679E+02 -0.13971660211E+02  0.27077519372E+02  0.00000000000E+00 0. -1.
</event>
<event>
 7    1  0.3449603E-013  0.5930195E+02  0.7816164E-02  0.1266605E+00
        -11   -1    0    0    0    0  0.00000000000E+00  0.00000000000E+00  0.45593999997E+02  0.45594000000E+02  0.51100000000E-03 0. -1.
         11   -1    0    0    0    0 -0.00000000000E+00 -0.00000000000E+00 -0.45593999997E+02  0.45594000000E+02  0.51100000000E-03 0.  1.
    9900012    2    1    2    0    0  0.23042673051E+01 -0.23424226054E+02 -0.21510833231E+02  0.59301953517E+02  0.50000017306E+02 0.  0.
         12    1    1    2    0    0 -0.23042673051E+01  0.23424226054E+02  0.21510833231E+02  0.31886046483E+02  0.00000000000E+00 0. -1.
         11    1    3    3    0    0 -0.52963917401E+00 -0.59347334645E+01  0.45744900158E+01  0.75118265498E+01  0.51100000000E-03 0. -1.
        -11    1    3    3    0    0 -0.17599501882E+02 -0.12692914459E+02 -0.54866988043E+01  0.22382055491E+02  0.51100000000E-03 0.  1.
        -12    1    3    3    0    0  0.20433408361E+02 -0.47965781305E+01 -0.20598624442E+02  0.29408071476E+02  0.00000000000E+00 0.  1.
</event>
<event>
 7    1  0.3449603E-013  0.5930197E+02  0.7816164E-02  0.1266605E+00
        -11   -1    0    0    0    0  0.00000000000E+00  0.00000000000E+00  0.45593999997E+02  0.45594000000E+02  0.51100000000E-03 0. -1.
         11   -1    0    0    0    0 -0.00000000000E+00 -0.00000000000E+00 -0.45593999997E+02  0.45594000000E+02  0.51100000000E-03 0.  1.
    9900012    2    1    2    0    0  0.51485585229E+01 -0.12712668234E+02 -0.28785401794E+02  0.59301969439E+02  0.50000046344E+02 0.  0.
         12    1    1    2    0    0 -0.51485585229E+01  0.12712668234E+02  0.28785401794E+02  0.31886030561E+02  0.00000000000E+00 0. -1.
         11    1    3    3    0    0 -0.77527917375E+01  0.81552232204E+01  0.32327417095E+01  0.11707436300E+02  0.51100000000E-03 0. -1.
        -11    1    3    3    0    0  0.15045095017E+02 -0.96282890236E+00 -0.11835970902E+02  0.19166954140E+02  0.51100000000E-03 0.  1.
        -12    1    3    3    0    0 -0.21437447566E+01 -0.19905062552E+02 -0.20182172602E+02  0.28427578999E+02  0.00000000000E+00 0.  1.
</event>
<event>
 7    1  0.3449603E-013  0.5930194E+02  0.7816164E-02  0.1266605E+00
        -11   -1    0    0    0    0  0.00000000000E+00  0.00000000000E+00  0.45593999997E+02  0.45594000000E+02  0.51100000000E-03 0.  1.
         11   -1    0    0    0    0 -0.00000000000E+00 -0.00000000000E+00 -0.45593999997E+02  0.45594000000E+02  0.51100000000E-03 0. -1.
    9900012    2    1    2    0    0  0.20801528756E+02 -0.22579444984E+02 -0.86131163182E+01  0.59301941807E+02  0.49999995950E+02 0.  0.
         12    1    1    2    0    0 -0.20801528756E+02  0.22579444984E+02  0.86131163182E+01  0.31886058193E+02  0.00000000000E+00 0. -1.
         11    1    3    3    0    0  0.16508168077E+02 -0.86632692467E+01  0.97920627971E+01  0.21058403106E+02  0.51100000000E-03 0. -1.
        -11    1    3    3    0    0 -0.43572521136E-01 -0.63966713109E+01  0.81183226233E+01  0.10335688893E+02  0.51100000000E-03 0.  1.
         12    1    3    3    0    0  0.43369332000E+01 -0.75195044267E+01 -0.26523501739E+02  0.27907849808E+02  0.00000000000E+00 0. -1.
</event>
<event>
 7    1  0.3449603E-013  0.5930192E+02  0.7816164E-02  0.1266605E+00
        -11   -1    0    0    0    0  0.00000000000E+00  0.00000000000E+00  0.45593999997E+02  0.45594000000E+02  0.51100000000E-03 0.  1.
         11   -1    0    0    0    0 -0.00000000000E+00 -0.00000000000E+00 -0.45593999997E+02  0.45594000000E+02  0.51100000000E-03 0. -1.
    9900012    2    1    2    0    0 -0.29326373881E+02  0.85649772194E+00 -0.12488088560E+02  0.59301919193E+02  0.49999954708E+02 0.  0.
         12    1    1    2    0    0  0.29326373881E+02 -0.85649772194E+00  0.12488088560E+02  0.31886080807E+02  0.00000000000E+00 0. -1.
         11    1    3    3    0    0 -0.49581961363E+01  0.87713015558E+01  0.15144219374E+02  0.18189744930E+02  0.51100000000E-03 0. -1.
        -11    1    3    3    0    0 -0.91882412343E+01 -0.35335827856E+01 -0.67673650583E+00  0.98675202985E+01  0.51100000000E-03 0.  1.
         12    1    3    3    0    0 -0.15179936510E+02 -0.43812210483E+01 -0.26955571428E+02  0.31244653964E+02  0.00000000000E+00 0. -1.
</event>
<event>
 7    1  0.3449603E-013  0.5930194E+02  0.7816164E-02  0.1266605E+00
        -11   -1    0    0    0    0  0.00000000000E+00  0.00000000000E+00  0.45593999997E+02  0.45594000000E+02  0.51100000000E-03 0.  1.
         11   -1    0    0    0    0 -0.00000000000E+00 -0.00000000000E+00 -0.45593999997E+02  0.45594000000E+02  0.51100000000E-03 0. -1.
    9900012    2    1    2    0    0 -0.28091470596E+02  0.59905472365E+01  0.13845703818E+02  0.59301938928E+02  0.49999990700E+02 0.  0.
         12    1    1    2    0    0  0.28091470596E+02 -0.59905472365E+01 -0.13845703818E+02  0.31886061072E+02  0.00000000000E+00 0. -1.
         11    1    3    3    0    0  0.47855011069E+01  0.96959068021E+01  0.27489845071E+01  0.11156547210E+02  0.51100000000E-03 0. -1.
        -11    1    3    3    0    0 -0.17016664730E+02  0.70473228907E+01 -0.88948912025E+01  0.20453623841E+02  0.51100000000E-03 0.  1.
         12    1    3    3    0    0 -0.15860306974E+02 -0.10752682456E+02  0.19991610513E+02  0.27691767878E+02  0.00000000000E+00 0. -1.
</event>
<event>
 7    1  0.3449603E-013  0.5930193E+02  0.7816164E-02  0.1266605E+00
        -11   -1    0    0    0    0  0.00000000000E+00  0.00000000000E+00  0.45593999997E+02  0.45594000000E+02  0.51100000000E-03 0.  1.
         11   -1    0    0    0    0 -0.00000000000E+00 -0.00000000000E+00 -0.45593999997E+02  0.45594000000E+02  0.51100000000E-03 0. -1.
    9900012    2    1    2    0    0 -0.21445640604E+02  0.23596629825E+02  0.68798476730E-01  0.59301934498E+02  0.49999982619E+02 0.  0.
         12    1    1    2    0    0  0.21445640604E+02 -0.23596629825E+02 -0.68798476730E-01  0.31886065502E+02  0.00000000000E+00 0. -1.
         11    1    3    3    0    0 -0.11171159564E+02 -0.18061209446E+01  0.65434648831E+01  0.13071871014E+02  0.51100000000E-03 0. -1.
        -11    1    3    3    0    0 -0.14747851543E+02  0.76536540018E+01  0.11788790689E+02  0.20372852792E+02  0.51100000000E-03 0.  1.
         12    1    3    3    0    0  0.44733705027E+01  0.17749096768E+02 -0.18263457095E+02  0.25857210692E+02  0.00000000000E+00 0. -1.
</event>
<event>
 7    1  0.3449603E-013  0.5930200E+02  0.7816164E-02  0.1266605E+00
        -11   -1    0    0    0    0  0.00000000000E+00  0.00000000000E+00  0.45593999997E+02  0.45594000000E+02  0.51100000000E-03 0.  1.
         11   -1    0    0    0    0 -0.00000000000E+00 -0.00000000000E+00 -0.45593999997E+02  0.45594000000E+02  0.51100000000E-03 0. -1.
    9900012    2    1    2    0    0 -0.59339905310E+01  0.23993914567E+02  0.20144399540E+02  0.59301999738E+02  0.50000101603E+02 0.  0.
         12    1    1    2    0    0  0.59339905310E+01 -0.23993914567E+02 -0.20144399540E+02  0.31886000262E+02  0.00000000000E+00 0. -1.
         11    1    3    3    0    0 -0.24796055704E+01 -0.32025135098E+01  0.11581432065E+02  0.12269234105E+02  0.51100000000E-03 0. -1.
        -11    1    3    3    0    0 -0.18276214100E+02  0.10543658420E+02  0.12307885747E+02  0.24426886550E+02  0.51100000000E-03 0.  1.
        -12    1    3    3    0    0  0.14821829139E+02  0.16652769657E+02 -0.37449182726E+01  0.22605879084E+02  0.00000000000E+00 0.  1.
</event>
<event>
 7    1  0.3449603E-013  0.5930196E+02  0.7816164E-02  0.1266605E+00
        -11   -1    0    0    0    0  0.00000000000E+00  0.00000000000E+00  0.45593999997E+02  0.45594000000E+02  0.51100000000E-03 0.  1.
         11   -1    0    0    0    0 -0.00000000000E+00 -0.00000000000E+00 -0.45593999997E+02  0.45594000000E+02  0.51100000000E-03 0. -1.
    9900012    2    1    2    0    0  0.23746447237E+02 -0.19794312008E+02  0.78109736472E+01  0.59301955191E+02  0.50000020359E+02 0.  0.
         12    1    1    2    0    0 -0.23746447237E+02  0.19794312008E+02 -0.78109736472E+01  0.31886044809E+02  0.00000000000E+00 0. -1.
         11    1    3    3    0    0 -0.10461705638E+01  0.73437841408E+01 -0.11197489511E+01  0.75019648313E+01  0.51100000000E-03 0. -1.
        -11    1    3    3    0    0 -0.30647478072E+01 -0.20181566322E+02 -0.31401276922E+01  0.20653055477E+02  0.51100000000E-03 0.  1.
        -12    1    3    3    0    0  0.27857365608E+02 -0.69565298262E+01  0.12070850291E+02  0.31146934883E+02  0.00000000000E+00 0.  1.
</event>
<event>
 7    1  0.3449603E-013  0.5930194E+02  0.7816164E-02  0.1266605E+00
        -11   -1    0    0    0    0  0.00000000000E+00  0.00000000000E+00  0.45593999997E+02  0.45594000000E+02  0.51100000000E-03 0.  1.
         11   -1    0    0    0    0 -0.00000000000E+00 -0.00000000000E+00 -0.45593999997E+02  0.45594000000E+02  0.51100000000E-03 0. -1.
    9900012    2    1    2    0    0 -0.66450077170E+01  0.12176591299E+02  0.28710543810E+02  0.59301939894E+02  0.49999992461E+02 0.  0.
         12    1    1    2    0    0  0.66450077170E+01 -0.12176591299E+02 -0.28710543810E+02  0.31886060106E+02  0.00000000000E+00 0. -1.
         11    1    3    3    0    0 -0.95984335239E+01  0.40345281911E+01  0.11766873352E+02  0.15711990727E+02  0.51100000000E-03 0. -1.
        -11    1    3    3    0    0 -0.15580834546E+02 -0.14309005408E+01  0.16479793535E+02  0.22724292656E+02  0.51100000000E-03 0.  1.
         12    1    3    3    0    0  0.18534260353E+02  0.95729636486E+01  0.46387692272E+00  0.20865656512E+02  0.00000000000E+00 0. -1.
</event>
<event>
 7    1  0.3449603E-013  0.5930187E+02  0.7816164E-02  0.1266605E+00
        -11   -1    0    0    0    0  0.00000000000E+00  0.00000000000E+00  0.45593999997E+02  0.45594000000E+02  0.51100000000E-03 0. -1.
         11   -1    0    0    0    0 -0.00000000000E+00 -0.00000000000E+00 -0.45593999997E+02  0.45594000000E+02  0.51100000000E-03 0.  1.
    9900012    2    1    2    0    0 -0.15952186950E+02 -0.14641179093E+02 -0.23407028952E+02  0.59301868248E+02  0.49999861796E+02 0.  0.
         12    1    1    2    0    0  0.15952186950E+02  0.14641179093E+02  0.23407028952E+02  0.31886131752E+02  0.00000000000E+00 0. -1.
         11    1    3    3    0    0  0.92955022140E+00 -0.35543508675E+01 -0.18950449550E+01  0.41338443785E+01  0.51100000000E-03 0. -1.
        -11    1    3    3    0    0 -0.64333220549E+01 -0.27442370533E+02 -0.29975330263E+01  0.28345308918E+02  0.51100000000E-03 0.  1.
         12    1    3    3    0    0 -0.10448415117E+02  0.16355542308E+02 -0.18514450971E+02  0.26822714952E+02  0.00000000000E+00 0. -1.
</event>
<event>
 7    1  0.3449603E-013  0.5930190E+02  0.7816164E-02  0.1266605E+00
        -11   -1    0    0    0    0  0.00000000000E+00  0.00000000000E+00  0.45593999997E+02  0.45594000000E+02  0.51100000000E-03 0.  1.
         11   -1    0    0    0    0 -0.00000000000E+00 -0.00000000000E+00 -0.45593999997E+02  0.45594000000E+02  0.51100000000E-03 0. -1.
    9900012    2    1    2    0    0  0.15880413639E+02 -0.58322174426E+01  0.27028155467E+02  0.59301898238E+02  0.49999916490E+02 0.  0.
         12    1    1    2    0    0 -0.15880413639E+02  0.58322174426E+01 -0.27028155467E+02  0.31886101762E+02  0.00000000000E+00 0. -1.
         11    1    3    3    0    0 -0.58623500584E+01  0.14586376096E+02  0.25249687766E+00  0.15722381205E+02  0.51100000000E-03 0. -1.
        -11    1    3    3    0    0  0.11731915068E+02 -0.16624770428E+01  0.42069596388E+01  0.12573789037E+02  0.51100000000E-03 0.  1.
        -12    1    3    3    0    0  0.10010848629E+02 -0.18756116495E+02  0.22568698950E+02  0.31005727996E+02  0.00000000000E+00 0.  1.
</event>
<event>
 7    1  0.3449603E-013  0.5930194E+02  0.7816164E-02  0.1266605E+00
        -11   -1    0    0    0    0  0.00000000000E+00  0.00000000000E+00  0.45593999997E+02  0.45594000000E+02  0.51100000000E-03 0.  1.
         11   -1    0    0    0    0 -0.00000000000E+00 -0.00000000000E+00 -0.45593999997E+02  0.45594000000E+02  0.51100000000E-03 0. -1.
    9900012    2    1    2    0    0 -0.12784524526E+02 -0.17858759646E+02  0.23115824784E+02  0.59301941622E+02  0.49999995612E+02 0.  0.
         12    1    1    2    0    0  0.12784524526E+02  0.17858759646E+02 -0.23115824784E+02  0.31886058378E+02  0.00000000000E+00 0. -1.
         11    1    3    3    0    0  0.12411192537E+02  0.36368085655E+01 -0.32832039638E+00  0.12937228114E+02  0.51100000000E-03 0. -1.
        -11    1    3    3    0    0 -0.49639336855E+01 -0.19106328307E+01  0.16537294323E+02  0.17371622239E+02  0.51100000000E-03 0.  1.
        -12    1    3    3    0    0 -0.20231783378E+02 -0.19584935381E+02  0.69068508579E+01  0.28993091268E+02  0.00000000000E+00 0.  1.
</event>
<event>
 7    1  0.3449603E-013  0.5930194E+02  0.7816164E-02  0.1266605E+00
        -11   -1    0    0    0    0  0.00000000000E+00  0.00000000000E+00  0.45593999997E+02  0.45594000000E+02  0.51100000000E-03 0.  1.
         11   -1    0    0    0    0 -0.00000000000E+00 -0.00000000000E+00 -0.45593999997E+02  0.45594000000E+02  0.51100000000E-03 0. -1.
    9900012    2    1    2    0    0 -0.25679118245E+02  0.18680614683E+02 -0.28876554036E+01  0.59301936704E+02  0.49999986644E+02 0.  0.
         12    1    1    2    0    0  0.25679118245E+02 -0.18680614683E+02  0.28876554036E+01  0.31886063296E+02  0.00000000000E+00 0. -1.
         11    1    3    3    0    0  0.66973083247E+01  0.94530263251E+01  0.92662767158E+01  0.14835010278E+02  0.51100000000E-03 0. -1.
        -11    1    3    3    0    0 -0.21031567560E+01  0.12176217380E+02 -0.36225455882E+01  0.12876582420E+02  0.51100000000E-03 0.  1.
        -12    1    3    3    0    0 -0.30273269813E+02 -0.29486290219E+01 -0.85313865312E+01  0.31590344006E+02  0.00000000000E+00 0.  1.
</event>
<event>
 7    1  0.3449603E-013  0.5930196E+02  0.7816164E-02  0.1266605E+00
        -11   -1    0    0    0    0  0.00000000000E+00  0.00000000000E+00  0.45593999997E+02  0.45594000000E+02  0.51100000000E-03 0.  1.
         11   -1    0    0    0    0 -0.00000000000E+00 -0.00000000000E+00 -0.45593999997E+02  0.45594000000E+02  0.51100000000E-03 0. -1.
    9900012    2    1    2    0    0 -0.24310202437E+02 -0.14117294229E+02  0.15047786961E+02  0.59301955540E+02  0.50000020996E+02 0.  0.
         12    1    1    2    0    0  0.24310202437E+02  0.14117294229E+02 -0.15047786961E+02  0.31886044460E+02  0.00000000000E+00 0. -1.
         11    1    3    3    0    0  0.35705992302E+00  0.13988938922E+01 -0.33934165915E+01  0.36877733573E+01  0.51100000000E-03 0. -1.
        -11    1    3    3    0    0 -0.65120877337E+01  0.77750479475E+01 -0.10264890782E+02  0.14430060300E+02  0.51100000000E-03 0.  1.
        -12    1    3    3    0    0 -0.18155174627E+02 -0.23291236069E+02  0.28706094334E+02  0.41184121883E+02  0.00000000000E+00 0.  1.
</event>
<event>
 7    1  0.3449603E-013  0.5930192E+02  0.7816164E-02  0.1266605E+00
        -11   -1    0    0    0    0  0.00000000000E+00  0.00000000000E+00  0.45593999997E+02  0.45594000000E+02  0.51100000000E-03 0.  1.
         11   -1    0    0    0    0 -0.00000000000E+00 -0.00000000000E+00 -0.45593999997E+02  0.45594000000E+02  0.51100000000E-03 0. -1.
    9900012    2    1    2    0    0 -0.17599098049E+02 -0.24370624209E+02 -0.10633271835E+02  0.59301920805E+02  0.49999957648E+02 0.  0.
         12    1    1    2    0    0  0.17599098049E+02  0.24370624209E+02  0.10633271835E+02  0.31886079195E+02  0.00000000000E+00 0. -1.
         11    1    3    3    0    0 -0.66515559607E+01  0.93497869727E+01 -0.14433107582E+02  0.18438446460E+02  0.51100000000E-03 0. -1.
        -11    1    3    3    0    0  0.56232784192E+01 -0.10919912654E+02 -0.78116450930E+00  0.12307557467E+02  0.51100000000E-03 0.  1.
        -12    1    3    3    0    0 -0.16570820508E+02 -0.22800498528E+02  0.45810002562E+01  0.28555916879E+02  0.00000000000E+00 0.  1.
</event>
<event>
 7    1  0.3449603E-013  0.5930194E+02  0.7816164E-02  0.1266605E+00
        -11   -1    0    0    0    0  0.00000000000E+00  0.00000000000E+00  0.45593999997E+02  0.45594000000E+02  0.51100000000E-03 0.  1.
         11   -1    0    0    0    0 -0.00000000000E+00 -0.00000000000E+00 -0.45593999997E+02  0.45594000000E+02  0.51100000000E-03 0. -1.
    9900012    2    1    2    0    0  0.27262896535E+02 -0.13657467585E+02  0.93235536157E+01  0.59301943481E+02  0.49999999003E+02 0.  0.
         12    1    1    2    0    0 -0.27262896535E+02  0.13657467585E+02 -0.93235536157E+01  0.31886056519E+02  0.00000000000E+00 0. -1.
         11    1    3    3    0    0  0.25006453273E+01 -0.81671070266E+01 -0.79035047354E+01  0.11637020736E+02  0.51100000000E-03 0. -1.
        -11    1    3    3    0    0  0.18268920132E+02 -0.18937632758E+02  0.20811338763E+01  0.26395425660E+02  0.51100000000E-03 0.  1.
        -12    1    3    3    0    0  0.64933310754E+01  0.13447272200E+02  0.15145924475E+02  0.21269497086E+02  0.00000000000E+00 0.  1.
</event>
<event>
 7    1  0.3449603E-013  0.5930195E+02  0.7816164E-02  0.1266605E+00
        -11   -1    0    0    0    0  0.00000000000E+00  0.00000000000E+00  0.45593999997E+02  0.45594000000E+02  0.51100000000E-03 0.  1.
         11   -1    0    0    0    0 -0.00000000000E+00 -0.00000000000E+00 -0.45593999997E+02  0.45594000000E+02  0.51100000000E-03 0. -1.
    9900012    2    1    2    0    0  0.18545569377E+02  0.18706321352E+02  0.17968183260E+02  0.59301949575E+02  0.50000010117E+02 0.  0.
         12    1    1    2    0    0 -0.18545569377E+02 -0.18706321352E+02 -0.17968183260E+02  0.31886050425E+02  0.00000000000E+00 0. -1.
         11    1    3    3    0    0 -0.92045607576E+01 -0.88012485491E+01 -0.13746602809E+01  0.12809200050E+02  0.51100000000E-03 0. -1.
        -11    1    3    3    0    0 -0.21605385556E+01  0.22352366469E+01  0.11450157459E+01  0.33128946614E+01  0.51100000000E-03 0.  1.
        -12    1    3    3    0    0  0.29910668691E+02  0.25272333254E+02  0.18197827795E+02  0.43179854864E+02  0.00000000000E+00 0.  1.
</event>
<event>
 7    1  0.3449603E-013  0.5930193E+02  0.7816164E-02  0.1266605E+00
        -11   -1    0    0    0    0  0.00000000000E+00  0.00000000000E+00  0.45593999997E+02  0.45594000000E+02  0.51100000000E-03 0.  1.
         11   -1    0    0    0    0 -0.00000000000E+00 -0.00000000000E+00 -0.45593999997E+02  0.45594000000E+02  0.51100000000E-03 0. -1.
    9900012    2    1    2    0    0  0.25624830827E+01  0.25580345760E+02  0.18862692648E+02  0.59301928077E+02  0.49999970909E+02 0.  0.
         12    1    1    2    0    0 -0.25624830827E+01 -0.25580345760E+02 -0.18862692648E+02  0.31886071923E+02  0.00000000000E+00 0. -1.
         11    1    3    3    0    0  0.64319571519E+01 -0.11619993529E+02  0.66367541984E+01  0.14847249879E+02  0.51100000000E-03 0. -1.
        -11    1    3    3    0    0  0.12693527377E+01 -0.11456823589E+00  0.61743968639E+01  0.63045665313E+01  0.51100000000E-03 0.  1.
         12    1    3    3    0    0 -0.51388268069E+01  0.37314907525E+02  0.60515415857E+01  0.38150111666E+02  0.00000000000E+00 0. -1.
</event>
<event>
 7    1  0.3757894E-013  0.5930196E+02  0.7816164E-02  0.1266605E+00
        -11   -1    0    0    0    0  0.00000000000E+00  0.00000000000E+00  0.45593999997E+02  0.45594000000E+02  0.51100000000E-03 0. -1.
         11   -1    0    0    0    0 -0.00000000000E+00 -0.00000000000E+00 -0.45593999997E+02  0.45594000000E+02  0.51100000000E-03 0.  1.
    9900012    2    1    2    0    0  0.25823083537E+02  0.29367253515E+01 -0.18473325432E+02  0.59301956789E+02  0.50000023274E+02 0.  0.
         12    1    1    2    0    0 -0.25823083537E+02 -0.29367253515E+01  0.18473325432E+02  0.31886043211E+02  0.00000000000E+00 0. -1.
         11    1    3    3    0    0  0.12218904875E+02  0.34693051309E+01  0.11592401971E+01  0.12754667872E+02  0.51100000000E-03 0. -1.
        -11    1    3    3    0    0  0.19720179615E+02  0.15316897615E+02 -0.14125774323E+02  0.28688505312E+02  0.51100000000E-03 0.  1.
         12    1    3    3    0    0 -0.61160009530E+01 -0.15849477394E+02 -0.55067913062E+01  0.17858783604E+02  0.00000000000E+00 0. -1.
</event>
<event>
 7    1  0.3449603E-013  0.5930195E+02  0.7816164E-02  0.1266605E+00
        -11   -1    0    0    0    0  0.00000000000E+00  0.00000000000E+00  0.45593999997E+02  0.45594000000E+02  0.51100000000E-03 0.  1.
         11   -1    0    0    0    0 -0.00000000000E+00 -0.00000000000E+00 -0.45593999997E+02  0.45594000000E+02  0.51100000000E-03 0. -1.
    9900012    2    1    2    0    0  0.25524498707E+02 -0.15225130034E+02  0.11550566247E+02  0.59301949768E+02  0.50000010468E+02 0.  0.
         12    1    1    2    0    0 -0.25524498707E+02  0.15225130034E+02 -0.11550566247E+02  0.31886050232E+02  0.00000000000E+00 0. -1.
         11    1    3    3    0    0  0.55714980096E+01 -0.13379248737E+02 -0.11758591107E+02  0.18663074557E+02  0.51100000000E-03 0.  1.
        -11    1    3    3    0    0  0.91369524993E+01 -0.49941383793E+01 -0.39554817488E+01  0.11138723233E+02  0.51100000000E-03 0. -1.
        -12    1    3    3    0    0  0.10816048199E+02  0.31482570826E+01  0.27264639103E+02  0.29500151978E+02  0.00000000000E+00 0.  1.
</event>
<event>
 7    1  0.3449603E-013  0.5930195E+02  0.7816164E-02  0.1266605E+00
        -11   -1    0    0    0    0  0.00000000000E+00  0.00000000000E+00  0.45593999997E+02  0.45594000000E+02  0.51100000000E-03 0. -1.
         11   -1    0    0    0    0 -0.00000000000E+00 -0.00000000000E+00 -0.45593999997E+02  0.45594000000E+02  0.51100000000E-03 0.  1.
    9900012    2    1    2    0    0  0.24484042798E+02 -0.11611969583E+02 -0.16805186523E+02  0.59301945315E+02  0.50000002347E+02 0.  0.
         12    1    1    2    0    0 -0.24484042798E+02  0.11611969583E+02  0.16805186523E+02  0.31886054685E+02  0.00000000000E+00 0. -1.
         11    1    3    3    0    0 -0.19534957976E-01  0.96416054891E+01 -0.41728772784E+01  0.10505895634E+02  0.51100000000E-03 0. -1.
        -11    1    3    3    0    0 -0.41490074900E+01 -0.13785456970E+02  0.38575849831E+01  0.14904162143E+02  0.51100000000E-03 0.  1.
        -12    1    3    3    0    0  0.28652585245E+02 -0.74681181019E+01 -0.16489894228E+02  0.33891887538E+02  0.00000000000E+00 0.  1.
</event>
<event>
 7    1  0.3449603E-013  0.5930193E+02  0.7816164E-02  0.1266605E+00
        -11   -1    0    0    0    0  0.00000000000E+00  0.00000000000E+00  0.45593999997E+02  0.45594000000E+02  0.51100000000E-03 0. -1.
         11   -1    0    0    0    0 -0.00000000000E+00 -0.00000000000E+00 -0.45593999997E+02  0.45594000000E+02  0.51100000000E-03 0.  1.
    9900012    2    1    2    0    0 -0.12156646185E+02  0.13063195404E+02 -0.26425184329E+02  0.59301929570E+02  0.49999973632E+02 0.  0.
         12    1    1    2    0    0  0.12156646185E+02 -0.13063195404E+02  0.26425184329E+02  0.31886070430E+02  0.00000000000E+00 0. -1.
         11    1    3    3    0    0  0.13785339277E+02  0.98364821583E+01 -0.10967929867E+02  0.20176408156E+02  0.51100000000E-03 0. -1.
        -11    1    3    3    0    0  0.27298091442E+01  0.59728783850E+01 -0.29096091996E+00  0.65735677287E+01  0.51100000000E-03 0.  1.
        -12    1    3    3    0    0 -0.28671794607E+02 -0.27461651393E+01 -0.15166293542E+02  0.32551953685E+02  0.00000000000E+00 0.  1.
</event>
<event>
 7    1  0.3449603E-013  0.5930190E+02  0.7816164E-02  0.1266605E+00
        -11   -1    0    0    0    0  0.00000000000E+00  0.00000000000E+00  0.45593999997E+02  0.45594000000E+02  0.51100000000E-03 0. -1.
         11   -1    0    0    0    0 -0.00000000000E+00 -0.00000000000E+00 -0.45593999997E+02  0.45594000000E+02  0.51100000000E-03 0.  1.
    9900012    2    1    2    0    0 -0.29752108842E+02  0.38242760519E+00  0.11462523642E+02  0.59301895195E+02  0.49999910940E+02 0.  0.
         12    1    1    2    0    0  0.29752108842E+02 -0.38242760519E+00 -0.11462523642E+02  0.31886104805E+02  0.00000000000E+00 0. -1.
         11    1    3    3    0    0  0.60158611761E+01  0.43060665628E+01  0.69813537098E+01  0.10172123417E+02  0.51100000000E-03 0. -1.
        -11    1    3    3    0    0  0.32819169480E+01 -0.45803068312E+01 -0.64586319141E+01  0.85711210459E+01  0.51100000000E-03 0.  1.
         12    1    3    3    0    0 -0.39049886966E+02  0.65666787358E+00  0.10939801846E+02  0.40558650732E+02  0.00000000000E+00 0. -1.
</event>
<event>
 7    1  0.3449603E-013  0.5930193E+02  0.7816164E-02  0.1266605E+00
        -11   -1    0    0    0    0  0.00000000000E+00  0.00000000000E+00  0.45593999997E+02  0.45594000000E+02  0.51100000000E-03 0.  1.
         11   -1    0    0    0    0 -0.00000000000E+00 -0.00000000000E+00 -0.45593999997E+02  0.45594000000E+02  0.51100000000E-03 0. -1.
    9900012    2    1    2    0    0 -0.14940392623E+02 -0.10127404296E+02  0.26285766644E+02  0.59301934429E+02  0.49999982495E+02 0.  0.
         12    1    1    2    0    0  0.14940392623E+02  0.10127404296E+02 -0.26285766644E+02  0.31886065571E+02  0.00000000000E+00 0. -1.
         11    1    3    3    0    0 -0.15642265700E+02  0.60073845933E+01  0.43625537830E+01  0.17314763113E+02  0.51100000000E-03 0. -1.
        -11    1    3    3    0    0 -0.88395288594E+01  0.66213008412E+01  0.54292941430E+01  0.12306751417E+02  0.51100000000E-03 0.  1.
         12    1    3    3    0    0  0.95414019362E+01 -0.22756089731E+02  0.16493918718E+02  0.29680419900E+02  0.00000000000E+00 0. -1.
</event>
<event>
 7    1  0.3449603E-013  0.5930195E+02  0.7816164E-02  0.1266605E+00
        -11   -1    0    0    0    0  0.00000000000E+00  0.00000000000E+00  0.45593999997E+02  0.45594000000E+02  0.51100000000E-03 0. -1.
         11   -1    0    0    0    0 -0.00000000000E+00 -0.00000000000E+00 -0.45593999997E+02  0.45594000000E+02  0.51100000000E-03 0.  1.
    9900012    2    1    2    0    0 -0.19054585707E+01  0.59001451162E+01 -0.31277427438E+02  0.59301953649E+02  0.50000017547E+02 0.  0.
         12    1    1    2    0    0  0.19054585707E+01 -0.59001451162E+01  0.31277427438E+02  0.31886046351E+02  0.00000000000E+00 0. -1.
         11    1    3    3    0    0  0.59397573125E+01  0.15867021623E+02 -0.13236853367E+01  0.16993976440E+02  0.51100000000E-03 0. -1.
        -11    1    3    3    0    0  0.10363673931E+01 -0.58431955965E+01  0.38769886310E+01  0.70885847148E+01  0.51100000000E-03 0.  1.
        -12    1    3    3    0    0 -0.88815832763E+01 -0.41236809103E+01 -0.33830730733E+02  0.35219392494E+02  0.00000000000E+00 0.  1.
</event>
<event>
 7    1  0.3449603E-013  0.5930193E+02  0.7816164E-02  0.1266605E+00
        -11   -1    0    0    0    0  0.00000000000E+00  0.00000000000E+00  0.45593999997E+02  0.45594000000E+02  0.51100000000E-03 0. -1.
         11   -1    0    0    0    0 -0.00000000000E+00 -0.00000000000E+00 -0.45593999997E+02  0.45594000000E+02  0.51100000000E-03 0.  1.
    9900012    2    1    2    0    0 -0.13219579840E+02  0.24868640064E+02 -0.14950414147E+02  0.59301930425E+02  0.49999975192E+02 0.  0.
         12    1    1    2    0    0  0.13219579840E+02 -0.24868640064E+02  0.14950414147E+02  0.31886069575E+02  0.00000000000E+00 0. -1.
         11    1    3    3    0    0 -0.10259873177E+01  0.45107020987E-01  0.90687274891E+01  0.91266917967E+01  0.51100000000E-03 0. -1.
        -11    1    3    3    0    0 -0.10378238908E+02  0.25901554139E+01  0.63911363121E+01  0.12460472363E+02  0.51100000000E-03 0.  1.
        -12    1    3    3    0    0 -0.18153536141E+01  0.22233377629E+02 -0.30410277948E+02  0.37714766265E+02  0.00000000000E+00 0.  1.
</event>
<event>
 7    1  0.3449603E-013  0.5930196E+02  0.7816164E-02  0.1266605E+00
        -11   -1    0    0    0    0  0.00000000000E+00  0.00000000000E+00  0.45593999997E+02  0.45594000000E+02  0.51100000000E-03 0. -1.
         11   -1    0    0    0    0 -0.00000000000E+00 -0.00000000000E+00 -0.45593999997E+02  0.45594000000E+02  0.51100000000E-03 0.  1.
    9900012    2    1    2    0    0  0.28179979140E+02 -0.31393797892E+01 -0.14586045175E+02  0.59301958483E+02  0.50000026362E+02 0.  0.
         12    1    1    2    0    0 -0.28179979140E+02  0.31393797892E+01  0.14586045175E+02  0.31886041517E+02  0.00000000000E+00 0. -1.
         11    1    3    3    0    0 -0.98305204784E+01  0.45684591477E+01 -0.11962238105E+02  0.16143267718E+02  0.51100000000E-03 0. -1.
        -11    1    3    3    0    0  0.10352556080E+02  0.19852131444E+01 -0.81632512722E+01  0.13332485148E+02  0.51100000000E-03 0.  1.
         12    1    3    3    0    0  0.27657943539E+02 -0.96930520813E+01  0.55394442028E+01  0.29826205617E+02  0.00000000000E+00 0. -1.
</event>
<event>
 7    1  0.3449603E-013  0.5930193E+02  0.7816164E-02  0.1266605E+00
        -11   -1    0    0    0    0  0.00000000000E+00  0.00000000000E+00  0.45593999997E+02  0.45594000000E+02  0.51100000000E-03 0.  1.
         11   -1    0    0    0    0 -0.00000000000E+00 -0.00000000000E+00 -0.45593999997E+02  0.45594000000E+02  0.51100000000E-03 0. -1.
    9900012    2    1    2    0    0  0.21039891775E+02  0.16913854524E+02 -0.16969553406E+02  0.59301933081E+02  0.49999980036E+02 0.  0.
         12    1    1    2    0    0 -0.21039891775E+02 -0.16913854524E+02  0.16969553406E+02  0.31886066919E+02  0.00000000000E+00 0. -1.
         11    1    3    3    0    0  0.53662684565E+01  0.14247151668E+02 -0.36283116268E+01  0.15650648974E+02  0.51100000000E-03 0. -1.
        -11    1    3    3    0    0  0.12984703519E+02  0.13476127897E+02  0.73875431911E+01  0.20119253048E+02  0.51100000000E-03 0.  1.
         12    1    3    3    0    0  0.26889198000E+01 -0.10809425041E+02 -0.20728784970E+02  0.23532031058E+02  0.00000000000E+00 0. -1.
</event>
<event>
 7    1  0.3449603E-013  0.5930191E+02  0.7816164E-02  0.1266605E+00
        -11   -1    0    0    0    0  0.00000000000E+00  0.00000000000E+00  0.45593999997E+02  0.45594000000E+02  0.51100000000E-03 0. -1.
         11   -1    0    0    0    0 -0.00000000000E+00 -0.00000000000E+00 -0.45593999997E+02  0.45594000000E+02  0.51100000000E-03 0.  1.
    9900012    2    1    2    0    0 -0.10100187488E+01  0.10229936771E+02 -0.30183624166E+02  0.59301907232E+02  0.49999932893E+02 0.  0.
         12    1    1    2    0    0  0.10100187488E+01 -0.10229936771E+02  0.30183624166E+02  0.31886092768E+02  0.00000000000E+00 0. -1.
         11    1    3    3    0    0 -0.15002209265E+01  0.17355987546E+02 -0.17203704247E+02  0.24483635486E+02  0.51100000000E-03 0. -1.
        -11    1    3    3    0    0 -0.15167797243E+02 -0.16018436845E+00 -0.62974704479E+01  0.16423941870E+02  0.51100000000E-03 0.  1.
         12    1    3    3    0    0  0.15657999420E+02 -0.69658664072E+01 -0.66824494716E+01  0.18394329876E+02  0.00000000000E+00 0. -1.
</event>
<event>
 7    1  0.3511917E-013  0.5930191E+02  0.7816164E-02  0.1266605E+00
        -11   -1    0    0    0    0  0.00000000000E+00  0.00000000000E+00  0.45593999997E+02  0.45594000000E+02  0.51100000000E-03 0.  1.
         11   -1    0    0    0    0 -0.00000000000E+00 -0.00000000000E+00 -0.45593999997E+02  0.45594000000E+02  0.51100000000E-03 0. -1.
    9900012    2    1    2    0    0  0.31766152702E+02  0.27580431063E+01  0.16645100297E+00  0.59301906398E+02  0.49999931373E+02 0.  0.
         12    1    1    2    0    0 -0.31766152702E+02 -0.27580431063E+01 -0.16645100297E+00  0.31886093602E+02  0.00000000000E+00 0. -1.
         11    1    3    3    0    0  0.50698027617E+01  0.99698031069E+01  0.21661065894E+01  0.11392624458E+02  0.51100000000E-03 0. -1.
        -11    1    3    3    0    0  0.28277323104E+02  0.68612868842E+01 -0.11024715172E+02  0.31116371969E+02  0.51100000000E-03 0.  1.
         12    1    3    3    0    0 -0.15809731641E+01 -0.14073046885E+02  0.90250595852E+01  0.16792909971E+02  0.00000000000E+00 0. -1.
</event>
<event>
 7    1  0.3449603E-013  0.5930195E+02  0.7816164E-02  0.1266605E+00
        -11   -1    0    0    0    0  0.00000000000E+00  0.00000000000E+00  0.45593999997E+02  0.45594000000E+02  0.51100000000E-03 0. -1.
         11   -1    0    0    0    0 -0.00000000000E+00 -0.00000000000E+00 -0.45593999997E+02  0.45594000000E+02  0.51100000000E-03 0.  1.
    9900012    2    1    2    0    0 -0.41634349443E+01 -0.29453957440E+02  0.11482618494E+02  0.59301947769E+02  0.50000006823E+02 0.  0.
         12    1    1    2    0    0  0.41634349443E+01  0.29453957440E+02 -0.11482618494E+02  0.31886052231E+02  0.00000000000E+00 0. -1.
         11    1    3    3    0    0  0.66965676276E+01 -0.17130706507E+02  0.12317724268E+02  0.22136654101E+02  0.51100000000E-03 0. -1.
        -11    1    3    3    0    0 -0.89022405975E+01 -0.15261181512E+02  0.13605488773E+02  0.22299391781E+02  0.51100000000E-03 0.  1.
         12    1    3    3    0    0 -0.19577619744E+01  0.29379305784E+01 -0.14440594547E+02  0.14865901886E+02  0.00000000000E+00 0. -1.
</event>
<event>
 7    1  0.3449603E-013  0.5930193E+02  0.7816164E-02  0.1266605E+00
        -11   -1    0    0    0    0  0.00000000000E+00  0.00000000000E+00  0.45593999997E+02  0.45594000000E+02  0.51100000000E-03 0.  1.
         11   -1    0    0    0    0 -0.00000000000E+00 -0.00000000000E+00 -0.45593999997E+02  0.45594000000E+02  0.51100000000E-03 0. -1.
    9900012    2    1    2    0    0  0.17865546782E+02 -0.42684141767E+01  0.26063850964E+02  0.59301930182E+02  0.49999974748E+02 0.  0.
         12    1    1    2    0    0 -0.17865546782E+02  0.42684141767E+01 -0.26063850964E+02  0.31886069818E+02  0.00000000000E+00 0. -1.
         11    1    3    3    0    0  0.14241300671E+02 -0.24610077320E+02  0.10420378179E+02  0.30282913204E+02  0.51100000000E-03 0.  1.
        -11    1    3    3    0    0  0.63286384124E+01  0.86040575115E+01  0.20842005003E+01  0.10882341743E+02  0.51100000000E-03 0. -1.
        -12    1    3    3    0    0 -0.27043923015E+01  0.11737605632E+02  0.13559272285E+02  0.18136675235E+02  0.00000000000E+00 0.  1.
</event>
<event>
 7    1  0.3449603E-013  0.5930194E+02  0.7816164E-02  0.1266605E+00
        -11   -1    0    0    0    0  0.00000000000E+00  0.00000000000E+00  0.45593999997E+02  0.45594000000E+02  0.51100000000E-03 0.  1.
         11   -1    0    0    0    0 -0.00000000000E+00 -0.00000000000E+00 -0.45593999997E+02  0.45594000000E+02  0.51100000000E-03 0. -1.
    9900012    2    1    2    0    0  0.27543211918E+02  0.41546018645E+01  0.15518745390E+02  0.59301941951E+02  0.49999996213E+02 0.  0.
         12    1    1    2    0    0 -0.27543211918E+02 -0.41546018645E+01 -0.15518745390E+02  0.31886058049E+02  0.00000000000E+00 0. -1.
         11    1    3    3    0    0 -0.70597459986E+00  0.69380995270E+00  0.17789831258E+01  0.20358176758E+01  0.51100000000E-03 0. -1.
        -11    1    3    3    0    0 -0.52881707521E+01  0.90240993828E+01 -0.11032328961E+02  0.15202348573E+02  0.51100000000E-03 0.  1.
         12    1    3    3    0    0  0.33537357270E+02 -0.55633074710E+01  0.24772091225E+02  0.42063775702E+02  0.00000000000E+00 0. -1.
</event>
<event>
 7    1  0.3449603E-013  0.5930198E+02  0.7816164E-02  0.1266605E+00
        -11   -1    0    0    0    0  0.00000000000E+00  0.00000000000E+00  0.45593999997E+02  0.45594000000E+02  0.51100000000E-03 0. -1.
         11   -1    0    0    0    0 -0.00000000000E+00 -0.00000000000E+00 -0.45593999997E+02  0.45594000000E+02  0.51100000000E-03 0.  1.
    9900012    2    1    2    0    0 -0.16295423899E+02  0.97744822338E+01 -0.25605403214E+02  0.59301983994E+02  0.50000072888E+02 0.  0.
         12    1    1    2    0    0  0.16295423899E+02 -0.97744822338E+01  0.25605403214E+02  0.31886016006E+02  0.00000000000E+00 0. -1.
         11    1    3    3    0    0 -0.17725484848E+01  0.17980064630E+01 -0.10730151551E+02  0.11023198626E+02  0.51100000000E-03 0. -1.
        -11    1    3    3    0    0 -0.17005756321E+02  0.55078700761E+01 -0.28813250836E+02  0.33907754347E+02  0.51100000000E-03 0.  1.
         12    1    3    3    0    0  0.24828809071E+01  0.24686056947E+01  0.13937999173E+02  0.14371031021E+02  0.00000000000E+00 0. -1.
</event>
<event>
 7    1  0.3449603E-013  0.5930195E+02  0.7816164E-02  0.1266605E+00
        -11   -1    0    0    0    0  0.00000000000E+00  0.00000000000E+00  0.45593999997E+02  0.45594000000E+02  0.51100000000E-03 0. -1.
         11   -1    0    0    0    0 -0.00000000000E+00 -0.00000000000E+00 -0.45593999997E+02  0.45594000000E+02  0.51100000000E-03 0.  1.
    9900012    2    1    2    0    0 -0.21686207815E+01 -0.30049894353E+02  0.10441310728E+02  0.59301952323E+02  0.50000015129E+02 0.  0.
         12    1    1    2    0    0  0.21686207815E+01  0.30049894353E+02 -0.10441310728E+02  0.31886047677E+02  0.00000000000E+00 0. -1.
         11    1    3    3    0    0 -0.16875793910E+02 -0.20435912472E+02  0.17416122362E+02  0.31713408159E+02  0.51100000000E-03 0. -1.
        -11    1    3    3    0    0 -0.87771552828E+00 -0.10882618653E+02 -0.14956899493E+01  0.11019930217E+02  0.51100000000E-03 0.  1.
        -12    1    3    3    0    0  0.15584888657E+02  0.12686367718E+01 -0.54791216846E+01  0.16568613948E+02  0.00000000000E+00 0.  1.
</event>
<event>
 7    1  0.3449603E-013  0.5930194E+02  0.7816164E-02  0.1266605E+00
        -11   -1    0    0    0    0  0.00000000000E+00  0.00000000000E+00  0.45593999997E+02  0.45594000000E+02  0.51100000000E-03 0. -1.
         11   -1    0    0    0    0 -0.00000000000E+00 -0.00000000000E+00 -0.45593999997E+02  0.45594000000E+02  0.51100000000E-03 0.  1.
    9900012    2    1    2    0    0  0.12208554609E+00  0.40076562508E+01 -0.31632966009E+02  0.59301941103E+02  0.49999994665E+02 0.  0.
         12    1    1    2    0    0 -0.12208554609E+00 -0.40076562508E+01  0.31632966009E+02  0.31886058897E+02  0.00000000000E+00 0. -1.
         11    1    3    3    0    0  0.11062938682E+02  0.22496049386E+02 -0.13806450828E+02  0.28619555115E+02  0.51100000000E-03 0. -1.
        -11    1    3    3    0    0 -0.64258022529E+01 -0.14496891765E+01 -0.84581963962E+01  0.10720709857E+02  0.51100000000E-03 0.  1.
        -12    1    3    3    0    0 -0.45150508829E+01 -0.17038703959E+02 -0.93683187848E+01  0.19961676130E+02  0.00000000000E+00 0.  1.
</event>
<event>
 7    1  0.3449603E-013  0.5930201E+02  0.7816164E-02  0.1266605E+00
        -11   -1    0    0    0    0  0.00000000000E+00  0.00000000000E+00  0.45593999997E+02  0.45594000000E+02  0.51100000000E-03 0. -1.
         11   -1    0    0    0    0 -0.00000000000E+00 -0.00000000000E+00 -0.45593999997E+02  0.45594000000E+02  0.51100000000E-03 0.  1.
    9900012    2    1    2    0    0  0.22084613738E+02 -0.79738495607E+01 -0.21573225043E+02  0.59302008099E+02  0.50000116850E+02 0.  0.
         12    1    1    2    0    0 -0.22084613738E+02  0.79738495607E+01  0.21573225043E+02  0.31885991901E+02  0.00000000000E+00 0. -1.
         11    1    3    3    0    0  0.12977309404E+02  0.69393852009E+01  0.21201490160E+01  0.14868108771E+02  0.51100000000E-03 0. -1.
        -11    1    3    3    0    0  0.73437312360E+01 -0.16405457037E+02  0.24926677640E+01  0.18146151160E+02  0.51100000000E-03 0.  1.
        -12    1    3    3    0    0  0.17635730984E+01  0.14922222757E+01 -0.26186041823E+02  0.26287748168E+02  0.00000000000E+00 0.  1.
</event>
<event>
 7    1  0.3449603E-013  0.5930194E+02  0.7816164E-02  0.1266605E+00
        -11   -1    0    0    0    0  0.00000000000E+00  0.00000000000E+00  0.45593999997E+02  0.45594000000E+02  0.51100000000E-03 0. -1.
         11   -1    0    0    0    0 -0.00000000000E+00 -0.00000000000E+00 -0.45593999997E+02  0.45594000000E+02  0.51100000000E-03 0.  1.
    9900012    2    1    2    0    0  0.11323467252E+02  0.12998094716E+02 -0.26824413765E+02  0.59301944259E+02  0.50000000422E+02 0.  0.
         12    1    1    2    0    0 -0.11323467252E+02 -0.12998094716E+02  0.26824413765E+02  0.31886055741E+02  0.00000000000E+00 0. -1.
         11    1    3    3    0    0  0.14225208321E+02 -0.18962086960E+01  0.13101272639E+01  0.14410711048E+02  0.51100000000E-03 0. -1.
        -11    1    3    3    0    0 -0.12817455718E+00 -0.94248860324E+01 -0.13193426794E+02  0.16214543357E+02  0.51100000000E-03 0.  1.
         12    1    3    3    0    0 -0.27735665117E+01  0.24319189444E+02 -0.14941114235E+02  0.28676689854E+02  0.00000000000E+00 0. -1.
</event>
<event>
 7    1  0.3449603E-013  0.5930195E+02  0.7816164E-02  0.1266605E+00
        -11   -1    0    0    0    0  0.00000000000E+00  0.00000000000E+00  0.45593999997E+02  0.45594000000E+02  0.51100000000E-03 0. -1.
         11   -1    0    0    0    0 -0.00000000000E+00 -0.00000000000E+00 -0.45593999997E+02  0.45594000000E+02  0.51100000000E-03 0.  1.
    9900012    2    1    2    0    0 -0.11704725221E+02 -0.29172514766E+02  0.53557357235E+01  0.59301951085E+02  0.50000012871E+02 0.  0.
         12    1    1    2    0    0  0.11704725221E+02  0.29172514766E+02 -0.53557357235E+01  0.31886048915E+02  0.00000000000E+00 0. -1.
         11    1    3    3    0    0  0.50805486244E+00  0.37847075343E+01 -0.11854690296E+01  0.39984331863E+01  0.51100000000E-03 0. -1.
        -11    1    3    3    0    0 -0.62224253621E+01  0.91043288906E+01 -0.36434332532E+01  0.11613870503E+02  0.51100000000E-03 0.  1.
         12    1    3    3    0    0 -0.59903547216E+01 -0.42061551191E+02  0.10184638006E+02  0.43689647396E+02  0.00000000000E+00 0. -1.
</event>
<event>
 7    1  0.3449603E-013  0.5930209E+02  0.7816164E-02  0.1266604E+00
        -11   -1    0    0    0    0  0.00000000000E+00  0.00000000000E+00  0.45593999997E+02  0.45594000000E+02  0.51100000000E-03 0. -1.
         11   -1    0    0    0    0 -0.00000000000E+00 -0.00000000000E+00 -0.45593999997E+02  0.45594000000E+02  0.51100000000E-03 0.  1.
    9900012    2    1    2    0    0 -0.14932273120E+02  0.27510447474E+02 -0.60756597758E+01  0.59302091789E+02  0.50000269479E+02 0.  0.
         12    1    1    2    0    0  0.14932273120E+02 -0.27510447474E+02  0.60756597758E+01  0.31885908211E+02  0.00000000000E+00 0. -1.
         11    1    3    3    0    0  0.57844016417E+01  0.74675030647E+01  0.60868857554E+01  0.11237129653E+02  0.51100000000E-03 0. -1.
        -11    1    3    3    0    0  0.32700206304E+01 -0.14344478153E+01  0.89007199182E+01  0.95902810585E+01  0.51100000000E-03 0.  1.
        -12    1    3    3    0    0 -0.23986695392E+02  0.21477392225E+02 -0.21063265449E+02  0.38474681077E+02  0.00000000000E+00 0.  1.
</event>
<event>
 7    1  0.3449603E-013  0.5930197E+02  0.7816164E-02  0.1266605E+00
        -11   -1    0    0    0    0  0.00000000000E+00  0.00000000000E+00  0.45593999997E+02  0.45594000000E+02  0.51100000000E-03 0. -1.
         11   -1    0    0    0    0 -0.00000000000E+00 -0.00000000000E+00 -0.45593999997E+02  0.45594000000E+02  0.51100000000E-03 0.  1.
    9900012    2    1    2    0    0  0.97563838040E+00  0.21394248345E+02 -0.23623152125E+02  0.59301967810E+02  0.50000043372E+02 0.  0.
         12    1    1    2    0    0 -0.97563838040E+00 -0.21394248345E+02  0.23623152125E+02  0.31886032190E+02  0.00000000000E+00 0. -1.
         11    1    3    3    0    0 -0.20271685892E+02  0.41907502770E+01 -0.11350861802E+02  0.23608170211E+02  0.51100000000E-03 0. -1.
        -11    1    3    3    0    0 -0.32496702682E+01  0.73970016682E-01 -0.29296948321E+01  0.43759502381E+01  0.51100000000E-03 0.  1.
        -12    1    3    3    0    0  0.24496994541E+02  0.17129528052E+02 -0.93425954907E+01  0.31317847361E+02  0.00000000000E+00 0.  1.
</event>
<event>
 7    1  0.3449603E-013  0.5930194E+02  0.7816164E-02  0.1266605E+00
        -11   -1    0    0    0    0  0.00000000000E+00  0.00000000000E+00  0.45593999997E+02  0.45594000000E+02  0.51100000000E-03 0.  1.
         11   -1    0    0    0    0 -0.00000000000E+00 -0.00000000000E+00 -0.45593999997E+02  0.45594000000E+02  0.51100000000E-03 0. -1.
    9900012    2    1    2    0    0 -0.29279887264E+02 -0.78768951854E+01  0.98672975765E+01  0.59301939763E+02  0.49999992223E+02 0.  0.
         12    1    1    2    0    0  0.29279887264E+02  0.78768951854E+01 -0.98672975765E+01  0.31886060237E+02  0.00000000000E+00 0. -1.
         11    1    3    3    0    0 -0.57161671303E+01  0.65471620596E+01 -0.11203340899E+02  0.14179377464E+02  0.51100000000E-03 0. -1.
        -11    1    3    3    0    0 -0.12915414354E+02  0.71912830732E+01  0.13073786977E+02  0.19734396022E+02  0.51100000000E-03 0.  1.
        -12    1    3    3    0    0 -0.10648305780E+02 -0.21615340318E+02  0.79968514990E+01  0.25388166278E+02  0.00000000000E+00 0.  1.
</event>
<event>
 7    1  0.3449603E-013  0.5930197E+02  0.7816164E-02  0.1266605E+00
        -11   -1    0    0    0    0  0.00000000000E+00  0.00000000000E+00  0.45593999997E+02  0.45594000000E+02  0.51100000000E-03 0. -1.
         11   -1    0    0    0    0 -0.00000000000E+00 -0.00000000000E+00 -0.45593999997E+02  0.45594000000E+02  0.51100000000E-03 0.  1.
    9900012    2    1    2    0    0 -0.27310677992E+02  0.15936552557E+02 -0.41075966263E+01  0.59301965599E+02  0.50000039340E+02 0.  0.
         12    1    1    2    0    0  0.27310677992E+02 -0.15936552557E+02  0.41075966263E+01  0.31886034401E+02  0.00000000000E+00 0. -1.
         11    1    3    3    0    0  0.20282741345E+00  0.21759423456E+01  0.11025505064E+02  0.11240001166E+02  0.51100000000E-03 0. -1.
        -11    1    3    3    0    0 -0.20666556882E+02  0.58450708031E+01  0.78030395258E+01  0.22850795438E+02  0.51100000000E-03 0.  1.
        -12    1    3    3    0    0 -0.68469485240E+01  0.79155394085E+01 -0.22936141216E+02  0.25211168995E+02  0.00000000000E+00 0.  1.
</event>
<event>
 7    1  0.3449603E-013  0.5930195E+02  0.7816164E-02  0.1266605E+00
        -11   -1    0    0    0    0  0.00000000000E+00  0.00000000000E+00  0.45593999997E+02  0.45594000000E+02  0.51100000000E-03 0.  1.
         11   -1    0    0    0    0 -0.00000000000E+00 -0.00000000000E+00 -0.45593999997E+02  0.45594000000E+02  0.51100000000E-03 0. -1.
    9900012    2    1    2    0    0 -0.30926287045E+02 -0.77471508962E+01 -0.51654541372E+00  0.59301946676E+02  0.50000004830E+02 0.  0.
         12    1    1    2    0    0  0.30926287045E+02  0.77471508962E+01  0.51654541372E+00  0.31886053324E+02  0.00000000000E+00 0. -1.
         11    1    3    3    0    0  0.21784975471E+01  0.22605192116E+01 -0.49421888095E+01  0.58550003551E+01  0.51100000000E-03 0. -1.
        -11    1    3    3    0    0 -0.26431863139E+02  0.20545473814E+01 -0.14356359021E+02  0.30149122683E+02  0.51100000000E-03 0.  1.
        -12    1    3    3    0    0 -0.66729214533E+01 -0.12062217489E+02  0.18782002417E+02  0.23297823638E+02  0.00000000000E+00 0.  1.
</event>
<event>
 7    1  0.3449603E-013  0.5930194E+02  0.7816164E-02  0.1266605E+00
        -11   -1    0    0    0    0  0.00000000000E+00  0.00000000000E+00  0.45593999997E+02  0.45594000000E+02  0.51100000000E-03 0.  1.
         11   -1    0    0    0    0 -0.00000000000E+00 -0.00000000000E+00 -0.45593999997E+02  0.45594000000E+02  0.51100000000E-03 0. -1.
    9900012    2    1    2    0    0 -0.30110037521E+01  0.15371831909E+02  0.27773395215E+02  0.59301939698E+02  0.49999992103E+02 0.  0.
         12    1    1    2    0    0  0.30110037521E+01 -0.15371831909E+02 -0.27773395215E+02  0.31886060302E+02  0.00000000000E+00 0. -1.
         11    1    3    3    0    0  0.12961801486E+01  0.57651584893E+01 -0.31153471004E+01  0.66800092217E+01  0.51100000000E-03 0. -1.
        -11    1    3    3    0    0  0.14217208433E+02  0.13286572696E+02  0.41682009819E+01  0.19900651479E+02  0.51100000000E-03 0.  1.
         12    1    3    3    0    0 -0.18524392333E+02 -0.36798992768E+01  0.26720541334E+02  0.32721278997E+02  0.00000000000E+00 0. -1.
</event>
<event>
 7    1  0.3449603E-013  0.5930194E+02  0.7816164E-02  0.1266605E+00
        -11   -1    0    0    0    0  0.00000000000E+00  0.00000000000E+00  0.45593999997E+02  0.45594000000E+02  0.51100000000E-03 0.  1.
         11   -1    0    0    0    0 -0.00000000000E+00 -0.00000000000E+00 -0.45593999997E+02  0.45594000000E+02  0.51100000000E-03 0. -1.
    9900012    2    1    2    0    0  0.22033773214E+02  0.20477683384E+02  0.10578184276E+02  0.59301942523E+02  0.49999997256E+02 0.  0.
         12    1    1    2    0    0 -0.22033773214E+02 -0.20477683384E+02 -0.10578184276E+02  0.31886057477E+02  0.00000000000E+00 0. -1.
         11    1    3    3    0    0 -0.18829742025E+01  0.70275392734E+00  0.14466525349E+01  0.24763397884E+01  0.51100000000E-03 0. -1.
        -11    1    3    3    0    0 -0.10612059302E+02  0.15536700977E+02 -0.46929017301E+01  0.19391446743E+02  0.51100000000E-03 0.  1.
        -12    1    3    3    0    0  0.34528806718E+02  0.42382284800E+01  0.13824433471E+02  0.37434155992E+02  0.00000000000E+00 0.  1.
</event>
<event>
 7    1  0.3449603E-013  0.5930197E+02  0.7816164E-02  0.1266605E+00
        -11   -1    0    0    0    0  0.00000000000E+00  0.00000000000E+00  0.45593999997E+02  0.45594000000E+02  0.51100000000E-03 0.  1.
         11   -1    0    0    0    0 -0.00000000000E+00 -0.00000000000E+00 -0.45593999997E+02  0.45594000000E+02  0.51100000000E-03 0. -1.
    9900012    2    1    2    0    0 -0.31259248334E+02  0.46195117760E+01 -0.42706658694E+01  0.59301967283E+02  0.50000042413E+02 0.  0.
         12    1    1    2    0    0  0.31259248334E+02 -0.46195117760E+01  0.42706658694E+01  0.31886032717E+02  0.00000000000E+00 0. -1.
         11    1    3    3    0    0  0.58557039593E+01  0.43215657652E+01 -0.80636806445E+01  0.10862234822E+02  0.51100000000E-03 0. -1.
        -11    1    3    3    0    0  0.12846616212E+01  0.46249872947E+01 -0.68442935760E+01  0.83597379010E+01  0.51100000000E-03 0.  1.
        -12    1    3    3    0    0 -0.38399613914E+02 -0.43270412839E+01  0.10637308351E+02  0.40079994561E+02  0.00000000000E+00 0.  1.
</event>
<event>
 7    1  0.3449603E-013  0.5930191E+02  0.7816164E-02  0.1266605E+00
        -11   -1    0    0    0    0  0.00000000000E+00  0.00000000000E+00  0.45593999997E+02  0.45594000000E+02  0.51100000000E-03 0.  1.
         11   -1    0    0    0    0 -0.00000000000E+00 -0.00000000000E+00 -0.45593999997E+02  0.45594000000E+02  0.51100000000E-03 0. -1.
    9900012    2    1    2    0    0  0.19075128460E+02  0.11097895529E+02  0.23015194013E+02  0.59301906379E+02  0.49999931338E+02 0.  0.
         12    1    1    2    0    0 -0.19075128460E+02 -0.11097895529E+02 -0.23015194013E+02  0.31886093621E+02  0.00000000000E+00 0. -1.
         11    1    3    3    0    0 -0.55813407301E+01 -0.11155495858E+02 -0.28604035276E+01  0.12797591992E+02  0.51100000000E-03 0. -1.
        -11    1    3    3    0    0  0.86819141766E+00  0.48225589117E+01 -0.25675598490E+01  0.55320154224E+01  0.51100000000E-03 0.  1.
        -12    1    3    3    0    0  0.23788277773E+02  0.17430832475E+02  0.28443157390E+02  0.40972298965E+02  0.00000000000E+00 0.  1.
</event>
<event>
 7    1  0.3449603E-013  0.5930194E+02  0.7816164E-02  0.1266605E+00
        -11   -1    0    0    0    0  0.00000000000E+00  0.00000000000E+00  0.45593999997E+02  0.45594000000E+02  0.51100000000E-03 0.  1.
         11   -1    0    0    0    0 -0.00000000000E+00 -0.00000000000E+00 -0.45593999997E+02  0.45594000000E+02  0.51100000000E-03 0. -1.
    9900012    2    1    2    0    0  0.14057546931E+02 -0.26591279965E+02 -0.10583479036E+02  0.59301939967E+02  0.49999992595E+02 0.  0.
         12    1    1    2    0    0 -0.14057546931E+02  0.26591279965E+02  0.10583479036E+02  0.31886060033E+02  0.00000000000E+00 0. -1.
         11    1    3    3    0    0  0.18701356797E+00 -0.16240734829E+01  0.41041147904E+01  0.44177310043E+01  0.51100000000E-03 0. -1.
        -11    1    3    3    0    0  0.33438571769E+01 -0.55300493671E+01  0.15889816637E+02  0.17153690560E+02  0.51100000000E-03 0.  1.
        -12    1    3    3    0    0  0.10526676186E+02 -0.19437157115E+02 -0.30577410464E+02  0.37730518402E+02  0.00000000000E+00 0.  1.
</event>
<event>
 7    1  0.3449603E-013  0.5930194E+02  0.7816164E-02  0.1266605E+00
        -11   -1    0    0    0    0  0.00000000000E+00  0.00000000000E+00  0.45593999997E+02  0.45594000000E+02  0.51100000000E-03 0.  1.
         11   -1    0    0    0    0 -0.00000000000E+00 -0.00000000000E+00 -0.45593999997E+02  0.45594000000E+02  0.51100000000E-03 0. -1.
    9900012    2    1    2    0    0 -0.56646795113E+01  0.63301371222E+01  0.30733723288E+02  0.59301937573E+02  0.49999988228E+02 0.  0.
         12    1    1    2    0    0  0.56646795113E+01 -0.63301371222E+01 -0.30733723288E+02  0.31886062427E+02  0.00000000000E+00 0. -1.
         11    1    3    3    0    0 -0.18888353846E+02  0.23069491717E+01 -0.21605320914E+01  0.19150974509E+02  0.51100000000E-03 0. -1.
        -11    1    3    3    0    0  0.10994503398E+01  0.59510931106E+01  0.24604105189E+02  0.25337448425E+02  0.51100000000E-03 0.  1.
        -12    1    3    3    0    0  0.12124223994E+02 -0.19279051601E+01  0.82901501909E+01  0.14813514639E+02  0.00000000000E+00 0.  1.
</event>
<event>
 7    1  0.3449603E-013  0.5930181E+02  0.7816164E-02  0.1266605E+00
        -11   -1    0    0    0    0  0.00000000000E+00  0.00000000000E+00  0.45593999997E+02  0.45594000000E+02  0.51100000000E-03 0.  1.
         11   -1    0    0    0    0 -0.00000000000E+00 -0.00000000000E+00 -0.45593999997E+02  0.45594000000E+02  0.51100000000E-03 0. -1.
    9900012    2    1    2    0    0 -0.92253068052E+01 -0.47065901929E+01  0.30157429841E+02  0.59301814095E+02  0.49999763034E+02 0.  0.
         12    1    1    2    0    0  0.92253068052E+01  0.47065901929E+01 -0.30157429841E+02  0.31886185905E+02  0.00000000000E+00 0. -1.
         11    1    3    3    0    0  0.63554930866E+00 -0.21660174404E+02  0.24861727684E+02  0.32979881470E+02  0.51100000000E-03 0. -1.
        -11    1    3    3    0    0  0.18696176534E+01  0.47889339588E+01  0.76939192994E+01  0.92534184537E+01  0.51100000000E-03 0.  1.
        -12    1    3    3    0    0 -0.11730473767E+02  0.12164650252E+02 -0.23982171414E+01  0.17068514171E+02  0.00000000000E+00 0.  1.
</event>
<event>
 7    1  0.3449603E-013  0.5930194E+02  0.7816164E-02  0.1266605E+00
        -11   -1    0    0    0    0  0.00000000000E+00  0.00000000000E+00  0.45593999997E+02  0.45594000000E+02  0.51100000000E-03 0.  1.
         11   -1    0    0    0    0 -0.00000000000E+00 -0.00000000000E+00 -0.45593999997E+02  0.45594000000E+02  0.51100000000E-03 0. -1.
    9900012    2    1    2    0    0 -0.12785012409E+02 -0.90816168256E+01  0.27763073773E+02  0.59301943929E+02  0.49999999820E+02 0.  0.
         12    1    1    2    0    0  0.12785012409E+02  0.90816168256E+01 -0.27763073773E+02  0.31886056071E+02  0.00000000000E+00 0. -1.
         11    1    3    3    0    0 -0.40459729073E+01  0.58509270019E+01 -0.12120712404E+01  0.72161181047E+01  0.51100000000E-03 0. -1.
        -11    1    3    3    0    0 -0.87829078332E+01 -0.61993118540E+01 -0.84383007517E+01  0.13666596405E+02  0.51100000000E-03 0.  1.
        -12    1    3    3    0    0  0.43868331341E-01 -0.87332319735E+01  0.37413445765E+02  0.38419229419E+02  0.00000000000E+00 0.  1.
</event>
<event>
 7    1  0.3449603E-013  0.5930193E+02  0.7816164E-02  0.1266605E+00
        -11   -1    0    0    0    0  0.00000000000E+00  0.00000000000E+00  0.45593999997E+02  0.45594000000E+02  0.51100000000E-03 0. -1.
         11   -1    0    0    0    0 -0.00000000000E+00 -0.00000000000E+00 -0.45593999997E+02  0.45594000000E+02  0.51100000000E-03 0.  1.
    9900012    2    1    2    0    0 -0.22108141634E+02 -0.46382214864E+01 -0.22504189385E+02  0.59301928355E+02  0.49999971417E+02 0.  0.
         12    1    1    2    0    0  0.22108141634E+02  0.46382214864E+01  0.22504189385E+02  0.31886071645E+02  0.00000000000E+00 0. -1.
         11    1    3    3    0    0 -0.72689031909E+01 -0.15923149919E+02  0.20307098862E+01  0.17621221293E+02  0.51100000000E-03 0. -1.
        -11    1    3    3    0    0  0.22459732432E+01 -0.27112921048E+00  0.50971406673E+01  0.55766253327E+01  0.51100000000E-03 0.  1.
        -12    1    3    3    0    0 -0.17085211686E+02  0.11556057643E+02 -0.29632039939E+02  0.36104081730E+02  0.00000000000E+00 0.  1.
</event>
<event>
 7    1  0.3449603E-013  0.5930198E+02  0.7816164E-02  0.1266605E+00
        -11   -1    0    0    0    0  0.00000000000E+00  0.00000000000E+00  0.45593999997E+02  0.45594000000E+02  0.51100000000E-03 0.  1.
         11   -1    0    0    0    0 -0.00000000000E+00 -0.00000000000E+00 -0.45593999997E+02  0.45594000000E+02  0.51100000000E-03 0. -1.
    9900012    2    1    2    0    0 -0.20121413806E+02 -0.12711856028E+02  0.21219224051E+02  0.59301983527E+02  0.50000072037E+02 0.  0.
         12    1    1    2    0    0  0.20121413806E+02  0.12711856028E+02 -0.21219224051E+02  0.31886016473E+02  0.00000000000E+00 0. -1.
         11    1    3    3    0    0 -0.17841792863E+02 -0.10444752825E+02 -0.39476757832E+01  0.21047721455E+02  0.51100000000E-03 0. -1.
        -11    1    3    3    0    0 -0.56310102879E+01  0.11999444261E+02  0.72530034168E+01  0.15109632631E+02  0.51100000000E-03 0.  1.
         12    1    3    3    0    0  0.33513893447E+01 -0.14266547464E+02  0.17913896417E+02  0.23144629440E+02  0.00000000000E+00 0. -1.
</event>
<event>
 7    1  0.3449603E-013  0.5930198E+02  0.7816164E-02  0.1266605E+00
        -11   -1    0    0    0    0  0.00000000000E+00  0.00000000000E+00  0.45593999997E+02  0.45594000000E+02  0.51100000000E-03 0. -1.
         11   -1    0    0    0    0 -0.00000000000E+00 -0.00000000000E+00 -0.45593999997E+02  0.45594000000E+02  0.51100000000E-03 0.  1.
    9900012    2    1    2    0    0  0.34507096600E+01 -0.22116339288E+02 -0.22708551787E+02  0.59301981357E+02  0.50000068080E+02 0.  0.
         12    1    1    2    0    0 -0.34507096600E+01  0.22116339288E+02  0.22708551787E+02  0.31886018643E+02  0.00000000000E+00 0. -1.
         11    1    3    3    0    0 -0.13321727227E+02 -0.11243233058E+02 -0.28066055377E+02  0.33039100632E+02  0.51100000000E-03 0.  1.
        -11    1    3    3    0    0  0.69095486996E+01  0.20314205004E+01  0.68667068414E+01  0.99508891858E+01  0.51100000000E-03 0. -1.
        -12    1    3    3    0    0  0.98628881872E+01 -0.12904526730E+02 -0.15092032510E+01  0.16311991539E+02  0.00000000000E+00 0.  1.
</event>
<event>
 7    1  0.3449603E-013  0.5930191E+02  0.7816164E-02  0.1266605E+00
        -11   -1    0    0    0    0  0.00000000000E+00  0.00000000000E+00  0.45593999997E+02  0.45594000000E+02  0.51100000000E-03 0.  1.
         11   -1    0    0    0    0 -0.00000000000E+00 -0.00000000000E+00 -0.45593999997E+02  0.45594000000E+02  0.51100000000E-03 0. -1.
    9900012    2    1    2    0    0 -0.58360606879E+01  0.30097765831E+01  0.31202633824E+02  0.59301910291E+02  0.49999938471E+02 0.  0.
         12    1    1    2    0    0  0.58360606879E+01 -0.30097765831E+01 -0.31202633824E+02  0.31886089709E+02  0.00000000000E+00 0. -1.
         11    1    3    3    0    0 -0.63653016558E+01 -0.10578323509E+02  0.18446083654E+02  0.22196305906E+02  0.51100000000E-03 0. -1.
        -11    1    3    3    0    0  0.63344310988E+01 -0.56663849645E+01  0.14617920722E+02  0.16909066870E+02  0.51100000000E-03 0.  1.
         12    1    3    3    0    0 -0.58051901308E+01  0.19254485056E+02 -0.18613705530E+01  0.20196537515E+02  0.00000000000E+00 0. -1.
</event>
<event>
 7    1  0.3449603E-013  0.5930194E+02  0.7816164E-02  0.1266605E+00
        -11   -1    0    0    0    0  0.00000000000E+00  0.00000000000E+00  0.45593999997E+02  0.45594000000E+02  0.51100000000E-03 0.  1.
         11   -1    0    0    0    0 -0.00000000000E+00 -0.00000000000E+00 -0.45593999997E+02  0.45594000000E+02  0.51100000000E-03 0. -1.
    9900012    2    1    2    0    0 -0.25871539576E+02 -0.37520221738E+01 -0.18256689607E+02  0.59301938063E+02  0.49999989122E+02 0.  0.
         12    1    1    2    0    0  0.25871539576E+02  0.37520221738E+01  0.18256689607E+02  0.31886061937E+02  0.00000000000E+00 0. -1.
         11    1    3    3    0    0 -0.10058925380E+01 -0.10961676792E+02 -0.38003796467E+00  0.11014291036E+02  0.51100000000E-03 0. -1.
        -11    1    3    3    0    0 -0.76865331857E+01 -0.13451751062E+02  0.88061524698E+00  0.15517985775E+02  0.51100000000E-03 0.  1.
        -12    1    3    3    0    0 -0.17179113852E+02  0.20661405680E+02 -0.18757266890E+02  0.32769661253E+02  0.00000000000E+00 0.  1.
</event>
<event>
 7    1  0.3449603E-013  0.5930196E+02  0.7816164E-02  0.1266605E+00
        -11   -1    0    0    0    0  0.00000000000E+00  0.00000000000E+00  0.45593999997E+02  0.45594000000E+02  0.51100000000E-03 0.  1.
         11   -1    0    0    0    0 -0.00000000000E+00 -0.00000000000E+00 -0.45593999997E+02  0.45594000000E+02  0.51100000000E-03 0. -1.
    9900012    2    1    2    0    0  0.81853821337E+01  0.25812120198E+02  0.16836071329E+02  0.59301963439E+02  0.50000035402E+02 0.  0.
         12    1    1    2    0    0 -0.81853821337E+01 -0.25812120198E+02 -0.16836071329E+02  0.31886036561E+02  0.00000000000E+00 0. -1.
         11    1    3    3    0    0  0.19040069950E+01  0.24770769617E+02 -0.17608584995E+01  0.24906161747E+02  0.51100000000E-03 0. -1.
        -11    1    3    3    0    0  0.46183027931E+01  0.72209321202E+01 -0.50158340208E+01  0.99312221080E+01  0.51100000000E-03 0.  1.
        -12    1    3    3    0    0  0.16630723456E+01 -0.61795815395E+01  0.23612763849E+02  0.24464579584E+02  0.00000000000E+00 0.  1.
</event>
<event>
 7    1  0.3449603E-013  0.5930196E+02  0.7816164E-02  0.1266605E+00
        -11   -1    0    0    0    0  0.00000000000E+00  0.00000000000E+00  0.45593999997E+02  0.45594000000E+02  0.51100000000E-03 0.  1.
         11   -1    0    0    0    0 -0.00000000000E+00 -0.00000000000E+00 -0.45593999997E+02  0.45594000000E+02  0.51100000000E-03 0. -1.
    9900012    2    1    2    0    0  0.24672212536E+02 -0.20186524535E+02  0.71119769550E+00  0.59301958440E+02  0.50000026284E+02 0.  0.
         12    1    1    2    0    0 -0.24672212536E+02  0.20186524535E+02 -0.71119769550E+00  0.31886041560E+02  0.00000000000E+00 0. -1.
         11    1    3    3    0    0  0.27717568264E+01  0.32423813106E+01  0.15285124807E+02  0.15869174934E+02  0.51100000000E-03 0. -1.
        -11    1    3    3    0    0 -0.25357788485E+01 -0.14612123625E+02 -0.68094020965E+01  0.16319077436E+02  0.51100000000E-03 0.  1.
        -12    1    3    3    0    0  0.24436234558E+02 -0.88167822212E+01 -0.77645250150E+01  0.27113706069E+02  0.00000000000E+00 0.  1.
</event>
<event>
 7    1  0.3449603E-013  0.5930198E+02  0.7816164E-02  0.1266605E+00
        -11   -1    0    0    0    0  0.00000000000E+00  0.00000000000E+00  0.45593999997E+02  0.45594000000E+02  0.51100000000E-03 0. -1.
         11   -1    0    0    0    0 -0.00000000000E+00 -0.00000000000E+00 -0.45593999997E+02  0.45594000000E+02  0.51100000000E-03 0.  1.
    9900012    2    1    2    0    0 -0.18257798939E+02  0.20399367454E+02  0.16347372977E+02  0.59301983976E+02  0.50000072857E+02 0.  0.
         12    1    1    2    0    0  0.18257798939E+02 -0.20399367454E+02 -0.16347372977E+02  0.31886016024E+02  0.00000000000E+00 0. -1.
         11    1    3    3    0    0  0.78073834886E+01  0.13299238689E+02 -0.37983301623E+01  0.15882452547E+02  0.51100000000E-03 0. -1.
        -11    1    3    3    0    0 -0.36378958816E+01  0.14080164439E+02  0.10912557380E+02  0.18181562802E+02  0.51100000000E-03 0.  1.
        -12    1    3    3    0    0 -0.22427286546E+02 -0.69800356743E+01  0.92331457593E+01  0.25237968627E+02  0.00000000000E+00 0.  1.
</event>
<event>
 7    1  0.3449603E-013  0.5930195E+02  0.7816164E-02  0.1266605E+00
        -11   -1    0    0    0    0  0.00000000000E+00  0.00000000000E+00  0.45593999997E+02  0.45594000000E+02  0.51100000000E-03 0.  1.
         11   -1    0    0    0    0 -0.00000000000E+00 -0.00000000000E+00 -0.45593999997E+02  0.45594000000E+02  0.51100000000E-03 0. -1.
    9900012    2    1    2    0    0 -0.70470062516E+01  0.21692721990E+02  0.22281952632E+02  0.59301954502E+02  0.50000019102E+02 0.  0.
         12    1    1    2    0    0  0.70470062516E+01 -0.21692721990E+02 -0.22281952632E+02  0.31886045498E+02  0.00000000000E+00 0. -1.
         11    1    3    3    0    0 -0.25141702466E+01 -0.27030914225E+00  0.26028188954E+02  0.26150731147E+02  0.51100000000E-03 0. -1.
        -11    1    3    3    0    0 -0.88237620274E+01  0.61776800815E+01  0.76527694374E+01  0.13213152078E+02  0.51100000000E-03 0.  1.
         12    1    3    3    0    0  0.42909260224E+01  0.15785351051E+02 -0.11399005759E+02  0.19938071276E+02  0.00000000000E+00 0. -1.
</event>
<event>
 7    1  0.3449603E-013  0.5930193E+02  0.7816164E-02  0.1266605E+00
        -11   -1    0    0    0    0  0.00000000000E+00  0.00000000000E+00  0.45593999997E+02  0.45594000000E+02  0.51100000000E-03 0.  1.
         11   -1    0    0    0    0 -0.00000000000E+00 -0.00000000000E+00 -0.45593999997E+02  0.45594000000E+02  0.51100000000E-03 0. -1.
    9900012    2    1    2    0    0 -0.11638240277E+02 -0.54680016406E+01  0.29178314731E+02  0.59301925779E+02  0.49999966719E+02 0.  0.
         12    1    1    2    0    0  0.11638240277E+02  0.54680016406E+01 -0.29178314731E+02  0.31886074221E+02  0.00000000000E+00 0. -1.
         11    1    3    3    0    0 -0.29378943548E+00 -0.15947739969E+02  0.11276992071E+02  0.19534258951E+02  0.51100000000E-03 0. -1.
        -11    1    3    3    0    0  0.85382507656E+01 -0.52211283637E+01  0.33628178477E+01  0.10557956794E+02  0.51100000000E-03 0.  1.
        -12    1    3    3    0    0 -0.19882701607E+02  0.15700866692E+02  0.14538504812E+02  0.29209710034E+02  0.00000000000E+00 0.  1.
</event>
<event>
 7    1  0.3449603E-013  0.5930200E+02  0.7816164E-02  0.1266605E+00
        -11   -1    0    0    0    0  0.00000000000E+00  0.00000000000E+00  0.45593999997E+02  0.45594000000E+02  0.51100000000E-03 0.  1.
         11   -1    0    0    0    0 -0.00000000000E+00 -0.00000000000E+00 -0.45593999997E+02  0.45594000000E+02  0.51100000000E-03 0. -1.
    9900012    2    1    2    0    0  0.31799189615E+02  0.54948807450E+00 -0.22861820811E+01  0.59301999532E+02  0.50000101226E+02 0.  0.
         12    1    1    2    0    0 -0.31799189615E+02 -0.54948807450E+00  0.22861820811E+01  0.31886000468E+02  0.00000000000E+00 0. -1.
         11    1    3    3    0    0  0.91665189470E+01 -0.19822953759E+02  0.64641459076E+01  0.22776297941E+02  0.51100000000E-03 0.  1.
        -11    1    3    3    0    0  0.53479569799E+01 -0.21210560071E+01 -0.55229835421E+01  0.79751407455E+01  0.51100000000E-03 0. -1.
        -12    1    3    3    0    0  0.17284713689E+02  0.22493497841E+02 -0.32273444466E+01  0.28550560845E+02  0.00000000000E+00 0.  1.
</event>
<event>
 7    1  0.3449603E-013  0.5930194E+02  0.7816164E-02  0.1266605E+00
        -11   -1    0    0    0    0  0.00000000000E+00  0.00000000000E+00  0.45593999997E+02  0.45594000000E+02  0.51100000000E-03 0. -1.
         11   -1    0    0    0    0 -0.00000000000E+00 -0.00000000000E+00 -0.45593999997E+02  0.45594000000E+02  0.51100000000E-03 0.  1.
    9900012    2    1    2    0    0 -0.56538706423E+01 -0.19781865322E+02 -0.24360462782E+02  0.59301943552E+02  0.49999999132E+02 0.  0.
         12    1    1    2    0    0  0.56538706423E+01  0.19781865322E+02  0.24360462782E+02  0.31886056448E+02  0.00000000000E+00 0. -1.
         11    1    3    3    0    0 -0.15135715534E+02 -0.14055314798E+02  0.28524516250E+01  0.20851336632E+02  0.51100000000E-03 0. -1.
        -11    1    3    3    0    0 -0.68220347563E+01 -0.76910909569E+01 -0.14021641524E+02  0.17386761332E+02  0.51100000000E-03 0.  1.
        -12    1    3    3    0    0  0.16303879648E+02  0.19645404329E+01 -0.13191272883E+02  0.21063845588E+02  0.00000000000E+00 0.  1.
</event>
<event>
 7    1  0.3449603E-013  0.5930191E+02  0.7816164E-02  0.1266605E+00
        -11   -1    0    0    0    0  0.00000000000E+00  0.00000000000E+00  0.45593999997E+02  0.45594000000E+02  0.51100000000E-03 0.  1.
         11   -1    0    0    0    0 -0.00000000000E+00 -0.00000000000E+00 -0.45593999997E+02  0.45594000000E+02  0.51100000000E-03 0. -1.
    9900012    2    1    2    0    0 -0.20471129415E+02 -0.20638160647E+02  0.13104274992E+02  0.59301908401E+02  0.49999935025E+02 0.  0.
         12    1    1    2    0    0  0.20471129415E+02  0.20638160647E+02 -0.13104274992E+02  0.31886091599E+02  0.00000000000E+00 0. -1.
         11    1    3    3    0    0 -0.27346756576E+02 -0.70032431823E+01 -0.32300288390E+01  0.28413440427E+02  0.51100000000E-03 0. -1.
        -11    1    3    3    0    0 -0.25100964350E+01  0.45292065715E+01  0.86480595046E+00  0.52499700831E+01  0.51100000000E-03 0.  1.
         12    1    3    3    0    0  0.93857235967E+01 -0.18164124036E+02  0.15469497881E+02  0.25638497891E+02  0.00000000000E+00 0. -1.
</event>
<event>
 7    1  0.3449603E-013  0.5930194E+02  0.7816164E-02  0.1266605E+00
        -11   -1    0    0    0    0  0.00000000000E+00  0.00000000000E+00  0.45593999997E+02  0.45594000000E+02  0.51100000000E-03 0. -1.
         11   -1    0    0    0    0 -0.00000000000E+00 -0.00000000000E+00 -0.45593999997E+02  0.45594000000E+02  0.51100000000E-03 0.  1.
    9900012    2    1    2    0    0  0.31369810376E+02 -0.40200443303E+01 -0.40613951758E+01  0.59301942071E+02  0.49999996432E+02 0.  0.
         12    1    1    2    0    0 -0.31369810376E+02  0.40200443303E+01  0.40613951758E+01  0.31886057929E+02  0.00000000000E+00 0. -1.
         11    1    3    3    0    0  0.17579726794E+01  0.74622932042E+01 -0.36666947145E+00  0.76753328638E+01  0.51100000000E-03 0. -1.
        -11    1    3    3    0    0  0.27623813829E+02  0.73380108347E+01 -0.11949982428E+02  0.30979405639E+02  0.51100000000E-03 0.  1.
         12    1    3    3    0    0  0.19880238679E+01 -0.18820348369E+02  0.82552567232E+01  0.20647203569E+02  0.00000000000E+00 0. -1.
</event>
<event>
 7    1  0.3449603E-013  0.5930193E+02  0.7816164E-02  0.1266605E+00
        -11   -1    0    0    0    0  0.00000000000E+00  0.00000000000E+00  0.45593999997E+02  0.45594000000E+02  0.51100000000E-03 0.  1.
         11   -1    0    0    0    0 -0.00000000000E+00 -0.00000000000E+00 -0.45593999997E+02  0.45594000000E+02  0.51100000000E-03 0. -1.
    9900012    2    1    2    0    0  0.74603102798E+01  0.24455743625E+02 -0.19052084958E+02  0.59301928323E+02  0.49999971359E+02 0.  0.
         12    1    1    2    0    0 -0.74603102798E+01 -0.24455743625E+02  0.19052084958E+02  0.31886071677E+02  0.00000000000E+00 0. -1.
         11    1    3    3    0    0  0.34526333195E+00 -0.83795049903E+01  0.72836494591E+01  0.11107963826E+02  0.51100000000E-03 0. -1.
        -11    1    3    3    0    0 -0.19806056284E+01 -0.71851631547E-01  0.27180885188E+01  0.33639213382E+01  0.51100000000E-03 0.  1.
        -12    1    3    3    0    0  0.90956525762E+01  0.32907100247E+02 -0.29053822936E+02  0.44830043159E+02  0.00000000000E+00 0.  1.
</event>
<event>
 7    1  0.3449603E-013  0.5930194E+02  0.7816164E-02  0.1266605E+00
        -11   -1    0    0    0    0  0.00000000000E+00  0.00000000000E+00  0.45593999997E+02  0.45594000000E+02  0.51100000000E-03 0.  1.
         11   -1    0    0    0    0 -0.00000000000E+00 -0.00000000000E+00 -0.45593999997E+02  0.45594000000E+02  0.51100000000E-03 0. -1.
    9900012    2    1    2    0    0  0.16261653297E+02 -0.18148898841E+02  0.20564451886E+02  0.59301943824E+02  0.49999999628E+02 0.  0.
         12    1    1    2    0    0 -0.16261653297E+02  0.18148898841E+02 -0.20564451886E+02  0.31886056176E+02  0.00000000000E+00 0. -1.
         11    1    3    3    0    0  0.18581038385E+02 -0.78777829197E+01  0.48268094457E+01  0.20751205769E+02  0.51100000000E-03 0. -1.
        -11    1    3    3    0    0  0.40375693687E+01 -0.20356719620E+02  0.27726860828E+01  0.20937664351E+02  0.51100000000E-03 0.  1.
        -12    1    3    3    0    0 -0.63569544564E+01  0.10085603699E+02  0.12964956358E+02  0.17613073704E+02  0.00000000000E+00 0.  1.
</event>
<event>
 7    1  0.3449603E-013  0.5930193E+02  0.7816164E-02  0.1266605E+00
        -11   -1    0    0    0    0  0.00000000000E+00  0.00000000000E+00  0.45593999997E+02  0.45594000000E+02  0.51100000000E-03 0. -1.
         11   -1    0    0    0    0 -0.00000000000E+00 -0.00000000000E+00 -0.45593999997E+02  0.45594000000E+02  0.51100000000E-03 0.  1.
    9900012    2    1    2    0    0  0.25763449295E+02  0.60985800814E+01 -0.17770008363E+02  0.59301934144E+02  0.49999981974E+02 0.  0.
         12    1    1    2    0    0 -0.25763449295E+02 -0.60985800814E+01  0.17770008363E+02  0.31886065856E+02  0.00000000000E+00 0. -1.
         11    1    3    3    0    0  0.96158964303E+01  0.81383897441E+01 -0.76734119066E+01  0.14750596677E+02  0.51100000000E-03 0. -1.
        -11    1    3    3    0    0  0.14539935278E+02 -0.18812044502E+01 -0.25311458081E+02  0.29250958250E+02  0.51100000000E-03 0.  1.
         12    1    3    3    0    0  0.16076175867E+01 -0.15860521255E+00  0.15214861625E+02  0.15300379217E+02  0.00000000000E+00 0. -1.
</event>
<event>
 7    1  0.3449603E-013  0.5930196E+02  0.7816164E-02  0.1266605E+00
        -11   -1    0    0    0    0  0.00000000000E+00  0.00000000000E+00  0.45593999997E+02  0.45594000000E+02  0.51100000000E-03 0.  1.
         11   -1    0    0    0    0 -0.00000000000E+00 -0.00000000000E+00 -0.45593999997E+02  0.45594000000E+02  0.51100000000E-03 0. -1.
    9900012    2    1    2    0    0  0.12913891021E+02  0.19007016206E+02  0.22106199131E+02  0.59301964085E+02  0.50000036579E+02 0.  0.
         12    1    1    2    0    0 -0.12913891021E+02 -0.19007016206E+02 -0.22106199131E+02  0.31886035915E+02  0.00000000000E+00 0. -1.
         11    1    3    3    0    0 -0.25037400435E+01 -0.41327918890E+01 -0.97766496365E+00  0.49299606536E+01  0.51100000000E-03 0. -1.
        -11    1    3    3    0    0  0.42597242030E+01  0.31187468843E+02  0.25367243363E+02  0.40426482647E+02  0.51100000000E-03 0.  1.
         12    1    3    3    0    0  0.11157906862E+02 -0.80476607478E+01 -0.22833792681E+01  0.13945520784E+02  0.00000000000E+00 0. -1.
</event>
<event>
 7    1  0.3449603E-013  0.5930196E+02  0.7816164E-02  0.1266605E+00
        -11   -1    0    0    0    0  0.00000000000E+00  0.00000000000E+00  0.45593999997E+02  0.45594000000E+02  0.51100000000E-03 0.  1.
         11   -1    0    0    0    0 -0.00000000000E+00 -0.00000000000E+00 -0.45593999997E+02  0.45594000000E+02  0.51100000000E-03 0. -1.
    9900012    2    1    2    0    0 -0.13785859423E+02 -0.47563259475E+01  0.28355726562E+02  0.59301956259E+02  0.50000022307E+02 0.  0.
         12    1    1    2    0    0  0.13785859423E+02  0.47563259475E+01 -0.28355726562E+02  0.31886043741E+02  0.00000000000E+00 0. -1.
         11    1    3    3    0    0 -0.62965505036E+00  0.18370364238E+02  0.40799547889E+01  0.18828509740E+02  0.51100000000E-03 0. -1.
        -11    1    3    3    0    0  0.46443354238E+01 -0.67728236401E+01  0.62271527004E+01  0.10306232222E+02  0.51100000000E-03 0.  1.
        -12    1    3    3    0    0 -0.17800539797E+02 -0.16353866545E+02  0.18048619073E+02  0.30167214297E+02  0.00000000000E+00 0.  1.
</event>
<event>
 7    1  0.3449603E-013  0.5930191E+02  0.7816164E-02  0.1266605E+00
        -11   -1    0    0    0    0  0.00000000000E+00  0.00000000000E+00  0.45593999997E+02  0.45594000000E+02  0.51100000000E-03 0. -1.
         11   -1    0    0    0    0 -0.00000000000E+00 -0.00000000000E+00 -0.45593999997E+02  0.45594000000E+02  0.51100000000E-03 0.  1.
    9900012    2    1    2    0    0 -0.66403218054E+01  0.31850168094E+01 -0.31023935246E+02  0.59301909555E+02  0.49999937129E+02 0.  0.
         12    1    1    2    0    0  0.66403218054E+01 -0.31850168094E+01  0.31023935246E+02  0.31886090445E+02  0.00000000000E+00 0. -1.
         11    1    3    3    0    0  0.18665364304E+02  0.52236670940E+01 -0.19778968353E+02  0.27692780862E+02  0.51100000000E-03 0. -1.
        -11    1    3    3    0    0 -0.62143570044E+01 -0.50366858535E+01 -0.91763912982E+01  0.12173438088E+02  0.51100000000E-03 0.  1.
         12    1    3    3    0    0 -0.19091329105E+02  0.29980355689E+01 -0.20685755947E+01  0.19435690604E+02  0.00000000000E+00 0. -1.
</event>
<event>
 7    1  0.6332202E-013  0.5930198E+02  0.7816164E-02  0.1266605E+00
        -11   -1    0    0    0    0  0.00000000000E+00  0.00000000000E+00  0.45593999997E+02  0.45594000000E+02  0.51100000000E-03 0. -1.
         11   -1    0    0    0    0 -0.00000000000E+00 -0.00000000000E+00 -0.45593999997E+02  0.45594000000E+02  0.51100000000E-03 0.  1.
    9900012    2    1    2    0    0  0.83906394371E-01 -0.90785777710E+01 -0.30566172923E+02  0.59301975760E+02  0.50000057873E+02 0.  0.
         12    1    1    2    0    0 -0.83906394371E-01  0.90785777710E+01  0.30566172923E+02  0.31886024240E+02  0.00000000000E+00 0. -1.
         11    1    3    3    0    0  0.16859153281E+01 -0.14353735454E+02 -0.51112595038E+01  0.15329612061E+02  0.51100000000E-03 0. -1.
        -11    1    3    3    0    0 -0.85280692287E+01 -0.35753685875E+01 -0.30340151969E+02  0.31718071302E+02  0.51100000000E-03 0.  1.
         12    1    3    3    0    0  0.69260602949E+01  0.88505262704E+01  0.48852385499E+01  0.12254292397E+02  0.00000000000E+00 0. -1.
</event>
<event>
 7    1  0.3449603E-013  0.5930196E+02  0.7816164E-02  0.1266605E+00
        -11   -1    0    0    0    0  0.00000000000E+00  0.00000000000E+00  0.45593999997E+02  0.45594000000E+02  0.51100000000E-03 0. -1.
         11   -1    0    0    0    0 -0.00000000000E+00 -0.00000000000E+00 -0.45593999997E+02  0.45594000000E+02  0.51100000000E-03 0.  1.
    9900012    2    1    2    0    0  0.29916601175E+02 -0.10599277524E+02 -0.30613609982E+01  0.59301958523E+02  0.50000026437E+02 0.  0.
         12    1    1    2    0    0 -0.29916601175E+02  0.10599277524E+02  0.30613609982E+01  0.31886041477E+02  0.00000000000E+00 0. -1.
         11    1    3    3    0    0  0.14065524309E+02 -0.13373902056E+02  0.29908581531E+01  0.19637857904E+02  0.51100000000E-03 0. -1.
        -11    1    3    3    0    0 -0.67076099741E+01 -0.74298684824E+01  0.64695316776E+01  0.11918465405E+02  0.51100000000E-03 0.  1.
        -12    1    3    3    0    0  0.22558686840E+02  0.10204493014E+02 -0.12521750829E+02  0.27745635214E+02  0.00000000000E+00 0.  1.
</event>
<event>
 7    1  0.3449603E-013  0.5930193E+02  0.7816164E-02  0.1266605E+00
        -11   -1    0    0    0    0  0.00000000000E+00  0.00000000000E+00  0.45593999997E+02  0.45594000000E+02  0.51100000000E-03 0.  1.
         11   -1    0    0    0    0 -0.00000000000E+00 -0.00000000000E+00 -0.45593999997E+02  0.45594000000E+02  0.51100000000E-03 0. -1.
    9900012    2    1    2    0    0  0.75346724798E+01  0.25895955094E+02 -0.17010281325E+02  0.59301930151E+02  0.49999974693E+02 0.  0.
         12    1    1    2    0    0 -0.75346724798E+01 -0.25895955094E+02  0.17010281325E+02  0.31886069849E+02  0.00000000000E+00 0. -1.
         11    1    3    3    0    0 -0.13129104534E+02  0.11930699101E+02 -0.10593307174E+02  0.20662360080E+02  0.51100000000E-03 0. -1.
        -11    1    3    3    0    0  0.16175209218E+02  0.21555299663E+02 -0.10499466778E+02  0.28922433157E+02  0.51100000000E-03 0.  1.
         12    1    3    3    0    0  0.44885677958E+01 -0.75900436704E+01  0.40824926266E+01  0.97171369149E+01  0.00000000000E+00 0. -1.
</event>
<event>
 7    1  0.3449603E-013  0.5930196E+02  0.7816164E-02  0.1266605E+00
        -11   -1    0    0    0    0  0.00000000000E+00  0.00000000000E+00  0.45593999997E+02  0.45594000000E+02  0.51100000000E-03 0. -1.
         11   -1    0    0    0    0 -0.00000000000E+00 -0.00000000000E+00 -0.45593999997E+02  0.45594000000E+02  0.51100000000E-03 0.  1.
    9900012    2    1    2    0    0  0.28785858733E+02  0.48852292772E+01 -0.12815153870E+02  0.59301963921E+02  0.50000036281E+02 0.  0.
         12    1    1    2    0    0 -0.28785858733E+02 -0.48852292772E+01  0.12815153870E+02  0.31886036079E+02  0.00000000000E+00 0. -1.
         11    1    3    3    0    0 -0.24667436261E+01  0.59976575543E+01 -0.81772375978E+01  0.10436663032E+02  0.51100000000E-03 0. -1.
        -11    1    3    3    0    0 -0.46981735208E+00 -0.14285166884E+02 -0.16149667989E+01  0.14383839518E+02  0.51100000000E-03 0.  1.
         12    1    3    3    0    0  0.31722419711E+02  0.13172738607E+02 -0.30229494734E+01  0.34481461371E+02  0.00000000000E+00 0. -1.
</event>
<event>
 7    1  0.3449603E-013  0.5930190E+02  0.7816164E-02  0.1266605E+00
        -11   -1    0    0    0    0  0.00000000000E+00  0.00000000000E+00  0.45593999997E+02  0.45594000000E+02  0.51100000000E-03 0.  1.
         11   -1    0    0    0    0 -0.00000000000E+00 -0.00000000000E+00 -0.45593999997E+02  0.45594000000E+02  0.51100000000E-03 0. -1.
    9900012    2    1    2    0    0 -0.74881995615E+01 -0.21696573315E+02  0.22133885498E+02  0.59301900936E+02  0.49999921410E+02 0.  0.
         12    1    1    2    0    0  0.74881995615E+01  0.21696573315E+02 -0.22133885498E+02  0.31886099064E+02  0.00000000000E+00 0. -1.
         11    1    3    3    0    0 -0.17542542207E+01 -0.79183372253E+00 -0.10105419139E+02  0.10287074645E+02  0.51100000000E-03 0. -1.
        -11    1    3    3    0    0 -0.14696913520E+02 -0.10896494590E+02  0.55238678699E+01  0.19111409626E+02  0.51100000000E-03 0.  1.
        -12    1    3    3    0    0  0.89629681797E+01 -0.10008245003E+02  0.26715436767E+02  0.29903416665E+02  0.00000000000E+00 0.  1.
</event>
<event>
 7    1  0.3449603E-013  0.5930195E+02  0.7816164E-02  0.1266605E+00
        -11   -1    0    0    0    0  0.00000000000E+00  0.00000000000E+00  0.45593999997E+02  0.45594000000E+02  0.51100000000E-03 0.  1.
         11   -1    0    0    0    0 -0.00000000000E+00 -0.00000000000E+00 -0.45593999997E+02  0.45594000000E+02  0.51100000000E-03 0. -1.
    9900012    2    1    2    0    0 -0.44921603565E+01 -0.25431795630E+02  0.18701987139E+02  0.59301952007E+02  0.50000014553E+02 0.  0.
         12    1    1    2    0    0  0.44921603565E+01  0.25431795630E+02 -0.18701987139E+02  0.31886047993E+02  0.00000000000E+00 0. -1.
         11    1    3    3    0    0  0.20548591577E+02 -0.18736833443E+02  0.13917484179E+02  0.31096782943E+02  0.51100000000E-03 0. -1.
        -11    1    3    3    0    0 -0.39610543483E+01 -0.51000261435E+01  0.25675809615E+01  0.69492942426E+01  0.51100000000E-03 0.  1.
        -12    1    3    3    0    0 -0.21079697585E+02 -0.15949360434E+01  0.22169219993E+01  0.21255874821E+02  0.00000000000E+00 0.  1.
</event>
<event>
 7    1  0.3449603E-013  0.5930195E+02  0.7816164E-02  0.1266605E+00
        -11   -1    0    0    0    0  0.00000000000E+00  0.00000000000E+00  0.45593999997E+02  0.45594000000E+02  0.51100000000E-03 0.  1.
         11   -1    0    0    0    0 -0.00000000000E+00 -0.00000000000E+00 -0.45593999997E+02  0.45594000000E+02  0.51100000000E-03 0. -1.
    9900012    2    1    2    0    0 -0.12661403655E+02  0.13653433220E+02  0.25884213655E+02  0.59301954498E+02  0.50000019096E+02 0.  0.
         12    1    1    2    0    0  0.12661403655E+02 -0.13653433220E+02 -0.25884213655E+02  0.31886045502E+02  0.00000000000E+00 0. -1.
         11    1    3    3    0    0 -0.12274214039E+02  0.64574010166E+01 -0.23984831263E+01  0.14075051677E+02  0.51100000000E-03 0. -1.
        -11    1    3    3    0    0 -0.12595761667E+02 -0.36967890492E+01  0.25430277544E+02  0.28618498868E+02  0.51100000000E-03 0.  1.
         12    1    3    3    0    0  0.12208572051E+02  0.10892821253E+02  0.28524192375E+01  0.16608403953E+02  0.00000000000E+00 0. -1.
</event>
<event>
 7    1  0.3449603E-013  0.5930193E+02  0.7816164E-02  0.1266605E+00
        -11   -1    0    0    0    0  0.00000000000E+00  0.00000000000E+00  0.45593999997E+02  0.45594000000E+02  0.51100000000E-03 0.  1.
         11   -1    0    0    0    0 -0.00000000000E+00 -0.00000000000E+00 -0.45593999997E+02  0.45594000000E+02  0.51100000000E-03 0. -1.
    9900012    2    1    2    0    0  0.25110104000E+02 -0.46299360051E+01  0.19098887747E+02  0.59301934964E+02  0.49999983469E+02 0.  0.
         12    1    1    2    0    0 -0.25110104000E+02  0.46299360051E+01 -0.19098887747E+02  0.31886065036E+02  0.00000000000E+00 0. -1.
         11    1    3    3    0    0 -0.71100211654E+01 -0.61653598549E+01  0.74332818582E+01  0.11992403535E+02  0.51100000000E-03 0. -1.
        -11    1    3    3    0    0 -0.20982018071E+01 -0.73483866072E+00 -0.75788770555E+01  0.78982160242E+01  0.51100000000E-03 0.  1.
        -12    1    3    3    0    0  0.34318326973E+02  0.22702625105E+01  0.19244482944E+02  0.39411315404E+02  0.00000000000E+00 0.  1.
</event>
<event>
 7    1  0.3449603E-013  0.5930195E+02  0.7816164E-02  0.1266605E+00
        -11   -1    0    0    0    0  0.00000000000E+00  0.00000000000E+00  0.45593999997E+02  0.45594000000E+02  0.51100000000E-03 0.  1.
         11   -1    0    0    0    0 -0.00000000000E+00 -0.00000000000E+00 -0.45593999997E+02  0.45594000000E+02  0.51100000000E-03 0. -1.
    9900012    2    1    2    0    0 -0.42628272701E+01 -0.50570395836E+00  0.31595770484E+02  0.59301950616E+02  0.50000012015E+02 0.  0.
         12    1    1    2    0    0  0.42628272701E+01  0.50570395836E+00 -0.31595770484E+02  0.31886049384E+02  0.00000000000E+00 0. -1.
         11    1    3    3    0    0 -0.11123629625E+02 -0.52907183200E+00 -0.18390642013E+01  0.11287037274E+02  0.51100000000E-03 0. -1.
        -11    1    3    3    0    0 -0.77288435195E+01 -0.12854920989E+02  0.14384677101E+02  0.20782274932E+02  0.51100000000E-03 0.  1.
        -12    1    3    3    0    0  0.14589645874E+02  0.12878288862E+02  0.19050157585E+02  0.27232638410E+02  0.00000000000E+00 0.  1.
</event>
<event>
 7    1  0.3449603E-013  0.5930193E+02  0.7816164E-02  0.1266605E+00
        -11   -1    0    0    0    0  0.00000000000E+00  0.00000000000E+00  0.45593999997E+02  0.45594000000E+02  0.51100000000E-03 0.  1.
         11   -1    0    0    0    0 -0.00000000000E+00 -0.00000000000E+00 -0.45593999997E+02  0.45594000000E+02  0.51100000000E-03 0. -1.
    9900012    2    1    2    0    0 -0.82961724428E+01  0.18499375646E+02  0.24610322566E+02  0.59301931674E+02  0.49999977470E+02 0.  0.
         12    1    1    2    0    0  0.82961724428E+01 -0.18499375646E+02 -0.24610322566E+02  0.31886068326E+02  0.00000000000E+00 0. -1.
         11    1    3    3    0    0  0.48976055074E+01  0.10251828366E+02  0.26006957031E+02  0.28380421752E+02  0.51100000000E-03 0. -1.
        -11    1    3    3    0    0 -0.26637104889E+01  0.38904691733E+01  0.12259597289E+02  0.13135023026E+02  0.51100000000E-03 0.  1.
         12    1    3    3    0    0 -0.10530067461E+02  0.43570781060E+01 -0.13656231754E+02  0.17786486896E+02  0.00000000000E+00 0. -1.
</event>
<event>
 7    1  0.3449603E-013  0.5930211E+02  0.7816164E-02  0.1266604E+00
        -11   -1    0    0    0    0  0.00000000000E+00  0.00000000000E+00  0.45593999997E+02  0.45594000000E+02  0.51100000000E-03 0. -1.
         11   -1    0    0    0    0 -0.00000000000E+00 -0.00000000000E+00 -0.45593999997E+02  0.45594000000E+02  0.51100000000E-03 0.  1.
    9900012    2    1    2    0    0 -0.27569026899E+00 -0.22874036505E+02 -0.22212889044E+02  0.59302109848E+02  0.50000302415E+02 0.  0.
         12    1    1    2    0    0  0.27569026899E+00  0.22874036505E+02  0.22212889044E+02  0.31885890152E+02  0.00000000000E+00 0. -1.
         11    1    3    3    0    0 -0.43326964783E+01 -0.21252732435E+01  0.50837969609E+01  0.70095675283E+01  0.51100000000E-03 0. -1.
        -11    1    3    3    0    0 -0.10086113600E+02 -0.27182046077E+02 -0.16341419237E+02  0.33281155320E+02  0.51100000000E-03 0.  1.
        -12    1    3    3    0    0  0.14143119809E+02  0.64332828157E+01 -0.10955266767E+02  0.19011387000E+02  0.00000000000E+00 0.  1.
</event>
<event>
 7    1  0.3449603E-013  0.5930192E+02  0.7816164E-02  0.1266605E+00
        -11   -1    0    0    0    0  0.00000000000E+00  0.00000000000E+00  0.45593999997E+02  0.45594000000E+02  0.51100000000E-03 0.  1.
         11   -1    0    0    0    0 -0.00000000000E+00 -0.00000000000E+00 -0.45593999997E+02  0.45594000000E+02  0.51100000000E-03 0. -1.
    9900012    2    1    2    0    0 -0.13324136082E+02  0.10364070172E+01  0.28950218052E+02  0.59301923617E+02  0.49999962776E+02 0.  0.
         12    1    1    2    0    0  0.13324136082E+02 -0.10364070172E+01 -0.28950218052E+02  0.31886076383E+02  0.00000000000E+00 0. -1.
         11    1    3    3    0    0 -0.21267638423E+01 -0.18649034981E+02  0.11089239012E+02  0.21800936959E+02  0.51100000000E-03 0. -1.
        -11    1    3    3    0    0  0.26453948104E+01  0.15043515364E+02  0.11607285903E+01  0.15318379788E+02  0.51100000000E-03 0.  1.
        -12    1    3    3    0    0 -0.13842767050E+02  0.46419266339E+01  0.16700250449E+02  0.22182606870E+02  0.00000000000E+00 0.  1.
</event>
<event>
 7    1  0.3449603E-013  0.5930195E+02  0.7816164E-02  0.1266605E+00
        -11   -1    0    0    0    0  0.00000000000E+00  0.00000000000E+00  0.45593999997E+02  0.45594000000E+02  0.51100000000E-03 0.  1.
         11   -1    0    0    0    0 -0.00000000000E+00 -0.00000000000E+00 -0.45593999997E+02  0.45594000000E+02  0.51100000000E-03 0. -1.
    9900012    2    1    2    0    0  0.58495644980E+00  0.58065490067E+01  0.31347444545E+02  0.59301945604E+02  0.50000002875E+02 0.  0.
         12    1    1    2    0    0 -0.58495644980E+00 -0.58065490067E+01 -0.31347444545E+02  0.31886054396E+02  0.00000000000E+00 0. -1.
         11    1    3    3    0    0 -0.43999694546E+00 -0.17600201243E+02  0.73643192555E+01  0.19083864374E+02  0.51100000000E-03 0. -1.
        -11    1    3    3    0    0 -0.93664481418E+00 -0.43178959342E+01  0.42573564033E+01  0.61356835489E+01  0.51100000000E-03 0.  1.
        -12    1    3    3    0    0  0.19615982094E+01  0.27724646184E+02  0.19725768886E+02  0.34082397681E+02  0.00000000000E+00 0.  1.
</event>
<event>
 7    1  0.3449603E-013  0.5930194E+02  0.7816164E-02  0.1266605E+00
        -11   -1    0    0    0    0  0.00000000000E+00  0.00000000000E+00  0.45593999997E+02  0.45594000000E+02  0.51100000000E-03 0.  1.
         11   -1    0    0    0    0 -0.00000000000E+00 -0.00000000000E+00 -0.45593999997E+02  0.45594000000E+02  0.51100000000E-03 0. -1.
    9900012    2    1    2    0    0  0.91482211633E+01 -0.15134036119E+02 -0.26532843549E+02  0.59301940561E+02  0.49999993678E+02 0.  0.
         12    1    1    2    0    0 -0.91482211633E+01  0.15134036119E+02  0.26532843549E+02  0.31886059439E+02  0.00000000000E+00 0. -1.
         11    1    3    3    0    0  0.18218572698E+02 -0.12362051485E+02  0.40475517361E+00  0.22020457195E+02  0.51100000000E-03 0. -1.
        -11    1    3    3    0    0  0.50269369474E+01  0.60776565490E+01 -0.37370146926E+01  0.87277307059E+01  0.51100000000E-03 0.  1.
         12    1    3    3    0    0 -0.14097288482E+02 -0.88496411833E+01 -0.23200584030E+02  0.28553752660E+02  0.00000000000E+00 0. -1.
</event>
<event>
 7    1  0.3475941E-013  0.5930194E+02  0.7816164E-02  0.1266605E+00
        -11   -1    0    0    0    0  0.00000000000E+00  0.00000000000E+00  0.45593999997E+02  0.45594000000E+02  0.51100000000E-03 0. -1.
         11   -1    0    0    0    0 -0.00000000000E+00 -0.00000000000E+00 -0.45593999997E+02  0.45594000000E+02  0.51100000000E-03 0.  1.
    9900012    2    1    2    0    0 -0.36610045451E+01 -0.31570329477E+02  0.25752713737E+01  0.59301942229E+02  0.49999996719E+02 0.  0.
         12    1    1    2    0    0  0.36610045451E+01  0.31570329477E+02 -0.25752713737E+01  0.31886057771E+02  0.00000000000E+00 0. -1.
         11    1    3    3    0    0  0.11861066224E+02 -0.10178792997E+02  0.86559425847E+01  0.17866674597E+02  0.51100000000E-03 0. -1.
        -11    1    3    3    0    0  0.21330051740E+01 -0.19336880954E+02 -0.11812597990E+02  0.22759660535E+02  0.51100000000E-03 0.  1.
         12    1    3    3    0    0 -0.17655075943E+02 -0.20546555246E+01  0.57319267788E+01  0.18675607098E+02  0.00000000000E+00 0. -1.
</event>
<event>
 7    1  0.3449603E-013  0.5930177E+02  0.7816164E-02  0.1266605E+00
        -11   -1    0    0    0    0  0.00000000000E+00  0.00000000000E+00  0.45593999997E+02  0.45594000000E+02  0.51100000000E-03 0. -1.
         11   -1    0    0    0    0 -0.00000000000E+00 -0.00000000000E+00 -0.45593999997E+02  0.45594000000E+02  0.51100000000E-03 0.  1.
    9900012    2    1    2    0    0  0.11651881514E+02 -0.21993185304E+02 -0.19931516758E+02  0.59301766248E+02  0.49999675772E+02 0.  0.
         12    1    1    2    0    0 -0.11651881514E+02  0.21993185304E+02  0.19931516758E+02  0.31886233752E+02  0.00000000000E+00 0. -1.
         11    1    3    3    0    0  0.17606075745E+02  0.14247434660E+01  0.53923727440E+01  0.18468391406E+02  0.51100000000E-03 0. -1.
        -11    1    3    3    0    0  0.51454541929E+01 -0.15225106362E+01  0.26627063129E+00  0.53725820421E+01  0.51100000000E-03 0.  1.
         12    1    3    3    0    0 -0.11099648424E+02 -0.21895418133E+02 -0.25590160133E+02  0.35460792800E+02  0.00000000000E+00 0. -1.
</event>
<event>
 7    1  0.3449603E-013  0.5930192E+02  0.7816164E-02  0.1266605E+00
        -11   -1    0    0    0    0  0.00000000000E+00  0.00000000000E+00  0.45593999997E+02  0.45594000000E+02  0.51100000000E-03 0.  1.
         11   -1    0    0    0    0 -0.00000000000E+00 -0.00000000000E+00 -0.45593999997E+02  0.45594000000E+02  0.51100000000E-03 0. -1.
    9900012    2    1    2    0    0  0.16252438987E+02 -0.13254471184E+02  0.24018730922E+02  0.59301918170E+02  0.49999952841E+02 0.  0.
         12    1    1    2    0    0 -0.16252438987E+02  0.13254471184E+02 -0.24018730922E+02  0.31886081830E+02  0.00000000000E+00 0. -1.
         11    1    3    3    0    0  0.25852624445E+01 -0.20774960577E+02  0.20342377082E+01  0.21033798806E+02  0.51100000000E-03 0. -1.
        -11    1    3    3    0    0  0.11489659870E+01 -0.27138509162E+01 -0.55804065663E+01  0.63107881712E+01  0.51100000000E-03 0.  1.
        -12    1    3    3    0    0  0.12518210556E+02  0.10234340309E+02  0.27564899780E+02  0.31957331193E+02  0.00000000000E+00 0.  1.
</event>
<event>
 7    1  0.3449603E-013  0.5930183E+02  0.7816164E-02  0.1266605E+00
        -11   -1    0    0    0    0  0.00000000000E+00  0.00000000000E+00  0.45593999997E+02  0.45594000000E+02  0.51100000000E-03 0. -1.
         11   -1    0    0    0    0 -0.00000000000E+00 -0.00000000000E+00 -0.45593999997E+02  0.45594000000E+02  0.51100000000E-03 0.  1.
    9900012    2    1    2    0    0 -0.16169662439E+02  0.21482812388E+02 -0.17139386593E+02  0.59301830832E+02  0.49999793557E+02 0.  0.
         12    1    1    2    0    0  0.16169662439E+02 -0.21482812388E+02  0.17139386593E+02  0.31886169168E+02  0.00000000000E+00 0. -1.
         11    1    3    3    0    0  0.75706168404E+01  0.17304831177E+02  0.87669873860E+00  0.18908728734E+02  0.51100000000E-03 0. -1.
        -11    1    3    3    0    0 -0.13337123468E+02 -0.68462652467E+00  0.53272971888E+01  0.14378027385E+02  0.51100000000E-03 0.  1.
        -12    1    3    3    0    0 -0.10403155811E+02  0.48626077357E+01 -0.23343382520E+02  0.26015074713E+02  0.00000000000E+00 0.  1.
</event>
<event>
 7    1  0.3449603E-013  0.5930192E+02  0.7816164E-02  0.1266605E+00
        -11   -1    0    0    0    0  0.00000000000E+00  0.00000000000E+00  0.45593999997E+02  0.45594000000E+02  0.51100000000E-03 0.  1.
         11   -1    0    0    0    0 -0.00000000000E+00 -0.00000000000E+00 -0.45593999997E+02  0.45594000000E+02  0.51100000000E-03 0. -1.
    9900012    2    1    2    0    0 -0.13046400989E+02  0.27953523998E+02  0.80693155826E+01  0.59301922527E+02  0.49999960788E+02 0.  0.
         12    1    1    2    0    0  0.13046400989E+02 -0.27953523998E+02 -0.80693155826E+01  0.31886077473E+02  0.00000000000E+00 0. -1.
         11    1    3    3    0    0 -0.30884865283E+01 -0.14884794149E+01  0.43805232628E+01  0.55626706105E+01  0.51100000000E-03 0. -1.
        -11    1    3    3    0    0 -0.10706647181E+02  0.29414197338E+01  0.19811297307E+02  0.22710608648E+02  0.51100000000E-03 0.  1.
         12    1    3    3    0    0  0.74873272094E+00  0.26500583679E+02 -0.16122504987E+02  0.31028643268E+02  0.00000000000E+00 0. -1.
</event>
<event>
 7    1  0.3449603E-013  0.5930198E+02  0.7816164E-02  0.1266605E+00
        -11   -1    0    0    0    0  0.00000000000E+00  0.00000000000E+00  0.45593999997E+02  0.45594000000E+02  0.51100000000E-03 0. -1.
         11   -1    0    0    0    0 -0.00000000000E+00 -0.00000000000E+00 -0.45593999997E+02  0.45594000000E+02  0.51100000000E-03 0.  1.
    9900012    2    1    2    0    0 -0.17310705993E+02 -0.26649675476E+02  0.26177398715E+01  0.59301979443E+02  0.50000064589E+02 0.  0.
         12    1    1    2    0    0  0.17310705993E+02  0.26649675476E+02 -0.26177398715E+01  0.31886020557E+02  0.00000000000E+00 0. -1.
         11    1    3    3    0    0 -0.21418069903E+02 -0.18734784837E+02  0.10106806435E+01  0.28473625636E+02  0.51100000000E-03 0. -1.
        -11    1    3    3    0    0 -0.27304843970E+01 -0.70596564877E+01 -0.12792882938E+02  0.14864459254E+02  0.51100000000E-03 0.  1.
        -12    1    3    3    0    0  0.68378483069E+01 -0.85523415134E+00  0.14399942166E+02  0.15963894554E+02  0.00000000000E+00 0.  1.
</event>
<event>
 7    1  0.3449603E-013  0.5930195E+02  0.7816164E-02  0.1266605E+00
        -11   -1    0    0    0    0  0.00000000000E+00  0.00000000000E+00  0.45593999997E+02  0.45594000000E+02  0.51100000000E-03 0. -1.
         11   -1    0    0    0    0 -0.00000000000E+00 -0.00000000000E+00 -0.45593999997E+02  0.45594000000E+02  0.51100000000E-03 0.  1.
    9900012    2    1    2    0    0 -0.61182014540E+01  0.15492744443E+02 -0.27189383414E+02  0.59301951486E+02  0.50000013603E+02 0.  0.
         12    1    1    2    0    0  0.61182014540E+01 -0.15492744443E+02  0.27189383414E+02  0.31886048514E+02  0.00000000000E+00 0. -1.
         11    1    3    3    0    0  0.80670524916E+01  0.86464074642E+01  0.97450426504E+00  0.11865384813E+02  0.51100000000E-03 0. -1.
        -11    1    3    3    0    0  0.57294094311E+01  0.26524394846E+01 -0.26246245938E+02  0.26994943855E+02  0.51100000000E-03 0.  1.
        -12    1    3    3    0    0 -0.19914663377E+02  0.41938974940E+01 -0.19176417412E+01  0.20441622818E+02  0.00000000000E+00 0.  1.
</event>
<event>
 7    1  0.3449603E-013  0.5930193E+02  0.7816164E-02  0.1266605E+00
        -11   -1    0    0    0    0  0.00000000000E+00  0.00000000000E+00  0.45593999997E+02  0.45594000000E+02  0.51100000000E-03 0.  1.
         11   -1    0    0    0    0 -0.00000000000E+00 -0.00000000000E+00 -0.45593999997E+02  0.45594000000E+02  0.51100000000E-03 0. -1.
    9900012    2    1    2    0    0  0.18729236039E+02  0.25800382823E+02  0.52650473886E+00  0.59301933393E+02  0.49999980604E+02 0.  0.
         12    1    1    2    0    0 -0.18729236039E+02 -0.25800382823E+02 -0.52650473886E+00  0.31886066607E+02  0.00000000000E+00 0. -1.
         11    1    3    3    0    0 -0.42799053881E+01 -0.87371692715E+01 -0.27480330210E+01  0.10109767690E+02  0.51100000000E-03 0. -1.
        -11    1    3    3    0    0  0.11029921487E+02  0.21580040524E+02 -0.10884507983E+02  0.26567458127E+02  0.51100000000E-03 0.  1.
         12    1    3    3    0    0  0.11979219941E+02  0.12957511571E+02  0.14159045743E+02  0.22624707575E+02  0.00000000000E+00 0. -1.
</event>
<event>
 7    1  0.3449603E-013  0.5930192E+02  0.7816164E-02  0.1266605E+00
        -11   -1    0    0    0    0  0.00000000000E+00  0.00000000000E+00  0.45593999997E+02  0.45594000000E+02  0.51100000000E-03 0.  1.
         11   -1    0    0    0    0 -0.00000000000E+00 -0.00000000000E+00 -0.45593999997E+02  0.45594000000E+02  0.51100000000E-03 0. -1.
    9900012    2    1    2    0    0  0.82901258907E+01  0.12450952713E+02  0.28159722669E+02  0.59301915393E+02  0.49999947778E+02 0.  0.
         12    1    1    2    0    0 -0.82901258907E+01 -0.12450952713E+02 -0.28159722669E+02  0.31886084607E+02  0.00000000000E+00 0. -1.
         11    1    3    3    0    0  0.54578376815E+01 -0.16126182251E+01  0.61113047996E+01  0.83508428504E+01  0.51100000000E-03 0. -1.
        -11    1    3    3    0    0  0.86135278117E+01 -0.12224118539E+02  0.18521963321E+02  0.23805147783E+02  0.51100000000E-03 0.  1.
         12    1    3    3    0    0 -0.57812396025E+01  0.26287689477E+02  0.35264545479E+01  0.27145924760E+02  0.00000000000E+00 0. -1.
</event>
<event>
 7    1  0.3449603E-013  0.5930200E+02  0.7816164E-02  0.1266605E+00
        -11   -1    0    0    0    0  0.00000000000E+00  0.00000000000E+00  0.45593999997E+02  0.45594000000E+02  0.51100000000E-03 0.  1.
         11   -1    0    0    0    0 -0.00000000000E+00 -0.00000000000E+00 -0.45593999997E+02  0.45594000000E+02  0.51100000000E-03 0. -1.
    9900012    2    1    2    0    0  0.27544319157E+02  0.11990817277E+01 -0.16018412096E+02  0.59302002432E+02  0.50000106515E+02 0.  0.
         12    1    1    2    0    0 -0.27544319157E+02 -0.11990817277E+01  0.16018412096E+02  0.31885997568E+02  0.00000000000E+00 0. -1.
         11    1    3    3    0    0  0.85806846944E+01 -0.11104514938E+02 -0.23922023227E+02  0.27734483903E+02  0.51100000000E-03 0. -1.
        -11    1    3    3    0    0  0.14045242756E+02 -0.25329128945E+01  0.52119826246E+00  0.14281321357E+02  0.51100000000E-03 0.  1.
        -12    1    3    3    0    0  0.49183917070E+01  0.14836509561E+02  0.73824128677E+01  0.17286197172E+02  0.00000000000E+00 0.  1.
</event>
<event>
 7    1  0.3449603E-013  0.5930193E+02  0.7816164E-02  0.1266605E+00
        -11   -1    0    0    0    0  0.00000000000E+00  0.00000000000E+00  0.45593999997E+02  0.45594000000E+02  0.51100000000E-03 0. -1.
         11   -1    0    0    0    0 -0.00000000000E+00 -0.00000000000E+00 -0.45593999997E+02  0.45594000000E+02  0.51100000000E-03 0.  1.
    9900012    2    1    2    0    0 -0.26604468150E+01  0.28741849296E+02  0.13548055054E+02  0.59301926646E+02  0.49999968299E+02 0.  0.
         12    1    1    2    0    0  0.26604468150E+01 -0.28741849296E+02 -0.13548055054E+02  0.31886073354E+02  0.00000000000E+00 0. -1.
         11    1    3    3    0    0 -0.19349157883E+02  0.14303924088E+02  0.75504619576E+01  0.25219072765E+02  0.51100000000E-03 0. -1.
        -11    1    3    3    0    0 -0.52500798731E+01  0.28653247835E+01 -0.41537906091E+01  0.72819915870E+01  0.51100000000E-03 0.  1.
         12    1    3    3    0    0  0.21938790941E+02  0.11572600425E+02  0.10151383705E+02  0.26800862293E+02  0.00000000000E+00 0. -1.
</event>
<event>
 7    1  0.3449603E-013  0.5930198E+02  0.7816164E-02  0.1266605E+00
        -11   -1    0    0    0    0  0.00000000000E+00  0.00000000000E+00  0.45593999997E+02  0.45594000000E+02  0.51100000000E-03 0. -1.
         11   -1    0    0    0    0 -0.00000000000E+00 -0.00000000000E+00 -0.45593999997E+02  0.45594000000E+02  0.51100000000E-03 0.  1.
    9900012    2    1    2    0    0  0.66277033429E+01 -0.30926817632E+02  0.40402911724E+01  0.59301977150E+02  0.50000060407E+02 0.  0.
         12    1    1    2    0    0 -0.66277033429E+01  0.30926817632E+02 -0.40402911724E+01  0.31886022850E+02  0.00000000000E+00 0. -1.
         11    1    3    3    0    0  0.21505556947E+02 -0.22080167203E+02  0.20767345640E+01  0.30892322510E+02  0.51100000000E-03 0. -1.
        -11    1    3    3    0    0 -0.18745235929E+01 -0.12978859532E+02 -0.37171842890E+01  0.13630190489E+02  0.51100000000E-03 0.  1.
         12    1    3    3    0    0 -0.13003330011E+02  0.41322091040E+01  0.56807408974E+01  0.14779464151E+02  0.00000000000E+00 0. -1.
</event>
<event>
 7    1  0.3449603E-013  0.5930195E+02  0.7816164E-02  0.1266605E+00
        -11   -1    0    0    0    0  0.00000000000E+00  0.00000000000E+00  0.45593999997E+02  0.45594000000E+02  0.51100000000E-03 0.  1.
         11   -1    0    0    0    0 -0.00000000000E+00 -0.00000000000E+00 -0.45593999997E+02  0.45594000000E+02  0.51100000000E-03 0. -1.
    9900012    2    1    2    0    0  0.21902851158E+02  0.29486759846E+01  0.22984573721E+02  0.59301949632E+02  0.50000010221E+02 0.  0.
         12    1    1    2    0    0 -0.21902851158E+02 -0.29486759846E+01 -0.22984573721E+02  0.31886050368E+02  0.00000000000E+00 0. -1.
         11    1    3    3    0    0  0.54558265486E+01 -0.71361615649E+01 -0.58668082012E+01  0.10728946078E+02  0.51100000000E-03 0. -1.
        -11    1    3    3    0    0  0.13129957752E+02 -0.63581655860E+01 -0.68638773281E+00  0.14604560540E+02  0.51100000000E-03 0.  1.
        -12    1    3    3    0    0  0.33170668578E+01  0.16443003136E+02  0.29537769655E+02  0.33968443015E+02  0.00000000000E+00 0.  1.
</event>
<event>
 7    1  0.3449603E-013  0.5930197E+02  0.7816164E-02  0.1266605E+00
        -11   -1    0    0    0    0  0.00000000000E+00  0.00000000000E+00  0.45593999997E+02  0.45594000000E+02  0.51100000000E-03 0.  1.
         11   -1    0    0    0    0 -0.00000000000E+00 -0.00000000000E+00 -0.45593999997E+02  0.45594000000E+02  0.51100000000E-03 0. -1.
    9900012    2    1    2    0    0  0.10493121043E+02  0.27025375430E+02  0.13275629832E+02  0.59301970868E+02  0.50000048951E+02 0.  0.
         12    1    1    2    0    0 -0.10493121043E+02 -0.27025375430E+02 -0.13275629832E+02  0.31886029132E+02  0.00000000000E+00 0. -1.
         11    1    3    3    0    0  0.41882578130E+01  0.66688776002E+01 -0.62408038110E+01  0.10048037839E+02  0.51100000000E-03 0. -1.
        -11    1    3    3    0    0  0.12887172134E+02  0.18765859437E+02 -0.54310643629E+01  0.23403699417E+02  0.51100000000E-03 0.  1.
        -12    1    3    3    0    0 -0.65823089043E+01  0.15906383924E+01  0.24947498006E+02  0.25850233611E+02  0.00000000000E+00 0.  1.
</event>
<event>
 7    1  0.3449603E-013  0.5930196E+02  0.7816164E-02  0.1266605E+00
        -11   -1    0    0    0    0  0.00000000000E+00  0.00000000000E+00  0.45593999997E+02  0.45594000000E+02  0.51100000000E-03 0.  1.
         11   -1    0    0    0    0 -0.00000000000E+00 -0.00000000000E+00 -0.45593999997E+02  0.45594000000E+02  0.51100000000E-03 0. -1.
    9900012    2    1    2    0    0 -0.57582165435E+01 -0.10888691137E+02  0.29410866902E+02  0.59301956904E+02  0.50000023483E+02 0.  0.
         12    1    1    2    0    0  0.57582165435E+01  0.10888691137E+02 -0.29410866902E+02  0.31886043096E+02  0.00000000000E+00 0. -1.
         11    1    3    3    0    0 -0.12630126599E+02  0.42902698533E+01  0.69730493372E+01  0.15051575686E+02  0.51100000000E-03 0. -1.
        -11    1    3    3    0    0  0.81411896893E+01 -0.97887625301E+01 -0.68404361942E+01  0.14453041514E+02  0.51100000000E-03 0.  1.
         12    1    3    3    0    0 -0.12692796340E+01 -0.53901984602E+01  0.29278253759E+02  0.29797339703E+02  0.00000000000E+00 0. -1.
</event>
<event>
 7    1  0.3449603E-013  0.5930197E+02  0.7816164E-02  0.1266605E+00
        -11   -1    0    0    0    0  0.00000000000E+00  0.00000000000E+00  0.45593999997E+02  0.45594000000E+02  0.51100000000E-03 0.  1.
         11   -1    0    0    0    0 -0.00000000000E+00 -0.00000000000E+00 -0.45593999997E+02  0.45594000000E+02  0.51100000000E-03 0. -1.
    9900012    2    1    2    0    0  0.11014042138E+02 -0.24210752263E+02  0.17585489876E+02  0.59301966952E+02  0.50000041807E+02 0.  0.
         12    1    1    2    0    0 -0.11014042138E+02  0.24210752263E+02 -0.17585489876E+02  0.31886033048E+02  0.00000000000E+00 0. -1.
         11    1    3    3    0    0 -0.13473889839E+02 -0.17295008807E+02  0.14441743156E+02  0.26253132817E+02  0.51100000000E-03 0. -1.
        -11    1    3    3    0    0  0.25586513670E+01 -0.92513665998E+01 -0.31716061367E+01  0.10109083367E+02  0.51100000000E-03 0.  1.
        -12    1    3    3    0    0  0.21929280611E+02  0.23356231435E+01  0.63153528567E+01  0.22939750768E+02  0.00000000000E+00 0.  1.
</event>
<event>
 7    1  0.3449603E-013  0.5930187E+02  0.7816164E-02  0.1266605E+00
        -11   -1    0    0    0    0  0.00000000000E+00  0.00000000000E+00  0.45593999997E+02  0.45594000000E+02  0.51100000000E-03 0.  1.
         11   -1    0    0    0    0 -0.00000000000E+00 -0.00000000000E+00 -0.45593999997E+02  0.45594000000E+02  0.51100000000E-03 0. -1.
    9900012    2    1    2    0    0 -0.25896870744E+02 -0.14960554500E+02  0.11057089963E+02  0.59301869101E+02  0.49999863351E+02 0.  0.
         12    1    1    2    0    0  0.25896870744E+02  0.14960554500E+02 -0.11057089963E+02  0.31886130899E+02  0.00000000000E+00 0. -1.
         11    1    3    3    0    0 -0.87527645515E+01  0.14505559572E+02 -0.59669124276E+01  0.17961798072E+02  0.51100000000E-03 0. -1.
        -11    1    3    3    0    0 -0.22692416709E+01 -0.11825169032E+02  0.13343636330E+02  0.17973222059E+02  0.51100000000E-03 0.  1.
        -12    1    3    3    0    0 -0.14874864522E+02 -0.17640945040E+02  0.36803660596E+01  0.23366848970E+02  0.00000000000E+00 0.  1.
</event>
<event>
 7    1  0.3449603E-013  0.5930198E+02  0.7816164E-02  0.1266605E+00
        -11   -1    0    0    0    0  0.00000000000E+00  0.00000000000E+00  0.45593999997E+02  0.45594000000E+02  0.51100000000E-03 0. -1.
         11   -1    0    0    0    0 -0.00000000000E+00 -0.00000000000E+00 -0.45593999997E+02  0.45594000000E+02  0.51100000000E-03 0.  1.
    9900012    2    1    2    0    0 -0.55338381480E+01  0.29933694705E+02 -0.94904644066E+01  0.59301978643E+02  0.50000063130E+02 0.  0.
         12    1    1    2    0    0  0.55338381480E+01 -0.29933694705E+02  0.94904644066E+01  0.31886021357E+02  0.00000000000E+00 0. -1.
         11    1    3    3    0    0  0.11059489594E+02  0.24261666442E+02 -0.11220136748E+01  0.26687069595E+02  0.51100000000E-03 0. -1.
        -11    1    3    3    0    0 -0.12647305178E+02  0.15711858953E+02 -0.83438278186E+01  0.21827420895E+02  0.51100000000E-03 0.  1.
        -12    1    3    3    0    0 -0.39460225636E+01 -0.10039830690E+02 -0.24622913270E-01  0.10787488153E+02  0.00000000000E+00 0.  1.
</event>
<event>
 7    1  0.3449603E-013  0.5930199E+02  0.7816164E-02  0.1266605E+00
        -11   -1    0    0    0    0  0.00000000000E+00  0.00000000000E+00  0.45593999997E+02  0.45594000000E+02  0.51100000000E-03 0. -1.
         11   -1    0    0    0    0 -0.00000000000E+00 -0.00000000000E+00 -0.45593999997E+02  0.45594000000E+02  0.51100000000E-03 0.  1.
    9900012    2    1    2    0    0  0.19994739385E+02 -0.21947301564E+02 -0.11629456798E+02  0.59301985598E+02  0.50000075815E+02 0.  0.
         12    1    1    2    0    0 -0.19994739385E+02  0.21947301564E+02  0.11629456798E+02  0.31886014402E+02  0.00000000000E+00 0. -1.
         11    1    3    3    0    0  0.11789735476E+02 -0.21833061549E+02 -0.13704035077E+02  0.28345740718E+02  0.51100000000E-03 0. -1.
        -11    1    3    3    0    0  0.16252793456E+02 -0.92566761444E+01  0.10558337844E+01  0.18733769872E+02  0.51100000000E-03 0.  1.
         12    1    3    3    0    0 -0.80477895474E+01  0.91424361296E+01  0.10187444951E+01  0.12222475008E+02  0.00000000000E+00 0. -1.
</event>
<event>
 7    1  0.3449603E-013  0.5930190E+02  0.7816164E-02  0.1266605E+00
        -11   -1    0    0    0    0  0.00000000000E+00  0.00000000000E+00  0.45593999997E+02  0.45594000000E+02  0.51100000000E-03 0.  1.
         11   -1    0    0    0    0 -0.00000000000E+00 -0.00000000000E+00 -0.45593999997E+02  0.45594000000E+02  0.51100000000E-03 0. -1.
    9900012    2    1    2    0    0 -0.17134065714E+01 -0.40954953707E+01  0.31575535221E+02  0.59301901635E+02  0.49999922687E+02 0.  0.
         12    1    1    2    0    0  0.17134065714E+01  0.40954953707E+01 -0.31575535221E+02  0.31886098365E+02  0.00000000000E+00 0. -1.
         11    1    3    3    0    0 -0.17388980321E+02 -0.17635810772E+01  0.11327047442E+02  0.20827598489E+02  0.51100000000E-03 0. -1.
        -11    1    3    3    0    0  0.67268431237E+01  0.97254246387E+01  0.20260561394E+02  0.23458999363E+02  0.51100000000E-03 0.  1.
         12    1    3    3    0    0  0.89487306258E+01 -0.12057338932E+02 -0.12073615426E-01  0.15015303783E+02  0.00000000000E+00 0. -1.
</event>
<event>
 7    1  0.3449603E-013  0.5930195E+02  0.7816164E-02  0.1266605E+00
        -11   -1    0    0    0    0  0.00000000000E+00  0.00000000000E+00  0.45593999997E+02  0.45594000000E+02  0.51100000000E-03 0.  1.
         11   -1    0    0    0    0 -0.00000000000E+00 -0.00000000000E+00 -0.45593999997E+02  0.45594000000E+02  0.51100000000E-03 0. -1.
    9900012    2    1    2    0    0  0.30746234607E+02  0.21146543670E+00  0.84465871392E+01  0.59301945141E+02  0.50000002031E+02 0.  0.
         12    1    1    2    0    0 -0.30746234607E+02 -0.21146543670E+00 -0.84465871392E+01  0.31886054859E+02  0.00000000000E+00 0. -1.
         11    1    3    3    0    0  0.13736584686E+00 -0.65733575451E+01 -0.52622135513E+01  0.84213294979E+01  0.51100000000E-03 0. -1.
        -11    1    3    3    0    0  0.29524101517E+02 -0.10748711420E+02  0.93345853681E+01  0.32777154420E+02  0.51100000000E-03 0.  1.
         12    1    3    3    0    0  0.10847672431E+01  0.17533534402E+02  0.43742153223E+01  0.18103461224E+02  0.00000000000E+00 0. -1.
</event>
<event>
 7    1  0.3449603E-013  0.5930194E+02  0.7816164E-02  0.1266605E+00
        -11   -1    0    0    0    0  0.00000000000E+00  0.00000000000E+00  0.45593999997E+02  0.45594000000E+02  0.51100000000E-03 0. -1.
         11   -1    0    0    0    0 -0.00000000000E+00 -0.00000000000E+00 -0.45593999997E+02  0.45594000000E+02  0.51100000000E-03 0.  1.
    9900012    2    1    2    0    0 -0.25210328163E+02 -0.55140157921E+01  0.18728469254E+02  0.59301943849E+02  0.49999999674E+02 0.  0.
         12    1    1    2    0    0  0.25210328163E+02  0.55140157921E+01 -0.18728469254E+02  0.31886056151E+02  0.00000000000E+00 0. -1.
         11    1    3    3    0    0 -0.12980851926E+02  0.96561757126E+01  0.43032031332E+01  0.16741021581E+02  0.51100000000E-03 0. -1.
        -11    1    3    3    0    0 -0.13409644964E+02  0.63150251391E+01 -0.26927823791E+01  0.15064833148E+02  0.51100000000E-03 0.  1.
         12    1    3    3    0    0  0.11801687268E+01 -0.21485216644E+02  0.17118048500E+02  0.27496089120E+02  0.00000000000E+00 0. -1.
</event>
<event>
 7    1  0.3449603E-013  0.5930195E+02  0.7816164E-02  0.1266605E+00
        -11   -1    0    0    0    0  0.00000000000E+00  0.00000000000E+00  0.45593999997E+02  0.45594000000E+02  0.51100000000E-03 0.  1.
         11   -1    0    0    0    0 -0.00000000000E+00 -0.00000000000E+00 -0.45593999997E+02  0.45594000000E+02  0.51100000000E-03 0. -1.
    9900012    2    1    2    0    0 -0.28126024481E+02 -0.98526791977E+00  0.14989198732E+02  0.59301951568E+02  0.50000013751E+02 0.  0.
         12    1    1    2    0    0  0.28126024481E+02  0.98526791977E+00 -0.14989198732E+02  0.31886048432E+02  0.00000000000E+00 0. -1.
         11    1    3    3    0    0 -0.10207769614E+02 -0.16405437024E+02  0.69841980731E+01  0.20545460507E+02  0.51100000000E-03 0.  1.
        -11    1    3    3    0    0 -0.97802199409E+01  0.10582953932E+02  0.19256945698E+02  0.24051643892E+02  0.51100000000E-03 0. -1.
         12    1    3    3    0    0 -0.81380349270E+01  0.48372151724E+01 -0.11251945039E+02  0.14704847169E+02  0.00000000000E+00 0. -1.
</event>
<event>
 7    1  0.3449603E-013  0.5930195E+02  0.7816164E-02  0.1266605E+00
        -11   -1    0    0    0    0  0.00000000000E+00  0.00000000000E+00  0.45593999997E+02  0.45594000000E+02  0.51100000000E-03 0. -1.
         11   -1    0    0    0    0 -0.00000000000E+00 -0.00000000000E+00 -0.45593999997E+02  0.45594000000E+02  0.51100000000E-03 0.  1.
    9900012    2    1    2    0    0  0.19330990050E+02 -0.12714618683E+02 -0.21940179601E+02  0.59301949986E+02  0.50000010867E+02 0.  0.
         12    1    1    2    0    0 -0.19330990050E+02  0.12714618683E+02  0.21940179601E+02  0.31886050014E+02  0.00000000000E+00 0. -1.
         11    1    3    3    0    0  0.46031195060E+01 -0.26969538533E+02 -0.17186420713E+02  0.32309716419E+02  0.51100000000E-03 0. -1.
        -11    1    3    3    0    0  0.18182460059E+01 -0.18086947098E+01 -0.58163259545E+01  0.63566534404E+01  0.51100000000E-03 0.  1.
        -12    1    3    3    0    0  0.12909624538E+02  0.16063614560E+02  0.10625670667E+01  0.20635580127E+02  0.00000000000E+00 0.  1.
</event>
<event>
 7    1  0.3449603E-013  0.5930197E+02  0.7816164E-02  0.1266605E+00
        -11   -1    0    0    0    0  0.00000000000E+00  0.00000000000E+00  0.45593999997E+02  0.45594000000E+02  0.51100000000E-03 0.  1.
         11   -1    0    0    0    0 -0.00000000000E+00 -0.00000000000E+00 -0.45593999997E+02  0.45594000000E+02  0.51100000000E-03 0. -1.
    9900012    2    1    2    0    0 -0.16467940964E+02  0.94760674842E+01  0.25607229524E+02  0.59301966405E+02  0.50000040811E+02 0.  0.
         12    1    1    2    0    0  0.16467940964E+02 -0.94760674842E+01 -0.25607229524E+02  0.31886033595E+02  0.00000000000E+00 0. -1.
         11    1    3    3    0    0 -0.20566894427E+02 -0.23657273096E+01  0.22605034149E+01  0.20825553727E+02  0.51100000000E-03 0. -1.
        -11    1    3    3    0    0 -0.11344532703E+02  0.46115233551E+00  0.76699420995E+01  0.13701791700E+02  0.51100000000E-03 0.  1.
         12    1    3    3    0    0  0.15443486166E+02  0.11380642458E+02  0.15676784009E+02  0.24774620978E+02  0.00000000000E+00 0. -1.
</event>
<event>
 7    1  0.3449603E-013  0.5930196E+02  0.7816164E-02  0.1266605E+00
        -11   -1    0    0    0    0  0.00000000000E+00  0.00000000000E+00  0.45593999997E+02  0.45594000000E+02  0.51100000000E-03 0. -1.
         11   -1    0    0    0    0 -0.00000000000E+00 -0.00000000000E+00 -0.45593999997E+02  0.45594000000E+02  0.51100000000E-03 0.  1.
    9900012    2    1    2    0    0  0.24865419502E+02 -0.29749130639E+01 -0.19737791814E+02  0.59301958847E+02  0.50000027026E+02 0.  0.
         12    1    1    2    0    0 -0.24865419502E+02  0.29749130639E+01  0.19737791814E+02  0.31886041153E+02  0.00000000000E+00 0. -1.
         11    1    3    3    0    0  0.61528621030E+01 -0.18034304472E+01  0.11727077848E+02  0.13365419131E+02  0.51100000000E-03 0. -1.
        -11    1    3    3    0    0  0.55766306851E+01 -0.22778541409E+01  0.45731676711E+01  0.75631535813E+01  0.51100000000E-03 0.  1.
        -12    1    3    3    0    0  0.13135926713E+02  0.11063715241E+01 -0.36038037333E+02  0.38373386134E+02  0.00000000000E+00 0.  1.
</event>
<event>
 7    1  0.3449603E-013  0.5930197E+02  0.7816164E-02  0.1266605E+00
        -11   -1    0    0    0    0  0.00000000000E+00  0.00000000000E+00  0.45593999997E+02  0.45594000000E+02  0.51100000000E-03 0. -1.
         11   -1    0    0    0    0 -0.00000000000E+00 -0.00000000000E+00 -0.45593999997E+02  0.45594000000E+02  0.51100000000E-03 0.  1.
    9900012    2    1    2    0    0  0.26815031202E+02  0.16010591529E+02 -0.64291276315E+01  0.59301974510E+02  0.50000055591E+02 0.  0.
         12    1    1    2    0    0 -0.26815031202E+02 -0.16010591529E+02  0.64291276315E+01  0.31886025490E+02  0.00000000000E+00 0. -1.
         11    1    3    3    0    0 -0.17145242365E+01  0.20635330514E+01  0.22282986243E+00  0.26921024164E+01  0.51100000000E-03 0. -1.
        -11    1    3    3    0    0  0.11161831210E+02  0.30208466568E+02 -0.13436622711E+01  0.32232644274E+02  0.51100000000E-03 0.  1.
        -12    1    3    3    0    0  0.17367724229E+02 -0.16261408090E+02 -0.53082952229E+01  0.24377227819E+02  0.00000000000E+00 0.  1.
</event>
<event>
 7    1  0.3449603E-013  0.5930195E+02  0.7816164E-02  0.1266605E+00
        -11   -1    0    0    0    0  0.00000000000E+00  0.00000000000E+00  0.45593999997E+02  0.45594000000E+02  0.51100000000E-03 0.  1.
         11   -1    0    0    0    0 -0.00000000000E+00 -0.00000000000E+00 -0.45593999997E+02  0.45594000000E+02  0.51100000000E-03 0. -1.
    9900012    2    1    2    0    0  0.46628120574E+01  0.29003606521E+02  0.12400372056E+02  0.59301949215E+02  0.50000009461E+02 0.  0.
         12    1    1    2    0    0 -0.46628120574E+01 -0.29003606521E+02 -0.12400372056E+02  0.31886050785E+02  0.00000000000E+00 0. -1.
         11    1    3    3    0    0 -0.13758745669E+02  0.24605355373E+01 -0.84446869431E+01  0.16330035375E+02  0.51100000000E-03 0. -1.
        -11    1    3    3    0    0  0.52510071156E+01 -0.13843174318E+01  0.76783506531E+01  0.94045988481E+01  0.51100000000E-03 0.  1.
        -12    1    3    3    0    0  0.13170550611E+02  0.27927388416E+02  0.13166708346E+02  0.33567314992E+02  0.00000000000E+00 0.  1.
</event>
<event>
 7    1  0.3449603E-013  0.5930195E+02  0.7816164E-02  0.1266605E+00
        -11   -1    0    0    0    0  0.00000000000E+00  0.00000000000E+00  0.45593999997E+02  0.45594000000E+02  0.51100000000E-03 0. -1.
         11   -1    0    0    0    0 -0.00000000000E+00 -0.00000000000E+00 -0.45593999997E+02  0.45594000000E+02  0.51100000000E-03 0.  1.
    9900012    2    1    2    0    0 -0.19672011386E+02  0.18753316521E+02 -0.16674692182E+02  0.59301948632E+02  0.50000008396E+02 0.  0.
         12    1    1    2    0    0  0.19672011386E+02 -0.18753316521E+02  0.16674692182E+02  0.31886051368E+02  0.00000000000E+00 0. -1.
         11    1    3    3    0    0 -0.92374777827E+01 -0.11522110890E+02 -0.83026010902E+01  0.16941759657E+02  0.51100000000E-03 0. -1.
        -11    1    3    3    0    0 -0.12698199677E+02  0.20169715114E+01 -0.50645911625E+01  0.13818919387E+02  0.51100000000E-03 0.  1.
        -12    1    3    3    0    0  0.22636660742E+01  0.28258455899E+02 -0.33074999297E+01  0.28541269588E+02  0.00000000000E+00 0.  1.
</event>
<event>
 7    1  0.3449603E-013  0.5930208E+02  0.7816164E-02  0.1266604E+00
        -11   -1    0    0    0    0  0.00000000000E+00  0.00000000000E+00  0.45593999997E+02  0.45594000000E+02  0.51100000000E-03 0. -1.
         11   -1    0    0    0    0 -0.00000000000E+00 -0.00000000000E+00 -0.45593999997E+02  0.45594000000E+02  0.51100000000E-03 0.  1.
    9900012    2    1    2    0    0  0.22867865294E+02  0.21712394746E+02 -0.47269794253E+01  0.59302083309E+02  0.50000254015E+02 0.  0.
         12    1    1    2    0    0 -0.22867865294E+02 -0.21712394746E+02  0.47269794253E+01  0.31885916691E+02  0.00000000000E+00 0. -1.
         11    1    3    3    0    0  0.49860563296E+01 -0.50335885784E+01  0.67008149267E+01  0.97518558562E+01  0.51100000000E-03 0. -1.
        -11    1    3    3    0    0 -0.56030625691E+01 -0.53812361875E+01 -0.50003933349E+01  0.92388282170E+01  0.51100000000E-03 0.  1.
        -12    1    3    3    0    0  0.23484871534E+02  0.32127219512E+02 -0.64274010170E+01  0.40311399236E+02  0.00000000000E+00 0.  1.
</event>
<event>
 7    1  0.3449603E-013  0.5930195E+02  0.7816164E-02  0.1266605E+00
        -11   -1    0    0    0    0  0.00000000000E+00  0.00000000000E+00  0.45593999997E+02  0.45594000000E+02  0.51100000000E-03 0. -1.
         11   -1    0    0    0    0 -0.00000000000E+00 -0.00000000000E+00 -0.45593999997E+02  0.45594000000E+02  0.51100000000E-03 0.  1.
    9900012    2    1    2    0    0  0.22747613772E+02 -0.21307252108E+02 -0.67280859451E+01  0.59301951872E+02  0.50000014306E+02 0.  0.
         12    1    1    2    0    0 -0.22747613772E+02  0.21307252108E+02  0.67280859451E+01  0.31886048128E+02  0.00000000000E+00 0. -1.
         11    1    3    3    0    0  0.11592992981E+02 -0.99976625364E+01 -0.91218613779E+01  0.17820187926E+02  0.51100000000E-03 0. -1.
        -11    1    3    3    0    0  0.22143090928E+02  0.37735072691E+01  0.37415320765E+01  0.22771800445E+02  0.51100000000E-03 0.  1.
         12    1    3    3    0    0 -0.10988470137E+02 -0.15083096841E+02 -0.13477566437E+01  0.18709963501E+02  0.00000000000E+00 0. -1.
</event>
<event>
 7    1  0.3449603E-013  0.5930195E+02  0.7816164E-02  0.1266605E+00
        -11   -1    0    0    0    0  0.00000000000E+00  0.00000000000E+00  0.45593999997E+02  0.45594000000E+02  0.51100000000E-03 0. -1.
         11   -1    0    0    0    0 -0.00000000000E+00 -0.00000000000E+00 -0.45593999997E+02  0.45594000000E+02  0.51100000000E-03 0.  1.
    9900012    2    1    2    0    0  0.11055334156E+02  0.27277023741E+02 -0.12266375532E+02  0.59301946526E+02  0.50000004556E+02 0.  0.
         12    1    1    2    0    0 -0.11055334156E+02 -0.27277023741E+02  0.12266375532E+02  0.31886053474E+02  0.00000000000E+00 0. -1.
         11    1    3    3    0    0  0.17971044051E+02  0.88252482389E+01 -0.79610557763E+01  0.21545807947E+02  0.51100000000E-03 0. -1.
        -11    1    3    3    0    0  0.98338106772E+01 -0.23326439993E+01 -0.44970550108E+01  0.11062032566E+02  0.51100000000E-03 0.  1.
         12    1    3    3    0    0 -0.16749520572E+02  0.20784419502E+02  0.19173525561E+00  0.26694106013E+02  0.00000000000E+00 0. -1.
</event>
<event>
 7    1  0.3449603E-013  0.5930195E+02  0.7816164E-02  0.1266605E+00
        -11   -1    0    0    0    0  0.00000000000E+00  0.00000000000E+00  0.45593999997E+02  0.45594000000E+02  0.51100000000E-03 0. -1.
         11   -1    0    0    0    0 -0.00000000000E+00 -0.00000000000E+00 -0.45593999997E+02  0.45594000000E+02  0.51100000000E-03 0.  1.
    9900012    2    1    2    0    0 -0.87144833581E+01 -0.30639380291E+02 -0.14163923320E+01  0.59301952705E+02  0.50000015826E+02 0.  0.
         12    1    1    2    0    0  0.87144833581E+01  0.30639380291E+02  0.14163923320E+01  0.31886047295E+02  0.00000000000E+00 0. -1.
         11    1    3    3    0    0  0.81654516864E+01 -0.18143797061E+02 -0.62522929448E+01  0.20855769954E+02  0.51100000000E-03 0. -1.
        -11    1    3    3    0    0 -0.33279374749E+01  0.18813296981E+01 -0.11933955705E+02  0.12531315505E+02  0.51100000000E-03 0.  1.
         12    1    3    3    0    0 -0.13551997570E+02 -0.14376912929E+02  0.16769856318E+02  0.25914867246E+02  0.00000000000E+00 0. -1.
</event>
<event>
 7    1  0.3449603E-013  0.5930190E+02  0.7816164E-02  0.1266605E+00
        -11   -1    0    0    0    0  0.00000000000E+00  0.00000000000E+00  0.45593999997E+02  0.45594000000E+02  0.51100000000E-03 0. -1.
         11   -1    0    0    0    0 -0.00000000000E+00 -0.00000000000E+00 -0.45593999997E+02  0.45594000000E+02  0.51100000000E-03 0.  1.
    9900012    2    1    2    0    0  0.89247232423E+01 -0.17653229093E+02 -0.25008728223E+02  0.59301895351E+02  0.49999911224E+02 0.  0.
         12    1    1    2    0    0 -0.89247232423E+01  0.17653229093E+02  0.25008728223E+02  0.31886104649E+02  0.00000000000E+00 0. -1.
         11    1    3    3    0    0  0.67436791304E+01  0.27586713814E+01 -0.21104744834E+02  0.22327062744E+02  0.51100000000E-03 0. -1.
        -11    1    3    3    0    0  0.44068533566E+01  0.67707179758E+01  0.33616224562E+01  0.87500562406E+01  0.51100000000E-03 0.  1.
        -12    1    3    3    0    0 -0.22258092446E+01 -0.27182618450E+02 -0.72656058456E+01  0.28224776366E+02  0.00000000000E+00 0.  1.
</event>
<event>
 7    1  0.3449603E-013  0.5930185E+02  0.7816164E-02  0.1266605E+00
        -11   -1    0    0    0    0  0.00000000000E+00  0.00000000000E+00  0.45593999997E+02  0.45594000000E+02  0.51100000000E-03 0. -1.
         11   -1    0    0    0    0 -0.00000000000E+00 -0.00000000000E+00 -0.45593999997E+02  0.45594000000E+02  0.51100000000E-03 0.  1.
    9900012    2    1    2    0    0 -0.27575701021E+02  0.69188671721E+01 -0.14437342527E+02  0.59301845183E+02  0.49999819731E+02 0.  0.
         12    1    1    2    0    0  0.27575701021E+02 -0.69188671721E+01  0.14437342527E+02  0.31886154817E+02  0.00000000000E+00 0. -1.
         11    1    3    3    0    0 -0.95399843264E+01 -0.56642907754E+01  0.15240086997E+02  0.18850881753E+02  0.51100000000E-03 0. -1.
        -11    1    3    3    0    0 -0.24853289098E+01 -0.14450602570E+01  0.12212782923E+01  0.31235524430E+01  0.51100000000E-03 0.  1.
        -12    1    3    3    0    0 -0.15550387785E+02  0.14028218204E+02 -0.30898707816E+02  0.37327410987E+02  0.00000000000E+00 0.  1.
</event>
<event>
 7    1  0.3449603E-013  0.5930192E+02  0.7816164E-02  0.1266605E+00
        -11   -1    0    0    0    0  0.00000000000E+00  0.00000000000E+00  0.45593999997E+02  0.45594000000E+02  0.51100000000E-03 0.  1.
         11   -1    0    0    0    0 -0.00000000000E+00 -0.00000000000E+00 -0.45593999997E+02  0.45594000000E+02  0.51100000000E-03 0. -1.
    9900012    2    1    2    0    0 -0.16099189425E+02 -0.17704345309E+02  0.21073549574E+02  0.59301917854E+02  0.49999952266E+02 0.  0.
         12    1    1    2    0    0  0.16099189425E+02  0.17704345309E+02 -0.21073549574E+02  0.31886082146E+02  0.00000000000E+00 0. -1.
         11    1    3    3    0    0  0.30649518955E+01 -0.92368803563E+01  0.25133870936E+02  0.26952279260E+02  0.51100000000E-03 0. -1.
        -11    1    3    3    0    0 -0.10653196444E+02 -0.73631852993E+01  0.96669364826E+01  0.16160345090E+02  0.51100000000E-03 0.  1.
         12    1    3    3    0    0 -0.85109448763E+01 -0.11042796538E+01 -0.13727257844E+02  0.16189293504E+02  0.00000000000E+00 0. -1.
</event>
<event>
 7    1  0.3449603E-013  0.5930197E+02  0.7816164E-02  0.1266605E+00
        -11   -1    0    0    0    0  0.00000000000E+00  0.00000000000E+00  0.45593999997E+02  0.45594000000E+02  0.51100000000E-03 0.  1.
         11   -1    0    0    0    0 -0.00000000000E+00 -0.00000000000E+00 -0.45593999997E+02  0.45594000000E+02  0.51100000000E-03 0. -1.
    9900012    2    1    2    0    0 -0.20452986343E+02  0.41546403956E+01  0.24106710659E+02  0.59301965659E+02  0.50000039451E+02 0.  0.
         12    1    1    2    0    0  0.20452986343E+02 -0.41546403956E+01 -0.24106710659E+02  0.31886034341E+02  0.00000000000E+00 0. -1.
         11    1    3    3    0    0 -0.10904703575E+02  0.14869147373E+02  0.18859554144E+00  0.18440164647E+02  0.51100000000E-03 0. -1.
        -11    1    3    3    0    0  0.52793041139E+01  0.56768004834E+01 -0.69224010706E+00  0.77830785864E+01  0.51100000000E-03 0.  1.
        -12    1    3    3    0    0 -0.14827586882E+02 -0.16391307461E+02  0.24610355225E+02  0.33078722426E+02  0.00000000000E+00 0.  1.
</event>
<event>
 7    1  0.3449603E-013  0.5930197E+02  0.7816164E-02  0.1266605E+00
        -11   -1    0    0    0    0  0.00000000000E+00  0.00000000000E+00  0.45593999997E+02  0.45594000000E+02  0.51100000000E-03 0. -1.
         11   -1    0    0    0    0 -0.00000000000E+00 -0.00000000000E+00 -0.45593999997E+02  0.45594000000E+02  0.51100000000E-03 0.  1.
    9900012    2    1    2    0    0 -0.28303261465E+00  0.18654451882E+02 -0.25858269505E+02  0.59301971959E+02  0.50000050939E+02 0.  0.
         12    1    1    2    0    0  0.28303261465E+00 -0.18654451882E+02  0.25858269505E+02  0.31886028041E+02  0.00000000000E+00 0. -1.
         11    1    3    3    0    0  0.71926398440E+00 -0.87474448730E+01 -0.79473572508E+01  0.11840423135E+02  0.51100000000E-03 0. -1.
        -11    1    3    3    0    0  0.10714000910E+02  0.50076152225E+01  0.54709660084E+01  0.13030636786E+02  0.51100000000E-03 0.  1.
        -12    1    3    3    0    0 -0.11716297509E+02  0.22394281532E+02 -0.23381878263E+02  0.34430912038E+02  0.00000000000E+00 0.  1.
</event>
<event>
 7    1  0.3449603E-013  0.5930190E+02  0.7816164E-02  0.1266605E+00
        -11   -1    0    0    0    0  0.00000000000E+00  0.00000000000E+00  0.45593999997E+02  0.45594000000E+02  0.51100000000E-03 0.  1.
         11   -1    0    0    0    0 -0.00000000000E+00 -0.00000000000E+00 -0.45593999997E+02  0.45594000000E+02  0.51100000000E-03 0. -1.
    9900012    2    1    2    0    0 -0.23782714693E+02 -0.20899996771E+02 -0.37809912674E+01  0.59301901490E+02  0.49999922422E+02 0.  0.
         12    1    1    2    0    0  0.23782714693E+02  0.20899996771E+02  0.37809912674E+01  0.31886098510E+02  0.00000000000E+00 0. -1.
         11    1    3    3    0    0 -0.16272352186E+00 -0.82814868631E+01  0.20083428830E+01  0.85230830692E+01  0.51100000000E-03 0.  1.
        -11    1    3    3    0    0 -0.83874611676E+00 -0.22602745797E+02 -0.11328099358E+02  0.25296510588E+02  0.51100000000E-03 0. -1.
        -12    1    3    3    0    0 -0.22781245054E+02  0.99842358885E+01  0.55387652074E+01  0.25482307833E+02  0.00000000000E+00 0.  1.
</event>
<event>
 7    1  0.3449603E-013  0.5930194E+02  0.7816164E-02  0.1266605E+00
        -11   -1    0    0    0    0  0.00000000000E+00  0.00000000000E+00  0.45593999997E+02  0.45594000000E+02  0.51100000000E-03 0.  1.
         11   -1    0    0    0    0 -0.00000000000E+00 -0.00000000000E+00 -0.45593999997E+02  0.45594000000E+02  0.51100000000E-03 0. -1.
    9900012    2    1    2    0    0 -0.29901240518E+02  0.10485911161E+02  0.35612351126E+01  0.59301938579E+02  0.49999990064E+02 0.  0.
         12    1    1    2    0    0  0.29901240518E+02 -0.10485911161E+02 -0.35612351126E+01  0.31886061421E+02  0.00000000000E+00 0. -1.
         11    1    3    3    0    0 -0.36840322608E+00 -0.22049552536E+01 -0.72367766953E+01  0.75741986907E+01  0.51100000000E-03 0. -1.
        -11    1    3    3    0    0 -0.16179049790E+02 -0.77029953799E+01  0.18895538842E+02  0.26041105551E+02  0.51100000000E-03 0.  1.
         12    1    3    3    0    0 -0.13353787502E+02  0.20393861795E+02 -0.80975270337E+01  0.25686634338E+02  0.00000000000E+00 0. -1.
</event>
<event>
 7    1  0.4234744E-013  0.5930197E+02  0.7816164E-02  0.1266605E+00
        -11   -1    0    0    0    0  0.00000000000E+00  0.00000000000E+00  0.45593999997E+02  0.45594000000E+02  0.51100000000E-03 0. -1.
         11   -1    0    0    0    0 -0.00000000000E+00 -0.00000000000E+00 -0.45593999997E+02  0.45594000000E+02  0.51100000000E-03 0.  1.
    9900012    2    1    2    0    0  0.14910517152E+01 -0.21822420103E+02 -0.23200817280E+02  0.59301965803E+02  0.50000039712E+02 0.  0.
         12    1    1    2    0    0 -0.14910517152E+01  0.21822420103E+02  0.23200817280E+02  0.31886034197E+02  0.00000000000E+00 0. -1.
         11    1    3    3    0    0  0.77186519552E+01 -0.19273593156E+02  0.32394010726E+01  0.21012917473E+02  0.51100000000E-03 0. -1.
        -11    1    3    3    0    0  0.64567227866E+01 -0.10098986812E+02 -0.16877405616E+02  0.20700860474E+02  0.51100000000E-03 0.  1.
         12    1    3    3    0    0 -0.12684323027E+02  0.75501598645E+01 -0.95628127362E+01  0.17588187856E+02  0.00000000000E+00 0. -1.
</event>
<event>
 7    1  0.3449603E-013  0.5930192E+02  0.7816164E-02  0.1266605E+00
        -11   -1    0    0    0    0  0.00000000000E+00  0.00000000000E+00  0.45593999997E+02  0.45594000000E+02  0.51100000000E-03 0. -1.
         11   -1    0    0    0    0 -0.00000000000E+00 -0.00000000000E+00 -0.45593999997E+02  0.45594000000E+02  0.51100000000E-03 0.  1.
    9900012    2    1    2    0    0 -0.68550813911E+01  0.21265464733E+02 -0.22748839744E+02  0.59301924028E+02  0.49999963525E+02 0.  0.
         12    1    1    2    0    0  0.68550813911E+01 -0.21265464733E+02  0.22748839744E+02  0.31886075972E+02  0.00000000000E+00 0. -1.
         11    1    3    3    0    0 -0.10689073662E+01  0.16765267975E+01  0.23883652980E+01  0.31076669896E+01  0.51100000000E-03 0.  1.
        -11    1    3    3    0    0 -0.62070681610E+01  0.27375698088E+02  0.18222367804E+01  0.28129647849E+02  0.51100000000E-03 0. -1.
        -12    1    3    3    0    0  0.42089413612E+00 -0.77867601532E+01 -0.26959441823E+02  0.28064609189E+02  0.00000000000E+00 0.  1.
</event>
<event>
 7    1  0.3449603E-013  0.5930194E+02  0.7816164E-02  0.1266605E+00
        -11   -1    0    0    0    0  0.00000000000E+00  0.00000000000E+00  0.45593999997E+02  0.45594000000E+02  0.51100000000E-03 0.  1.
         11   -1    0    0    0    0 -0.00000000000E+00 -0.00000000000E+00 -0.45593999997E+02  0.45594000000E+02  0.51100000000E-03 0. -1.
    9900012    2    1    2    0    0  0.13306727850E+02 -0.21357668925E+02  0.19583208703E+02  0.59301935786E+02  0.49999984968E+02 0.  0.
         12    1    1    2    0    0 -0.13306727850E+02  0.21357668925E+02 -0.19583208703E+02  0.31886064214E+02  0.00000000000E+00 0. -1.
         11    1    3    3    0    0  0.62401026086E+00 -0.53161313966E+01  0.28048089929E+01  0.60429790319E+01  0.51100000000E-03 0. -1.
        -11    1    3    3    0    0 -0.99239392402E+01  0.40425878239E+01  0.20159914142E+02  0.22830883137E+02  0.51100000000E-03 0.  1.
         12    1    3    3    0    0  0.22606656830E+02 -0.20084125352E+02 -0.33815144319E+01  0.30428073617E+02  0.00000000000E+00 0. -1.
</event>
<event>
 7    1  0.3449603E-013  0.5930195E+02  0.7816164E-02  0.1266605E+00
        -11   -1    0    0    0    0  0.00000000000E+00  0.00000000000E+00  0.45593999997E+02  0.45594000000E+02  0.51100000000E-03 0. -1.
         11   -1    0    0    0    0 -0.00000000000E+00 -0.00000000000E+00 -0.45593999997E+02  0.45594000000E+02  0.51100000000E-03 0.  1.
    9900012    2    1    2    0    0  0.29739470683E+02 -0.11501299110E+02 -0.64000412845E-01  0.59301951424E+02  0.50000013489E+02 0.  0.
         12    1    1    2    0    0 -0.29739470683E+02  0.11501299110E+02  0.64000412845E-01  0.31886048576E+02  0.00000000000E+00 0. -1.
         11    1    3    3    0    0 -0.77110951506E+01  0.87776005632E+00 -0.81312485638E+01  0.11240491742E+02  0.51100000000E-03 0. -1.
        -11    1    3    3    0    0  0.28466505067E+01  0.16477860425E+01 -0.70492170207E+01  0.77788224569E+01  0.51100000000E-03 0.  1.
         12    1    3    3    0    0  0.34603915327E+02 -0.14026845209E+02  0.15116465172E+02  0.40282637225E+02  0.00000000000E+00 0. -1.
</event>
<event>
 7    1  0.3449603E-013  0.5930195E+02  0.7816164E-02  0.1266605E+00
        -11   -1    0    0    0    0  0.00000000000E+00  0.00000000000E+00  0.45593999997E+02  0.45594000000E+02  0.51100000000E-03 0.  1.
         11   -1    0    0    0    0 -0.00000000000E+00 -0.00000000000E+00 -0.45593999997E+02  0.45594000000E+02  0.51100000000E-03 0. -1.
    9900012    2    1    2    0    0 -0.12655534942E+02 -0.18900431031E+02  0.22345716825E+02  0.59301954177E+02  0.50000018510E+02 0.  0.
         12    1    1    2    0    0  0.12655534942E+02  0.18900431031E+02 -0.22345716825E+02  0.31886045823E+02  0.00000000000E+00 0. -1.
         11    1    3    3    0    0  0.14837561515E+01  0.63388116017E+01  0.16127332687E+02  0.17391748754E+02  0.51100000000E-03 0. -1.
        -11    1    3    3    0    0  0.86679117336E+01 -0.34391773342E+01  0.43905544234E+01  0.10307162702E+02  0.51100000000E-03 0.  1.
        -12    1    3    3    0    0 -0.22807202827E+02 -0.21800065298E+02  0.18278297142E+01  0.31603042721E+02  0.00000000000E+00 0.  1.
</event>
<event>
 7    1  0.3449603E-013  0.5930194E+02  0.7816164E-02  0.1266605E+00
        -11   -1    0    0    0    0  0.00000000000E+00  0.00000000000E+00  0.45593999997E+02  0.45594000000E+02  0.51100000000E-03 0.  1.
         11   -1    0    0    0    0 -0.00000000000E+00 -0.00000000000E+00 -0.45593999997E+02  0.45594000000E+02  0.51100000000E-03 0. -1.
    9900012    2    1    2    0    0 -0.14863460617E+01 -0.30386678452E+02  0.95478500738E+01  0.59301938892E+02  0.49999990634E+02 0.  0.
         12    1    1    2    0    0  0.14863460617E+01  0.30386678452E+02 -0.95478500738E+01  0.31886061108E+02  0.00000000000E+00 0. -1.
         11    1    3    3    0    0  0.11372457225E+02  0.41451543684E+01  0.11406617093E+02  0.16632077496E+02  0.51100000000E-03 0. -1.
        -11    1    3    3    0    0  0.83206569950E+00  0.27261180533E+01 -0.80640256401E+00  0.29621509626E+01  0.51100000000E-03 0.  1.
        -12    1    3    3    0    0 -0.13690868986E+02 -0.37257950873E+02 -0.10523644556E+01  0.39707710433E+02  0.00000000000E+00 0.  1.
</event>
<event>
 7    1  0.3449603E-013  0.5930196E+02  0.7816164E-02  0.1266605E+00
        -11   -1    0    0    0    0  0.00000000000E+00  0.00000000000E+00  0.45593999997E+02  0.45594000000E+02  0.51100000000E-03 0.  1.
         11   -1    0    0    0    0 -0.00000000000E+00 -0.00000000000E+00 -0.45593999997E+02  0.45594000000E+02  0.51100000000E-03 0. -1.
    9900012    2    1    2    0    0  0.15176289052E+00 -0.31881984941E+02  0.48504757659E+00  0.59301964390E+02  0.50000037136E+02 0.  0.
         12    1    1    2    0    0 -0.15176289052E+00  0.31881984941E+02 -0.48504757659E+00  0.31886035610E+02  0.00000000000E+00 0. -1.
         11    1    3    3    0    0 -0.16815815818E+02 -0.14677749013E+02 -0.27732116232E+01  0.22492191549E+02  0.51100000000E-03 0. -1.
        -11    1    3    3    0    0  0.82036951136E+01 -0.18354788528E+02  0.12775987150E+02  0.23820678482E+02  0.51100000000E-03 0.  1.
        -12    1    3    3    0    0  0.87638835948E+01  0.11505525990E+01 -0.95177279500E+01  0.12989094359E+02  0.00000000000E+00 0.  1.
</event>
<event>
 7    1  0.3449603E-013  0.5930201E+02  0.7816164E-02  0.1266605E+00
        -11   -1    0    0    0    0  0.00000000000E+00  0.00000000000E+00  0.45593999997E+02  0.45594000000E+02  0.51100000000E-03 0.  1.
         11   -1    0    0    0    0 -0.00000000000E+00 -0.00000000000E+00 -0.45593999997E+02  0.45594000000E+02  0.51100000000E-03 0. -1.
    9900012    2    1    2    0    0  0.25878369632E+02 -0.15911721519E+02 -0.96872942540E+01  0.59302006735E+02  0.50000114363E+02 0.  0.
         12    1    1    2    0    0 -0.25878369632E+02  0.15911721519E+02  0.96872942540E+01  0.31885993265E+02  0.00000000000E+00 0. -1.
         11    1    3    3    0    0 -0.59732485539E+00  0.88635894958E+01 -0.14344303773E+02  0.16872435115E+02  0.51100000000E-03 0. -1.
        -11    1    3    3    0    0  0.20473655338E-01  0.28953846365E+00  0.59559081774E+01  0.59629769554E+01  0.51100000000E-03 0.  1.
        -12    1    3    3    0    0  0.26455220832E+02 -0.25064849479E+02 -0.12988986587E+01  0.36466594664E+02  0.00000000000E+00 0.  1.
</event>
<event>
 7    1  0.3449603E-013  0.5930195E+02  0.7816164E-02  0.1266605E+00
        -11   -1    0    0    0    0  0.00000000000E+00  0.00000000000E+00  0.45593999997E+02  0.45594000000E+02  0.51100000000E-03 0. -1.
         11   -1    0    0    0    0 -0.00000000000E+00 -0.00000000000E+00 -0.45593999997E+02  0.45594000000E+02  0.51100000000E-03 0.  1.
    9900012    2    1    2    0    0  0.29645019410E+01 -0.26923939338E+02  0.16823588069E+02  0.59301954514E+02  0.50000019125E+02 0.  0.
         12    1    1    2    0    0 -0.29645019410E+01  0.26923939338E+02 -0.16823588069E+02  0.31886045486E+02  0.00000000000E+00 0. -1.
         11    1    3    3    0    0 -0.13829484706E+01  0.41663597814E+01  0.42708194403E+01  0.61246223764E+01  0.51100000000E-03 0. -1.
        -11    1    3    3    0    0 -0.72772913290E+01 -0.17149742164E+01  0.19453326847E+02  0.20840634140E+02  0.51100000000E-03 0.  1.
        -12    1    3    3    0    0  0.11624741741E+02 -0.29375324903E+02 -0.69005582189E+01  0.32336697998E+02  0.00000000000E+00 0.  1.
</event>
<event>
 7    1  0.3449603E-013  0.5930195E+02  0.7816164E-02  0.1266605E+00
        -11   -1    0    0    0    0  0.00000000000E+00  0.00000000000E+00  0.45593999997E+02  0.45594000000E+02  0.51100000000E-03 0. -1.
         11   -1    0    0    0    0 -0.00000000000E+00 -0.00000000000E+00 -0.45593999997E+02  0.45594000000E+02  0.51100000000E-03 0.  1.
    9900012    2    1    2    0    0  0.12955626677E+02  0.13386375716E+02 -0.25878118371E+02  0.59301947754E+02  0.50000006796E+02 0.  0.
         12    1    1    2    0    0 -0.12955626677E+02 -0.13386375716E+02  0.25878118371E+02  0.31886052246E+02  0.00000000000E+00 0. -1.
         11    1    3    3    0    0 -0.37447289211E+01 -0.82259463089E+01  0.81431388153E+01  0.12165520844E+02  0.51100000000E-03 0. -1.
        -11    1    3    3    0    0  0.33123358054E+01 -0.29782812405E+01 -0.64714431984E+01  0.78562907893E+01  0.51100000000E-03 0.  1.
        -12    1    3    3    0    0  0.13388019793E+02  0.24590603266E+02 -0.27549813988E+02  0.39280136121E+02  0.00000000000E+00 0.  1.
</event>
<event>
 7    1  0.3449603E-013  0.5930194E+02  0.7816164E-02  0.1266605E+00
        -11   -1    0    0    0    0  0.00000000000E+00  0.00000000000E+00  0.45593999997E+02  0.45594000000E+02  0.51100000000E-03 0.  1.
         11   -1    0    0    0    0 -0.00000000000E+00 -0.00000000000E+00 -0.45593999997E+02  0.45594000000E+02  0.51100000000E-03 0. -1.
    9900012    2    1    2    0    0 -0.23147497192E+02 -0.14423249861E+02  0.16519195489E+02  0.59301943763E+02  0.49999999516E+02 0.  0.
         12    1    1    2    0    0  0.23147497192E+02  0.14423249861E+02 -0.16519195489E+02  0.31886056237E+02  0.00000000000E+00 0. -1.
         11    1    3    3    0    0 -0.26592432821E+02 -0.15688133853E+02  0.14289449164E+02  0.34021513559E+02  0.51100000000E-03 0. -1.
        -11    1    3    3    0    0 -0.45167935088E+00  0.28633007157E+01 -0.11010903529E+02  0.11386066135E+02  0.51100000000E-03 0.  1.
        -12    1    3    3    0    0  0.38966149807E+01 -0.15984167234E+01  0.13240649854E+02  0.13894364069E+02  0.00000000000E+00 0.  1.
</event>
<event>
 7    1  0.3449603E-013  0.5930196E+02  0.7816164E-02  0.1266605E+00
        -11   -1    0    0    0    0  0.00000000000E+00  0.00000000000E+00  0.45593999997E+02  0.45594000000E+02  0.51100000000E-03 0.  1.
         11   -1    0    0    0    0 -0.00000000000E+00 -0.00000000000E+00 -0.45593999997E+02  0.45594000000E+02  0.51100000000E-03 0. -1.
    9900012    2    1    2    0    0  0.17668289982E+01  0.18107881068E+02  0.26185926349E+02  0.59301956341E+02  0.50000022456E+02 0.  0.
         12    1    1    2    0    0 -0.17668289982E+01 -0.18107881068E+02 -0.26185926349E+02  0.31886043659E+02  0.00000000000E+00 0. -1.
         11    1    3    3    0    0 -0.75776015921E-01  0.25019837791E+02  0.33692409774E+02  0.41966373464E+02  0.51100000000E-03 0. -1.
        -11    1    3    3    0    0 -0.21341534246E+01  0.35949408062E+01 -0.81484878238E+00  0.42593648634E+01  0.51100000000E-03 0.  1.
        -12    1    3    3    0    0  0.39767584387E+01 -0.10506897529E+02 -0.66916346425E+01  0.13076218014E+02  0.00000000000E+00 0.  1.
</event>
<event>
 7    1  0.3449603E-013  0.5930194E+02  0.7816164E-02  0.1266605E+00
        -11   -1    0    0    0    0  0.00000000000E+00  0.00000000000E+00  0.45593999997E+02  0.45594000000E+02  0.51100000000E-03 0.  1.
         11   -1    0    0    0    0 -0.00000000000E+00 -0.00000000000E+00 -0.45593999997E+02  0.45594000000E+02  0.51100000000E-03 0. -1.
    9900012    2    1    2    0    0  0.17037189894E+02 -0.20802774434E+02  0.17137667647E+02  0.59301938530E+02  0.49999989974E+02 0.  0.
         12    1    1    2    0    0 -0.17037189894E+02  0.20802774434E+02 -0.17137667647E+02  0.31886061470E+02  0.00000000000E+00 0. -1.
         11    1    3    3    0    0 -0.86155471213E+01  0.10295645070E+01  0.90350316324E+01  0.12526749464E+02  0.51100000000E-03 0. -1.
        -11    1    3    3    0    0  0.55268330781E+01 -0.12036320836E+01  0.15935551957E+02  0.16909654949E+02  0.51100000000E-03 0.  1.
        -12    1    3    3    0    0  0.20125903938E+02 -0.20628706858E+02 -0.78329159429E+01  0.29865534117E+02  0.00000000000E+00 0.  1.
</event>
<event>
 7    1  0.3449603E-013  0.5930195E+02  0.7816164E-02  0.1266605E+00
        -11   -1    0    0    0    0  0.00000000000E+00  0.00000000000E+00  0.45593999997E+02  0.45594000000E+02  0.51100000000E-03 0. -1.
         11   -1    0    0    0    0 -0.00000000000E+00 -0.00000000000E+00 -0.45593999997E+02  0.45594000000E+02  0.51100000000E-03 0.  1.
    9900012    2    1    2    0    0  0.44946323372E+01  0.27946068203E+02 -0.14681141361E+02  0.59301947257E+02  0.50000005890E+02 0.  0.
         12    1    1    2    0    0 -0.44946323372E+01 -0.27946068203E+02  0.14681141361E+02  0.31886052743E+02  0.00000000000E+00 0. -1.
         11    1    3    3    0    0 -0.10859573378E+01  0.11077629945E+02  0.69483794357E+01  0.13121477264E+02  0.51100000000E-03 0. -1.
        -11    1    3    3    0    0 -0.11153175596E+02 -0.56726390385E+01 -0.45206457762E+01  0.13304450309E+02  0.51100000000E-03 0.  1.
        -12    1    3    3    0    0  0.16733765271E+02  0.22541077296E+02 -0.17108875020E+02  0.32876019684E+02  0.00000000000E+00 0.  1.
</event>
<event>
 7    1  0.3449603E-013  0.5930193E+02  0.7816164E-02  0.1266605E+00
        -11   -1    0    0    0    0  0.00000000000E+00  0.00000000000E+00  0.45593999997E+02  0.45594000000E+02  0.51100000000E-03 0.  1.
         11   -1    0    0    0    0 -0.00000000000E+00 -0.00000000000E+00 -0.45593999997E+02  0.45594000000E+02  0.51100000000E-03 0. -1.
    9900012    2    1    2    0    0  0.24486614521E+02 -0.19384414625E+02 -0.64320997863E+01  0.59301925787E+02  0.49999966733E+02 0.  0.
         12    1    1    2    0    0 -0.24486614521E+02  0.19384414625E+02  0.64320997863E+01  0.31886074213E+02  0.00000000000E+00 0. -1.
         11    1    3    3    0    0 -0.75861568264E+01 -0.64194822645E+01 -0.84382090610E+01  0.13036982026E+02  0.51100000000E-03 0. -1.
        -11    1    3    3    0    0 -0.45406734215E+01 -0.70752125882E+01 -0.28218055531E+01  0.88678596701E+01  0.51100000000E-03 0.  1.
        -12    1    3    3    0    0  0.36613444769E+02 -0.58897197725E+01  0.48279148278E+01  0.37397084090E+02  0.00000000000E+00 0.  1.
</event>
<event>
 7    1  0.3449603E-013  0.5930200E+02  0.7816164E-02  0.1266605E+00
        -11   -1    0    0    0    0  0.00000000000E+00  0.00000000000E+00  0.45593999997E+02  0.45594000000E+02  0.51100000000E-03 0. -1.
         11   -1    0    0    0    0 -0.00000000000E+00 -0.00000000000E+00 -0.45593999997E+02  0.45594000000E+02  0.51100000000E-03 0.  1.
    9900012    2    1    2    0    0  0.15291765478E+02 -0.16933300104E+01 -0.27928685527E+02  0.59302000985E+02  0.50000103875E+02 0.  0.
         12    1    1    2    0    0 -0.15291765478E+02  0.16933300104E+01  0.27928685527E+02  0.31885999015E+02  0.00000000000E+00 0. -1.
         11    1    3    3    0    0  0.12611868583E+02  0.14937194726E+02 -0.32773849715E+02  0.38161554486E+02  0.51100000000E-03 0.  1.
        -11    1    3    3    0    0 -0.31905995450E+01 -0.71984856657E+00  0.22832316507E+01  0.39888913807E+01  0.51100000000E-03 0. -1.
        -12    1    3    3    0    0  0.58704964396E+01 -0.15910676170E+02  0.25619325369E+01  0.17151555118E+02  0.00000000000E+00 0.  1.
</event>
<event>
 7    1  0.3449603E-013  0.5930194E+02  0.7816164E-02  0.1266605E+00
        -11   -1    0    0    0    0  0.00000000000E+00  0.00000000000E+00  0.45593999997E+02  0.45594000000E+02  0.51100000000E-03 0. -1.
         11   -1    0    0    0    0 -0.00000000000E+00 -0.00000000000E+00 -0.45593999997E+02  0.45594000000E+02  0.51100000000E-03 0.  1.
    9900012    2    1    2    0    0  0.23069426944E+02 -0.20275601528E+02  0.85686823808E+01  0.59301940435E+02  0.49999993447E+02 0.  0.
         12    1    1    2    0    0 -0.23069426944E+02  0.20275601528E+02 -0.85686823808E+01  0.31886059565E+02  0.00000000000E+00 0. -1.
         11    1    3    3    0    0  0.17163348456E+01  0.77286192728E+01  0.12154691417E+02  0.14505650102E+02  0.51100000000E-03 0. -1.
        -11    1    3    3    0    0  0.70146508619E+01 -0.90311231625E+00 -0.11161724566E+02  0.13213819815E+02  0.51100000000E-03 0.  1.
         12    1    3    3    0    0  0.14338441236E+02 -0.27101108485E+02  0.75757155294E+01  0.31582470518E+02  0.00000000000E+00 0. -1.
</event>
<event>
 7    1  0.3449603E-013  0.5930196E+02  0.7816164E-02  0.1266605E+00
        -11   -1    0    0    0    0  0.00000000000E+00  0.00000000000E+00  0.45593999997E+02  0.45594000000E+02  0.51100000000E-03 0. -1.
         11   -1    0    0    0    0 -0.00000000000E+00 -0.00000000000E+00 -0.45593999997E+02  0.45594000000E+02  0.51100000000E-03 0.  1.
    9900012    2    1    2    0    0 -0.29358767469E+02  0.97379392807E+01  0.77430594529E+01  0.59301958251E+02  0.50000025940E+02 0.  0.
         12    1    1    2    0    0  0.29358767469E+02 -0.97379392807E+01 -0.77430594529E+01  0.31886041749E+02  0.00000000000E+00 0. -1.
         11    1    3    3    0    0  0.85112933678E+01  0.48963177338E+01 -0.14533063994E+01  0.99261342876E+01  0.51100000000E-03 0.  1.
        -11    1    3    3    0    0 -0.21754502035E+02  0.10921041381E+02 -0.74153868999E+01  0.25446325212E+02  0.51100000000E-03 0. -1.
         12    1    3    3    0    0 -0.16115558802E+02 -0.60794198337E+01  0.16611752752E+02  0.23929498752E+02  0.00000000000E+00 0. -1.
</event>
<event>
 7    1  0.3449603E-013  0.5930190E+02  0.7816164E-02  0.1266605E+00
        -11   -1    0    0    0    0  0.00000000000E+00  0.00000000000E+00  0.45593999997E+02  0.45594000000E+02  0.51100000000E-03 0. -1.
         11   -1    0    0    0    0 -0.00000000000E+00 -0.00000000000E+00 -0.45593999997E+02  0.45594000000E+02  0.51100000000E-03 0.  1.
    9900012    2    1    2    0    0 -0.81644172763E+01  0.26249420097E+02 -0.16156536873E+02  0.59301898817E+02  0.49999917547E+02 0.  0.
         12    1    1    2    0    0  0.81644172763E+01 -0.26249420097E+02  0.16156536873E+02  0.31886101183E+02  0.00000000000E+00 0. -1.
         11    1    3    3    0    0 -0.23114547025E+02  0.80230063260E+01 -0.36431274601E+01  0.24737083349E+02  0.51100000000E-03 0. -1.
        -11    1    3    3    0    0 -0.62955069903E+00  0.15285849185E+02 -0.10561655800E+02  0.18590376351E+02  0.51100000000E-03 0.  1.
         12    1    3    3    0    0  0.15579680448E+02  0.29405645868E+01 -0.19517536135E+01  0.15974439117E+02  0.00000000000E+00 0. -1.
</event>
<event>
 7    1  0.3449603E-013  0.5930195E+02  0.7816164E-02  0.1266605E+00
        -11   -1    0    0    0    0  0.00000000000E+00  0.00000000000E+00  0.45593999997E+02  0.45594000000E+02  0.51100000000E-03 0.  1.
         11   -1    0    0    0    0 -0.00000000000E+00 -0.00000000000E+00 -0.45593999997E+02  0.45594000000E+02  0.51100000000E-03 0. -1.
    9900012    2    1    2    0    0  0.26545961444E+02 -0.25790737372E+01  0.17475142515E+02  0.59301948250E+02  0.50000007700E+02 0.  0.
         12    1    1    2    0    0 -0.26545961444E+02  0.25790737372E+01 -0.17475142515E+02  0.31886051750E+02  0.00000000000E+00 0. -1.
         11    1    3    3    0    0  0.15480041197E+02  0.15793582799E+02  0.13342301415E+02  0.25828006899E+02  0.51100000000E-03 0.  1.
        -11    1    3    3    0    0  0.17477703974E+02 -0.65064953008E+01 -0.18058550099E+01  0.18736748113E+02  0.51100000000E-03 0. -1.
         12    1    3    3    0    0 -0.64117837266E+01 -0.11866161236E+02  0.59386961099E+01  0.14737193237E+02  0.00000000000E+00 0. -1.
</event>
<event>
 7    1  0.3449603E-013  0.5930195E+02  0.7816164E-02  0.1266605E+00
        -11   -1    0    0    0    0  0.00000000000E+00  0.00000000000E+00  0.45593999997E+02  0.45594000000E+02  0.51100000000E-03 0.  1.
         11   -1    0    0    0    0 -0.00000000000E+00 -0.00000000000E+00 -0.45593999997E+02  0.45594000000E+02  0.51100000000E-03 0. -1.
    9900012    2    1    2    0    0  0.52843716885E+01 -0.14335517647E+02  0.27987287612E+02  0.59301954177E+02  0.50000018510E+02 0.  0.
         12    1    1    2    0    0 -0.52843716885E+01  0.14335517647E+02 -0.27987287612E+02  0.31886045823E+02  0.00000000000E+00 0. -1.
         11    1    3    3    0    0 -0.88277236722E+01  0.50448926964E+01  0.10342172353E+02  0.14503109211E+02  0.51100000000E-03 0. -1.
        -11    1    3    3    0    0 -0.16997786348E+01  0.75382831236E+01  0.10035092497E+02  0.12665624404E+02  0.51100000000E-03 0.  1.
        -12    1    3    3    0    0  0.15811873995E+02 -0.26918693467E+02  0.76100227620E+01  0.32133220562E+02  0.00000000000E+00 0.  1.
</event>
<event>
 7    1  0.3449603E-013  0.5930197E+02  0.7816164E-02  0.1266605E+00
        -11   -1    0    0    0    0  0.00000000000E+00  0.00000000000E+00  0.45593999997E+02  0.45594000000E+02  0.51100000000E-03 0.  1.
         11   -1    0    0    0    0 -0.00000000000E+00 -0.00000000000E+00 -0.45593999997E+02  0.45594000000E+02  0.51100000000E-03 0. -1.
    9900012    2    1    2    0    0  0.26409609998E+00  0.28098254362E+02  0.15071076429E+02  0.59301968738E+02  0.50000045065E+02 0.  0.
         12    1    1    2    0    0 -0.26409609998E+00 -0.28098254362E+02 -0.15071076429E+02  0.31886031262E+02  0.00000000000E+00 0. -1.
         11    1    3    3    0    0  0.28437281873E+01  0.19925670203E+02 -0.55062808951E+01  0.20867157271E+02  0.51100000000E-03 0. -1.
        -11    1    3    3    0    0  0.12450237363E+01  0.84309749360E+01 -0.67302533698E+01  0.10859453631E+02  0.51100000000E-03 0.  1.
        -12    1    3    3    0    0 -0.38246558236E+01 -0.25839077653E+00  0.27307610694E+02  0.27575357836E+02  0.00000000000E+00 0.  1.
</event>
<event>
 7    1  0.3449603E-013  0.5930191E+02  0.7816164E-02  0.1266605E+00
        -11   -1    0    0    0    0  0.00000000000E+00  0.00000000000E+00  0.45593999997E+02  0.45594000000E+02  0.51100000000E-03 0. -1.
         11   -1    0    0    0    0 -0.00000000000E+00 -0.00000000000E+00 -0.45593999997E+02  0.45594000000E+02  0.51100000000E-03 0.  1.
    9900012    2    1    2    0    0 -0.69356761618E+01 -0.77575791798E+01 -0.30140318322E+02  0.59301914836E+02  0.49999946761E+02 0.  0.
         12    1    1    2    0    0  0.69356761618E+01  0.77575791798E+01  0.30140318322E+02  0.31886085164E+02  0.00000000000E+00 0. -1.
         11    1    3    3    0    0 -0.13410454927E+02 -0.29805083807E+00 -0.16427619168E+02  0.21208390024E+02  0.51100000000E-03 0. -1.
        -11    1    3    3    0    0  0.16222331719E+02 -0.78067880742E+01 -0.19669575989E+02  0.26664624623E+02  0.51100000000E-03 0.  1.
         12    1    3    3    0    0 -0.97475529539E+01  0.34725973249E+00  0.59568768342E+01  0.11428900189E+02  0.00000000000E+00 0. -1.
</event>
<event>
 7    1  0.3449603E-013  0.5930194E+02  0.7816164E-02  0.1266605E+00
        -11   -1    0    0    0    0  0.00000000000E+00  0.00000000000E+00  0.45593999997E+02  0.45594000000E+02  0.51100000000E-03 0.  1.
         11   -1    0    0    0    0 -0.00000000000E+00 -0.00000000000E+00 -0.45593999997E+02  0.45594000000E+02  0.51100000000E-03 0. -1.
    9900012    2    1    2    0    0 -0.12344409353E+01  0.25785500285E+01  0.31757641587E+02  0.59301944053E+02  0.50000000046E+02 0.  0.
         12    1    1    2    0    0  0.12344409353E+01 -0.25785500285E+01 -0.31757641587E+02  0.31886055947E+02  0.00000000000E+00 0. -1.
         11    1    3    3    0    0 -0.16452371872E+02  0.12502966731E+02  0.26750664081E+02  0.33802407404E+02  0.51100000000E-03 0. -1.
        -11    1    3    3    0    0  0.80002998195E+00  0.40671532314E+01  0.33700091373E+01  0.53421667164E+01  0.51100000000E-03 0.  1.
         12    1    3    3    0    0  0.14417900955E+02 -0.13991569934E+02  0.16369683687E+01  0.20157369932E+02  0.00000000000E+00 0. -1.
</event>
<event>
 7    1  0.3449603E-013  0.5930194E+02  0.7816164E-02  0.1266605E+00
        -11   -1    0    0    0    0  0.00000000000E+00  0.00000000000E+00  0.45593999997E+02  0.45594000000E+02  0.51100000000E-03 0.  1.
         11   -1    0    0    0    0 -0.00000000000E+00 -0.00000000000E+00 -0.45593999997E+02  0.45594000000E+02  0.51100000000E-03 0. -1.
    9900012    2    1    2    0    0 -0.30868093071E+02 -0.25843773831E+01 -0.75632372463E+01  0.59301941386E+02  0.49999995182E+02 0.  0.
         12    1    1    2    0    0  0.30868093071E+02  0.25843773831E+01  0.75632372463E+01  0.31886058614E+02  0.00000000000E+00 0. -1.
         11    1    3    3    0    0 -0.92862309058E+01 -0.23792179812E+02  0.43968803899E+01  0.25915911369E+02  0.51100000000E-03 0.  1.
        -11    1    3    3    0    0 -0.10922268910E+02  0.94648330968E+01 -0.96034210927E+01  0.17352369309E+02  0.51100000000E-03 0. -1.
        -12    1    3    3    0    0 -0.10659593255E+02  0.11742969332E+02 -0.23566965435E+01  0.16033660708E+02  0.00000000000E+00 0.  1.
</event>
<event>
 7    1  0.3449603E-013  0.5930195E+02  0.7816164E-02  0.1266605E+00
        -11   -1    0    0    0    0  0.00000000000E+00  0.00000000000E+00  0.45593999997E+02  0.45594000000E+02  0.51100000000E-03 0.  1.
         11   -1    0    0    0    0 -0.00000000000E+00 -0.00000000000E+00 -0.45593999997E+02  0.45594000000E+02  0.51100000000E-03 0. -1.
    9900012    2    1    2    0    0 -0.14522163355E+02 -0.11417160260E+02  0.25989908830E+02  0.59301950732E+02  0.50000012227E+02 0.  0.
         12    1    1    2    0    0  0.14522163355E+02  0.11417160260E+02 -0.25989908830E+02  0.31886049268E+02  0.00000000000E+00 0. -1.
         11    1    3    3    0    0 -0.78778466034E+01 -0.18138347840E+02  0.17405299854E+01  0.19851689459E+02  0.51100000000E-03 0. -1.
        -11    1    3    3    0    0  0.98090903877E+01 -0.30357650910E+01  0.26629181544E+01  0.10607792291E+02  0.51100000000E-03 0.  1.
         12    1    3    3    0    0 -0.16453407139E+02  0.97569526708E+01  0.21586460690E+02  0.28842468983E+02  0.00000000000E+00 0. -1.
</event>
<event>
 7    1  0.3449603E-013  0.5930214E+02  0.7816164E-02  0.1266604E+00
        -11   -1    0    0    0    0  0.00000000000E+00  0.00000000000E+00  0.45593999997E+02  0.45594000000E+02  0.51100000000E-03 0. -1.
         11   -1    0    0    0    0 -0.00000000000E+00 -0.00000000000E+00 -0.45593999997E+02  0.45594000000E+02  0.51100000000E-03 0.  1.
    9900012    2    1    2    0    0  0.79968789105E+01 -0.27063041419E+02  0.14844191414E+02  0.59302136331E+02  0.50000350714E+02 0.  0.
         12    1    1    2    0    0 -0.79968789105E+01  0.27063041419E+02 -0.14844191414E+02  0.31885863669E+02  0.00000000000E+00 0. -1.
         11    1    3    3    0    0 -0.46373743896E+01 -0.24532423219E+02  0.15538193026E+02  0.29407150032E+02  0.51100000000E-03 0. -1.
        -11    1    3    3    0    0  0.13139637121E+02 -0.10960113927E+02 -0.78506389128E+01  0.18825692353E+02  0.51100000000E-03 0.  1.
         12    1    3    3    0    0 -0.50538382117E+00  0.84294957267E+01  0.71566373004E+01  0.11069293946E+02  0.00000000000E+00 0. -1.
</event>
<event>
 7    1  0.3449603E-013  0.5930195E+02  0.7816164E-02  0.1266605E+00
        -11   -1    0    0    0    0  0.00000000000E+00  0.00000000000E+00  0.45593999997E+02  0.45594000000E+02  0.51100000000E-03 0. -1.
         11   -1    0    0    0    0 -0.00000000000E+00 -0.00000000000E+00 -0.45593999997E+02  0.45594000000E+02  0.51100000000E-03 0.  1.
    9900012    2    1    2    0    0 -0.19449832908E+02 -0.82436848924E+01 -0.23884424337E+02  0.59301951849E+02  0.50000014265E+02 0.  0.
         12    1    1    2    0    0  0.19449832908E+02  0.82436848924E+01  0.23884424337E+02  0.31886048151E+02  0.00000000000E+00 0. -1.
         11    1    3    3    0    0 -0.13549467405E+01 -0.98966895139E+01 -0.12663339074E+02  0.16128871652E+02  0.51100000000E-03 0. -1.
        -11    1    3    3    0    0 -0.13122917535E+02 -0.70464308680E+01  0.11185993147E+02  0.18627656738E+02  0.51100000000E-03 0.  1.
        -12    1    3    3    0    0 -0.49719686323E+01  0.86994354896E+01 -0.22407078410E+02  0.24545423459E+02  0.00000000000E+00 0.  1.
</event>
<event>
 7    1  0.3449603E-013  0.5930194E+02  0.7816164E-02  0.1266605E+00
        -11   -1    0    0    0    0  0.00000000000E+00  0.00000000000E+00  0.45593999997E+02  0.45594000000E+02  0.51100000000E-03 0.  1.
         11   -1    0    0    0    0 -0.00000000000E+00 -0.00000000000E+00 -0.45593999997E+02  0.45594000000E+02  0.51100000000E-03 0. -1.
    9900012    2    1    2    0    0 -0.11141908827E+02  0.15095788823E+02  0.25781696551E+02  0.59301939573E+02  0.49999991875E+02 0.  0.
         12    1    1    2    0    0  0.11141908827E+02 -0.15095788823E+02 -0.25781696551E+02  0.31886060427E+02  0.00000000000E+00 0. -1.
         11    1    3    3    0    0 -0.21252189585E+02  0.35035272593E+00  0.87692117109E+01  0.22992985528E+02  0.51100000000E-03 0. -1.
        -11    1    3    3    0    0  0.35735814545E+01  0.21030693172E+02  0.62364575020E+01  0.22225074626E+02  0.51100000000E-03 0.  1.
         12    1    3    3    0    0  0.65366993035E+01 -0.62852570747E+01  0.10776027338E+02  0.14083879419E+02  0.00000000000E+00 0. -1.
</event>
<event>
 7    1  0.3449603E-013  0.5930193E+02  0.7816164E-02  0.1266605E+00
        -11   -1    0    0    0    0  0.00000000000E+00  0.00000000000E+00  0.45593999997E+02  0.45594000000E+02  0.51100000000E-03 0.  1.
         11   -1    0    0    0    0 -0.00000000000E+00 -0.00000000000E+00 -0.45593999997E+02  0.45594000000E+02  0.51100000000E-03 0. -1.
    9900012    2    1    2    0    0  0.18052739645E+02 -0.25103418504E+02  0.77870562614E+01  0.59301932909E+02  0.49999979723E+02 0.  0.
         12    1    1    2    0    0 -0.18052739645E+02  0.25103418504E+02 -0.77870562614E+01  0.31886067091E+02  0.00000000000E+00 0. -1.
         11    1    3    3    0    0  0.15137266809E+02 -0.62814957848E+01  0.16057687755E+02  0.22944353817E+02  0.51100000000E-03 0.  1.
        -11    1    3    3    0    0  0.54962030044E+01 -0.14552855633E+02  0.92785720126E+01  0.18113137591E+02  0.51100000000E-03 0. -1.
        -12    1    3    3    0    0 -0.25807301688E+01 -0.42690670867E+01 -0.17549203507E+02  0.18244441502E+02  0.00000000000E+00 0.  1.
</event>
<event>
 7    1  0.3449603E-013  0.5930197E+02  0.7816164E-02  0.1266605E+00
        -11   -1    0    0    0    0  0.00000000000E+00  0.00000000000E+00  0.45593999997E+02  0.45594000000E+02  0.51100000000E-03 0.  1.
         11   -1    0    0    0    0 -0.00000000000E+00 -0.00000000000E+00 -0.45593999997E+02  0.45594000000E+02  0.51100000000E-03 0. -1.
    9900012    2    1    2    0    0  0.19644700310E+02 -0.24494401378E+02  0.55523966509E+01  0.59301967671E+02  0.50000043119E+02 0.  0.
         12    1    1    2    0    0 -0.19644700310E+02  0.24494401378E+02 -0.55523966509E+01  0.31886032329E+02  0.00000000000E+00 0. -1.
         11    1    3    3    0    0  0.27041100300E+01  0.47971613798E+00 -0.27352608494E+00  0.27599194567E+01  0.51100000000E-03 0. -1.
        -11    1    3    3    0    0  0.14355845819E+02 -0.19010832244E+02 -0.19256075381E+02  0.30631658315E+02  0.51100000000E-03 0.  1.
         12    1    3    3    0    0  0.25847444613E+01 -0.59632852718E+01  0.25081998117E+02  0.25910389899E+02  0.00000000000E+00 0. -1.
</event>
<event>
 7    1  0.3449603E-013  0.5930191E+02  0.7816164E-02  0.1266605E+00
        -11   -1    0    0    0    0  0.00000000000E+00  0.00000000000E+00  0.45593999997E+02  0.45594000000E+02  0.51100000000E-03 0. -1.
         11   -1    0    0    0    0 -0.00000000000E+00 -0.00000000000E+00 -0.45593999997E+02  0.45594000000E+02  0.51100000000E-03 0.  1.
    9900012    2    1    2    0    0 -0.12195334130E+02 -0.20649129180E+02 -0.21014517816E+02  0.59301911035E+02  0.49999939829E+02 0.  0.
         12    1    1    2    0    0  0.12195334130E+02  0.20649129180E+02  0.21014517816E+02  0.31886088965E+02  0.00000000000E+00 0. -1.
         11    1    3    3    0    0  0.54924232476E+01 -0.11439064607E+02  0.24638195670E+01  0.12926303390E+02  0.51100000000E-03 0. -1.
        -11    1    3    3    0    0  0.70522788378E+01  0.52135827762E+01 -0.13402951457E+02  0.16017340297E+02  0.51100000000E-03 0.  1.
        -12    1    3    3    0    0 -0.24740036216E+02 -0.14423647349E+02 -0.10075385926E+02  0.30358267348E+02  0.00000000000E+00 0.  1.
</event>
<event>
 7    1  0.3449603E-013  0.5930193E+02  0.7816164E-02  0.1266605E+00
        -11   -1    0    0    0    0  0.00000000000E+00  0.00000000000E+00  0.45593999997E+02  0.45594000000E+02  0.51100000000E-03 0.  1.
         11   -1    0    0    0    0 -0.00000000000E+00 -0.00000000000E+00 -0.45593999997E+02  0.45594000000E+02  0.51100000000E-03 0. -1.
    9900012    2    1    2    0    0 -0.13496643353E+02 -0.17357802824E+02  0.23092611155E+02  0.59301931088E+02  0.49999976402E+02 0.  0.
         12    1    1    2    0    0  0.13496643353E+02  0.17357802824E+02 -0.23092611155E+02  0.31886068912E+02  0.00000000000E+00 0. -1.
         11    1    3    3    0    0  0.15763992090E+02 -0.65129742604E+01  0.92348634734E+01  0.19396004330E+02  0.51100000000E-03 0. -1.
        -11    1    3    3    0    0 -0.81806521521E+01 -0.99845741831E+01  0.13678907834E+02  0.18807639699E+02  0.51100000000E-03 0.  1.
        -12    1    3    3    0    0 -0.21079983291E+02 -0.86025438092E+00  0.17883984752E+00  0.21098287060E+02  0.00000000000E+00 0.  1.
</event>
<event>
 7    1  0.3449603E-013  0.5930194E+02  0.7816164E-02  0.1266605E+00
        -11   -1    0    0    0    0  0.00000000000E+00  0.00000000000E+00  0.45593999997E+02  0.45594000000E+02  0.51100000000E-03 0.  1.
         11   -1    0    0    0    0 -0.00000000000E+00 -0.00000000000E+00 -0.45593999997E+02  0.45594000000E+02  0.51100000000E-03 0. -1.
    9900012    2    1    2    0    0 -0.14240281808E+02  0.28175991892E+02  0.44775732917E+01  0.59301940230E+02  0.49999993075E+02 0.  0.
         12    1    1    2    0    0  0.14240281808E+02 -0.28175991892E+02 -0.44775732917E+01  0.31886059770E+02  0.00000000000E+00 0. -1.
         11    1    3    3    0    0  0.25630303813E+00  0.17621422767E+02 -0.75989789638E+01  0.19191787648E+02  0.51100000000E-03 0. -1.
        -11    1    3    3    0    0 -0.14683320811E+02  0.15674438119E+02  0.20860850553E+02  0.29940992075E+02  0.51100000000E-03 0.  1.
         12    1    3    3    0    0  0.18673596467E+00 -0.51198689944E+01 -0.87842982976E+01  0.10169160507E+02  0.00000000000E+00 0. -1.
</event>
<event>
 7    1  0.3449603E-013  0.5930195E+02  0.7816164E-02  0.1266605E+00
        -11   -1    0    0    0    0  0.00000000000E+00  0.00000000000E+00  0.45593999997E+02  0.45594000000E+02  0.51100000000E-03 0.  1.
         11   -1    0    0    0    0 -0.00000000000E+00 -0.00000000000E+00 -0.45593999997E+02  0.45594000000E+02  0.51100000000E-03 0. -1.
    9900012    2    1    2    0    0  0.18295496211E+02 -0.18518858293E+02  0.18413227028E+02  0.59301949388E+02  0.50000009775E+02 0.  0.
         12    1    1    2    0    0 -0.18295496211E+02  0.18518858293E+02 -0.18413227028E+02  0.31886050612E+02  0.00000000000E+00 0. -1.
         11    1    3    3    0    0  0.18480008935E+02 -0.17994511796E+02  0.84205357724E+01  0.27133348631E+02  0.51100000000E-03 0. -1.
        -11    1    3    3    0    0  0.14422383193E+02 -0.47535875558E+01  0.32272887653E+01  0.15524726234E+02  0.51100000000E-03 0.  1.
         12    1    3    3    0    0 -0.14606895916E+02  0.42292410589E+01  0.67654024900E+01  0.16643874522E+02  0.00000000000E+00 0. -1.
</event>
<event>
 7    1  0.3449603E-013  0.5930195E+02  0.7816164E-02  0.1266605E+00
        -11   -1    0    0    0    0  0.00000000000E+00  0.00000000000E+00  0.45593999997E+02  0.45594000000E+02  0.51100000000E-03 0. -1.
         11   -1    0    0    0    0 -0.00000000000E+00 -0.00000000000E+00 -0.45593999997E+02  0.45594000000E+02  0.51100000000E-03 0.  1.
    9900012    2    1    2    0    0 -0.18285840371E+02 -0.57674482031E+01 -0.25477140485E+02  0.59301951261E+02  0.50000013193E+02 0.  0.
         12    1    1    2    0    0  0.18285840371E+02  0.57674482031E+01  0.25477140485E+02  0.31886048739E+02  0.00000000000E+00 0. -1.
         11    1    3    3    0    0 -0.25154030310E+02  0.26746789372E+01 -0.22418574361E+02  0.33800467821E+02  0.51100000000E-03 0. -1.
        -11    1    3    3    0    0  0.48865674385E+01 -0.65790372005E+01 -0.12904445404E+02  0.15286823845E+02  0.51100000000E-03 0.  1.
        -12    1    3    3    0    0  0.19816225002E+01 -0.18630899398E+01  0.98458792802E+01  0.10214659596E+02  0.00000000000E+00 0.  1.
</event>
<event>
 7    1  0.3449603E-013  0.5930195E+02  0.7816164E-02  0.1266605E+00
        -11   -1    0    0    0    0  0.00000000000E+00  0.00000000000E+00  0.45593999997E+02  0.45594000000E+02  0.51100000000E-03 0. -1.
         11   -1    0    0    0    0 -0.00000000000E+00 -0.00000000000E+00 -0.45593999997E+02  0.45594000000E+02  0.51100000000E-03 0.  1.
    9900012    2    1    2    0    0  0.23557085932E+01 -0.28513887650E+02 -0.14075835168E+02  0.59301948385E+02  0.50000007947E+02 0.  0.
         12    1    1    2    0    0 -0.23557085932E+01  0.28513887650E+02  0.14075835168E+02  0.31886051615E+02  0.00000000000E+00 0. -1.
         11    1    3    3    0    0  0.83022988130E+01  0.33923636812E+01 -0.53311106129E+01  0.10433457603E+02  0.51100000000E-03 0. -1.
        -11    1    3    3    0    0 -0.92875873408E+01  0.53136276741E+01 -0.15328148960E+01  0.10809414389E+02  0.51100000000E-03 0.  1.
        -12    1    3    3    0    0  0.33409971209E+01 -0.37219879006E+02 -0.72119096589E+01  0.38059076393E+02  0.00000000000E+00 0.  1.
</event>
<event>
 7    1  0.3449603E-013  0.5930194E+02  0.7816164E-02  0.1266605E+00
        -11   -1    0    0    0    0  0.00000000000E+00  0.00000000000E+00  0.45593999997E+02  0.45594000000E+02  0.51100000000E-03 0. -1.
         11   -1    0    0    0    0 -0.00000000000E+00 -0.00000000000E+00 -0.45593999997E+02  0.45594000000E+02  0.51100000000E-03 0.  1.
    9900012    2    1    2    0    0  0.12352200921E+02  0.29032420663E+02 -0.46111162185E+01  0.59301941763E+02  0.49999995869E+02 0.  0.
         12    1    1    2    0    0 -0.12352200921E+02 -0.29032420663E+02  0.46111162185E+01  0.31886058237E+02  0.00000000000E+00 0. -1.
         11    1    3    3    0    0  0.12200643627E+02  0.22119190712E+02  0.16936166245E+02  0.30412958258E+02  0.51100000000E-03 0. -1.
        -11    1    3    3    0    0  0.20535432989E+01  0.66130569620E+01  0.32492597536E+00  0.69321814469E+01  0.51100000000E-03 0.  1.
        -12    1    3    3    0    0 -0.19019860056E+01  0.30017298898E+00 -0.21872208439E+02  0.21956802058E+02  0.00000000000E+00 0.  1.
</event>
<event>
 7    1  0.3449603E-013  0.5930194E+02  0.7816164E-02  0.1266605E+00
        -11   -1    0    0    0    0  0.00000000000E+00  0.00000000000E+00  0.45593999997E+02  0.45594000000E+02  0.51100000000E-03 0. -1.
         11   -1    0    0    0    0 -0.00000000000E+00 -0.00000000000E+00 -0.45593999997E+02  0.45594000000E+02  0.51100000000E-03 0.  1.
    9900012    2    1    2    0    0  0.13286203253E+02 -0.16593790745E+02 -0.23766446418E+02  0.59301936218E+02  0.49999985758E+02 0.  0.
         12    1    1    2    0    0 -0.13286203253E+02  0.16593790745E+02  0.23766446418E+02  0.31886063782E+02  0.00000000000E+00 0. -1.
         11    1    3    3    0    0 -0.58380791280E+01 -0.35342659650E+01  0.54090483239E+01  0.87081575461E+01  0.51100000000E-03 0. -1.
        -11    1    3    3    0    0  0.29544487136E+01 -0.19918607769E+02 -0.50649040128E+01  0.20763741368E+02  0.51100000000E-03 0.  1.
        -12    1    3    3    0    0  0.16169833667E+02  0.68590829896E+01 -0.24110590729E+02  0.29830037304E+02  0.00000000000E+00 0.  1.
</event>
<event>
 7    1  0.3449603E-013  0.5930187E+02  0.7816164E-02  0.1266605E+00
        -11   -1    0    0    0    0  0.00000000000E+00  0.00000000000E+00  0.45593999997E+02  0.45594000000E+02  0.51100000000E-03 0.  1.
         11   -1    0    0    0    0 -0.00000000000E+00 -0.00000000000E+00 -0.45593999997E+02  0.45594000000E+02  0.51100000000E-03 0. -1.
    9900012    2    1    2    0    0 -0.18803795986E+02 -0.23010490913E+02  0.11561129854E+02  0.59301871996E+02  0.49999868632E+02 0.  0.
         12    1    1    2    0    0  0.18803795986E+02  0.23010490913E+02 -0.11561129854E+02  0.31886128004E+02  0.00000000000E+00 0. -1.
         11    1    3    3    0    0 -0.15303967267E+02  0.97794488563E+01 -0.33848830398E+01  0.18474481522E+02  0.51100000000E-03 0. -1.
        -11    1    3    3    0    0  0.48921174059E+01 -0.24592284062E+01 -0.97095908718E+00  0.55608793259E+01  0.51100000000E-03 0.  1.
        -12    1    3    3    0    0 -0.83919461252E+01 -0.30330711363E+02  0.15916971981E+02  0.35266511149E+02  0.00000000000E+00 0.  1.
</event>
<event>
 7    1  0.3449603E-013  0.5930195E+02  0.7816164E-02  0.1266605E+00
        -11   -1    0    0    0    0  0.00000000000E+00  0.00000000000E+00  0.45593999997E+02  0.45594000000E+02  0.51100000000E-03 0.  1.
         11   -1    0    0    0    0 -0.00000000000E+00 -0.00000000000E+00 -0.45593999997E+02  0.45594000000E+02  0.51100000000E-03 0. -1.
    9900012    2    1    2    0    0  0.82294123238E+01  0.18578877071E+02  0.24572800434E+02  0.59301946284E+02  0.50000004115E+02 0.  0.
         12    1    1    2    0    0 -0.82294123238E+01 -0.18578877071E+02 -0.24572800434E+02  0.31886053716E+02  0.00000000000E+00 0. -1.
         11    1    3    3    0    0  0.33713662098E+01  0.16037287652E+02  0.10256830682E+02  0.19332958420E+02  0.51100000000E-03 0. -1.
        -11    1    3    3    0    0 -0.58429392812E+01  0.37515612925E+00  0.24408421126E+02  0.25100830737E+02  0.51100000000E-03 0.  1.
         12    1    3    3    0    0  0.10700985395E+02  0.21664332894E+01 -0.10092451374E+02  0.14868157127E+02  0.00000000000E+00 0. -1.
</event>
<event>
 7    1  0.3449603E-013  0.5930183E+02  0.7816164E-02  0.1266605E+00
        -11   -1    0    0    0    0  0.00000000000E+00  0.00000000000E+00  0.45593999997E+02  0.45594000000E+02  0.51100000000E-03 0.  1.
         11   -1    0    0    0    0 -0.00000000000E+00 -0.00000000000E+00 -0.45593999997E+02  0.45594000000E+02  0.51100000000E-03 0. -1.
    9900012    2    1    2    0    0 -0.95406396443E+01  0.22784568854E+02  0.20163512531E+02  0.59301833403E+02  0.49999798247E+02 0.  0.
         12    1    1    2    0    0  0.95406396443E+01 -0.22784568854E+02 -0.20163512531E+02  0.31886166597E+02  0.00000000000E+00 0. -1.
         11    1    3    3    0    0 -0.13437849204E+02 -0.90028006758E+01 -0.21979220637E+01  0.16323512884E+02  0.51100000000E-03 0. -1.
        -11    1    3    3    0    0  0.36600968577E+01  0.93132403992E+01  0.17229365947E+02  0.19924452488E+02  0.51100000000E-03 0.  1.
        -12    1    3    3    0    0  0.23711270168E+00  0.22474129130E+02  0.51320686476E+01  0.23053868031E+02  0.00000000000E+00 0.  1.
</event>
<event>
 7    1  0.3449603E-013  0.5930193E+02  0.7816164E-02  0.1266605E+00
        -11   -1    0    0    0    0  0.00000000000E+00  0.00000000000E+00  0.45593999997E+02  0.45594000000E+02  0.51100000000E-03 0. -1.
         11   -1    0    0    0    0 -0.00000000000E+00 -0.00000000000E+00 -0.45593999997E+02  0.45594000000E+02  0.51100000000E-03 0.  1.
    9900012    2    1    2    0    0  0.31128873128E+02  0.62147602947E+01  0.30152080015E+01  0.59301929890E+02  0.49999974216E+02 0.  0.
         12    1    1    2    0    0 -0.31128873128E+02 -0.62147602947E+01 -0.30152080015E+01  0.31886070110E+02  0.00000000000E+00 0. -1.
         11    1    3    3    0    0  0.29450368260E+02  0.77118388724E+01  0.55811534483E+01  0.30950701503E+02  0.51100000000E-03 0. -1.
        -11    1    3    3    0    0  0.54913356921E+01  0.87601740611E+01 -0.10575836065E+02  0.14789987356E+02  0.51100000000E-03 0.  1.
         12    1    3    3    0    0 -0.38128308240E+01 -0.10257252639E+02  0.80098906177E+01  0.13561241031E+02  0.00000000000E+00 0. -1.
</event>
<event>
 7    1  0.3449603E-013  0.5930195E+02  0.7816164E-02  0.1266605E+00
        -11   -1    0    0    0    0  0.00000000000E+00  0.00000000000E+00  0.45593999997E+02  0.45594000000E+02  0.51100000000E-03 0.  1.
         11   -1    0    0    0    0 -0.00000000000E+00 -0.00000000000E+00 -0.45593999997E+02  0.45594000000E+02  0.51100000000E-03 0. -1.
    9900012    2    1    2    0    0  0.26633391216E+02 -0.16946663956E+02  0.44937105929E+01  0.59301946908E+02  0.50000005253E+02 0.  0.
         12    1    1    2    0    0 -0.26633391216E+02  0.16946663956E+02 -0.44937105929E+01  0.31886053092E+02  0.00000000000E+00 0. -1.
         11    1    3    3    0    0  0.81208803358E+01 -0.73465983936E+01  0.10173527636E+02  0.14947303108E+02  0.51100000000E-03 0. -1.
        -11    1    3    3    0    0  0.11245865201E+02 -0.23883020610E+02  0.22136051089E+01  0.26490907976E+02  0.51100000000E-03 0.  1.
         12    1    3    3    0    0  0.72666456797E+01  0.14282955047E+02 -0.78934221517E+01  0.17863735824E+02  0.00000000000E+00 0. -1.
</event>
<event>
 7    1  0.3449603E-013  0.5930195E+02  0.7816164E-02  0.1266605E+00
        -11   -1    0    0    0    0  0.00000000000E+00  0.00000000000E+00  0.45593999997E+02  0.45594000000E+02  0.51100000000E-03 0.  1.
         11   -1    0    0    0    0 -0.00000000000E+00 -0.00000000000E+00 -0.45593999997E+02  0.45594000000E+02  0.51100000000E-03 0. -1.
    9900012    2    1    2    0    0  0.13814506411E+02  0.23132026566E+02  0.17052532006E+02  0.59301951511E+02  0.50000013648E+02 0.  0.
         12    1    1    2    0    0 -0.13814506411E+02 -0.23132026566E+02 -0.17052532006E+02  0.31886048489E+02  0.00000000000E+00 0. -1.
         11    1    3    3    0    0  0.50215244133E+00  0.24457775978E+02 -0.67569761149E+01  0.25378961550E+02  0.51100000000E-03 0. -1.
        -11    1    3    3    0    0  0.46059386132E+01  0.87861324409E+01  0.14820007144E+02  0.17833771497E+02  0.51100000000E-03 0.  1.
        -12    1    3    3    0    0  0.87064153569E+01 -0.10111881854E+02  0.89895009768E+01  0.16089218464E+02  0.00000000000E+00 0.  1.
</event>
<event>
 7    1  0.3449603E-013  0.5930194E+02  0.7816164E-02  0.1266605E+00
        -11   -1    0    0    0    0  0.00000000000E+00  0.00000000000E+00  0.45593999997E+02  0.45594000000E+02  0.51100000000E-03 0.  1.
         11   -1    0    0    0    0 -0.00000000000E+00 -0.00000000000E+00 -0.45593999997E+02  0.45594000000E+02  0.51100000000E-03 0. -1.
    9900012    2    1    2    0    0  0.13297007235E+02  0.23002350089E+02  0.17629583575E+02  0.59301941478E+02  0.49999995350E+02 0.  0.
         12    1    1    2    0    0 -0.13297007235E+02 -0.23002350089E+02 -0.17629583575E+02  0.31886058522E+02  0.00000000000E+00 0. -1.
         11    1    3    3    0    0  0.19908727970E+01 -0.94656283790E+01  0.21527377897E+01  0.99093882432E+01  0.51100000000E-03 0. -1.
        -11    1    3    3    0    0  0.59668438564E+01  0.57548196544E+01  0.20117516094E+02  0.21758575985E+02  0.51100000000E-03 0.  1.
         12    1    3    3    0    0  0.53392905812E+01  0.26713158814E+02 -0.46406703082E+01  0.27633977250E+02  0.00000000000E+00 0. -1.
</event>
<event>
 7    1  0.3449603E-013  0.5930200E+02  0.7816164E-02  0.1266605E+00
        -11   -1    0    0    0    0  0.00000000000E+00  0.00000000000E+00  0.45593999997E+02  0.45594000000E+02  0.51100000000E-03 0.  1.
         11   -1    0    0    0    0 -0.00000000000E+00 -0.00000000000E+00 -0.45593999997E+02  0.45594000000E+02  0.51100000000E-03 0. -1.
    9900012    2    1    2    0    0 -0.30162586464E+02  0.32342267692E+01 -0.98221857672E+01  0.59301997142E+02  0.50000096868E+02 0.  0.
         12    1    1    2    0    0  0.30162586464E+02 -0.32342267692E+01  0.98221857672E+01  0.31886002858E+02  0.00000000000E+00 0. -1.
         11    1    3    3    0    0 -0.18936794243E+02  0.48444877839E+01 -0.11206895246E+02  0.22531438911E+02  0.51100000000E-03 0. -1.
        -11    1    3    3    0    0 -0.19314351510E+02  0.92525452856E+01  0.63624329071E+01  0.22341314224E+02  0.51100000000E-03 0.  1.
         12    1    3    3    0    0  0.80885592882E+01 -0.10862806300E+02 -0.49777234280E+01  0.14429244007E+02  0.00000000000E+00 0. -1.
</event>
<event>
 7    1  0.3493482E-013  0.5930195E+02  0.7816164E-02  0.1266605E+00
        -11   -1    0    0    0    0  0.00000000000E+00  0.00000000000E+00  0.45593999997E+02  0.45594000000E+02  0.51100000000E-03 0.  1.
         11   -1    0    0    0    0 -0.00000000000E+00 -0.00000000000E+00 -0.45593999997E+02  0.45594000000E+02  0.51100000000E-03 0. -1.
    9900012    2    1    2    0    0  0.19677585620E+02 -0.60475513710E+01  0.24350351581E+02  0.59301954847E+02  0.50000019731E+02 0.  0.
         12    1    1    2    0    0 -0.19677585620E+02  0.60475513710E+01 -0.24350351581E+02  0.31886045153E+02  0.00000000000E+00 0. -1.
         11    1    3    3    0    0 -0.32647324670E+01  0.68400358476E+01  0.10644492525E+02  0.13067126305E+02  0.51100000000E-03 0. -1.
        -11    1    3    3    0    0  0.15018133515E+02 -0.21896876378E+02  0.19468126651E+02  0.32924542289E+02  0.51100000000E-03 0.  1.
         12    1    3    3    0    0  0.79241845718E+01  0.90092891595E+01 -0.57622675956E+01  0.13310286253E+02  0.00000000000E+00 0. -1.
</event>
<event>
 7    1  0.3449603E-013  0.5930193E+02  0.7816164E-02  0.1266605E+00
        -11   -1    0    0    0    0  0.00000000000E+00  0.00000000000E+00  0.45593999997E+02  0.45594000000E+02  0.51100000000E-03 0. -1.
         11   -1    0    0    0    0 -0.00000000000E+00 -0.00000000000E+00 -0.45593999997E+02  0.45594000000E+02  0.51100000000E-03 0.  1.
    9900012    2    1    2    0    0  0.21057004081E+02 -0.16607205731E+02 -0.17248897785E+02  0.59301934425E+02  0.49999982487E+02 0.  0.
         12    1    1    2    0    0 -0.21057004081E+02  0.16607205731E+02  0.17248897785E+02  0.31886065575E+02  0.00000000000E+00 0. -1.
         11    1    3    3    0    0  0.22353406915E+01 -0.37684092260E+01 -0.61668162836E+01  0.75648714092E+01  0.51100000000E-03 0. -1.
        -11    1    3    3    0    0 -0.77349925207E+01  0.37618370458E+00 -0.19434499406E+02  0.20920597288E+02  0.51100000000E-03 0.  1.
         12    1    3    3    0    0  0.26556655910E+02 -0.13214980210E+02  0.83524179045E+01  0.30816465727E+02  0.00000000000E+00 0. -1.
</event>
<event>
 7    1  0.3449603E-013  0.5930194E+02  0.7816164E-02  0.1266605E+00
        -11   -1    0    0    0    0  0.00000000000E+00  0.00000000000E+00  0.45593999997E+02  0.45594000000E+02  0.51100000000E-03 0. -1.
         11   -1    0    0    0    0 -0.00000000000E+00 -0.00000000000E+00 -0.45593999997E+02  0.45594000000E+02  0.51100000000E-03 0.  1.
    9900012    2    1    2    0    0  0.12656940516E+02  0.27891858153E+02  0.88638164156E+01  0.59301935082E+02  0.49999983686E+02 0.  0.
         12    1    1    2    0    0 -0.12656940516E+02 -0.27891858153E+02 -0.88638164156E+01  0.31886064918E+02  0.00000000000E+00 0. -1.
         11    1    3    3    0    0 -0.60554656996E+01  0.41871549033E+01  0.17143452680E+01  0.75590945875E+01  0.51100000000E-03 0. -1.
        -11    1    3    3    0    0  0.18891179026E+02  0.15860847503E+02 -0.14570925943E+02  0.28648822168E+02  0.51100000000E-03 0.  1.
         12    1    3    3    0    0 -0.17877281027E+00  0.78438557464E+01  0.21720397091E+02  0.23094018327E+02  0.00000000000E+00 0. -1.
</event>
<event>
 7    1  0.3449603E-013  0.5930203E+02  0.7816164E-02  0.1266604E+00
        -11   -1    0    0    0    0  0.00000000000E+00  0.00000000000E+00  0.45593999997E+02  0.45594000000E+02  0.51100000000E-03 0.  1.
         11   -1    0    0    0    0 -0.00000000000E+00 -0.00000000000E+00 -0.45593999997E+02  0.45594000000E+02  0.51100000000E-03 0. -1.
    9900012    2    1    2    0    0  0.13555001613E+02  0.38152700179E+01  0.28608059071E+02  0.59302025060E+02  0.50000147784E+02 0.  0.
         12    1    1    2    0    0 -0.13555001613E+02 -0.38152700179E+01 -0.28608059071E+02  0.31885974940E+02  0.00000000000E+00 0. -1.
         11    1    3    3    0    0  0.20307245689E+02  0.61667852674E+01  0.75113920637E+01  0.22512984675E+02  0.51100000000E-03 0. -1.
        -11    1    3    3    0    0  0.11445074131E+02 -0.28536771491E+01  0.65892391652E+01  0.13511153473E+02  0.51100000000E-03 0.  1.
         12    1    3    3    0    0 -0.18197318207E+02  0.50216189968E+00  0.14507427842E+02  0.23277886912E+02  0.00000000000E+00 0. -1.
</event>
<event>
 7    1  0.3449603E-013  0.5930196E+02  0.7816164E-02  0.1266605E+00
        -11   -1    0    0    0    0  0.00000000000E+00  0.00000000000E+00  0.45593999997E+02  0.45594000000E+02  0.51100000000E-03 0. -1.
         11   -1    0    0    0    0 -0.00000000000E+00 -0.00000000000E+00 -0.45593999997E+02  0.45594000000E+02  0.51100000000E-03 0.  1.
    9900012    2    1    2    0    0  0.12987323229E+02  0.22033176185E+02 -0.19041753229E+02  0.59301956290E+02  0.50000022363E+02 0.  0.
         12    1    1    2    0    0 -0.12987323229E+02 -0.22033176185E+02  0.19041753229E+02  0.31886043710E+02  0.00000000000E+00 0. -1.
         11    1    3    3    0    0  0.76350572829E+01  0.15838372616E+02  0.13319153895E+02  0.22057833247E+02  0.51100000000E-03 0. -1.
        -11    1    3    3    0    0 -0.48014097281E+01 -0.21298634344E+01 -0.80033634855E+01  0.95730706134E+01  0.51100000000E-03 0.  1.
        -12    1    3    3    0    0  0.10153675674E+02  0.83246670043E+01 -0.24357543638E+02  0.27671052429E+02  0.00000000000E+00 0.  1.
</event>
<event>
 7    1  0.3449603E-013  0.5930194E+02  0.7816164E-02  0.1266605E+00
        -11   -1    0    0    0    0  0.00000000000E+00  0.00000000000E+00  0.45593999997E+02  0.45594000000E+02  0.51100000000E-03 0.  1.
         11   -1    0    0    0    0 -0.00000000000E+00 -0.00000000000E+00 -0.45593999997E+02  0.45594000000E+02  0.51100000000E-03 0. -1.
    9900012    2    1    2    0    0 -0.23992151006E+02 -0.20881852191E+02  0.22463173741E+01  0.59301937173E+02  0.49999987499E+02 0.  0.
         12    1    1    2    0    0  0.23992151006E+02  0.20881852191E+02 -0.22463173741E+01  0.31886062827E+02  0.00000000000E+00 0. -1.
         11    1    3    3    0    0 -0.98339670072E+01  0.12023362514E+02  0.64655233061E+00  0.15546259467E+02  0.51100000000E-03 0. -1.
        -11    1    3    3    0    0  0.47456962477E+01  0.87302044113E+00 -0.11146777914E+01  0.49524039018E+01  0.51100000000E-03 0.  1.
        -12    1    3    3    0    0 -0.18903880247E+02 -0.33778235147E+02  0.27144428349E+01  0.38803273804E+02  0.00000000000E+00 0.  1.
</event>
<event>
 7    1  0.3449603E-013  0.5930195E+02  0.7816164E-02  0.1266605E+00
        -11   -1    0    0    0    0  0.00000000000E+00  0.00000000000E+00  0.45593999997E+02  0.45594000000E+02  0.51100000000E-03 0. -1.
         11   -1    0    0    0    0 -0.00000000000E+00 -0.00000000000E+00 -0.45593999997E+02  0.45594000000E+02  0.51100000000E-03 0.  1.
    9900012    2    1    2    0    0 -0.26360789829E+02 -0.56303488093E+01 -0.17033142718E+02  0.59301952597E+02  0.50000015628E+02 0.  0.
         12    1    1    2    0    0  0.26360789829E+02  0.56303488093E+01  0.17033142718E+02  0.31886047403E+02  0.00000000000E+00 0. -1.
         11    1    3    3    0    0 -0.19793913347E+02 -0.43846181639E+01 -0.10575925368E+02  0.22866440031E+02  0.51100000000E-03 0. -1.
        -11    1    3    3    0    0  0.95246734704E+01 -0.24806611316E+01 -0.15178956442E+02  0.18090710414E+02  0.51100000000E-03 0.  1.
         12    1    3    3    0    0 -0.16091549953E+02  0.12349304862E+01  0.87217390928E+01  0.18344802152E+02  0.00000000000E+00 0. -1.
</event>
<event>
 7    1  0.3449603E-013  0.5930188E+02  0.7816164E-02  0.1266605E+00
        -11   -1    0    0    0    0  0.00000000000E+00  0.00000000000E+00  0.45593999997E+02  0.45594000000E+02  0.51100000000E-03 0.  1.
         11   -1    0    0    0    0 -0.00000000000E+00 -0.00000000000E+00 -0.45593999997E+02  0.45594000000E+02  0.51100000000E-03 0. -1.
    9900012    2    1    2    0    0 -0.10683803943E+02  0.15178111297E+02  0.25926931031E+02  0.59301882615E+02  0.49999887997E+02 0.  0.
         12    1    1    2    0    0  0.10683803943E+02 -0.15178111297E+02 -0.25926931031E+02  0.31886117385E+02  0.00000000000E+00 0. -1.
         11    1    3    3    0    0 -0.19944134438E+02  0.13124352742E+02  0.15164034450E+02  0.28283653839E+02  0.51100000000E-03 0. -1.
        -11    1    3    3    0    0 -0.16626950329E+01  0.11585125923E+02  0.11624568534E+02  0.16495765859E+02  0.51100000000E-03 0.  1.
         12    1    3    3    0    0  0.10923025528E+02 -0.95313673691E+01 -0.86167195288E+00  0.14522462917E+02  0.00000000000E+00 0. -1.
</event>
<event>
 7    1  0.3449603E-013  0.5930202E+02  0.7816164E-02  0.1266605E+00
        -11   -1    0    0    0    0  0.00000000000E+00  0.00000000000E+00  0.45593999997E+02  0.45594000000E+02  0.51100000000E-03 0.  1.
         11   -1    0    0    0    0 -0.00000000000E+00 -0.00000000000E+00 -0.45593999997E+02  0.45594000000E+02  0.51100000000E-03 0. -1.
    9900012    2    1    2    0    0 -0.74704311085E+01  0.14039802864E+02  0.27636797436E+02  0.59302015964E+02  0.50000131194E+02 0.  0.
         12    1    1    2    0    0  0.74704311085E+01 -0.14039802864E+02 -0.27636797436E+02  0.31885984036E+02  0.00000000000E+00 0. -1.
         11    1    3    3    0    0  0.85589361030E+01  0.20747191633E+01  0.13832341859E+02  0.16397973302E+02  0.51100000000E-03 0. -1.
        -11    1    3    3    0    0  0.20664875629E+01  0.14674335620E+01  0.20716840739E+02  0.20871301410E+02  0.51100000000E-03 0.  1.
         12    1    3    3    0    0 -0.18095854774E+02  0.10497650139E+02 -0.69123851619E+01  0.22032741252E+02  0.00000000000E+00 0. -1.
</event>
<event>
 7    1  0.3449603E-013  0.5930194E+02  0.7816164E-02  0.1266605E+00
        -11   -1    0    0    0    0  0.00000000000E+00  0.00000000000E+00  0.45593999997E+02  0.45594000000E+02  0.51100000000E-03 0. -1.
         11   -1    0    0    0    0 -0.00000000000E+00 -0.00000000000E+00 -0.45593999997E+02  0.45594000000E+02  0.51100000000E-03 0.  1.
    9900012    2    1    2    0    0  0.30082192536E+02  0.87138883695E+01  0.59875609935E+01  0.59301936509E+02  0.49999986288E+02 0.  0.
         12    1    1    2    0    0 -0.30082192536E+02 -0.87138883695E+01 -0.59875609935E+01  0.31886063491E+02  0.00000000000E+00 0. -1.
         11    1    3    3    0    0  0.24952514703E+02 -0.76240808689E+01  0.15279543094E+01  0.26135976043E+02  0.51100000000E-03 0. -1.
        -11    1    3    3    0    0  0.10505604922E+02 -0.24796257514E+01  0.77933147832E+01  0.13313603352E+02  0.51100000000E-03 0.  1.
        -12    1    3    3    0    0 -0.53759270892E+01  0.18817594990E+02 -0.33337080990E+01  0.19852357113E+02  0.00000000000E+00 0.  1.
</event>
<event>
 7    1  0.3449603E-013  0.5930194E+02  0.7816164E-02  0.1266605E+00
        -11   -1    0    0    0    0  0.00000000000E+00  0.00000000000E+00  0.45593999997E+02  0.45594000000E+02  0.51100000000E-03 0. -1.
         11   -1    0    0    0    0 -0.00000000000E+00 -0.00000000000E+00 -0.45593999997E+02  0.45594000000E+02  0.51100000000E-03 0.  1.
    9900012    2    1    2    0    0 -0.25046060305E+02 -0.97430888493E+01 -0.17160655037E+02  0.59301937238E+02  0.49999987618E+02 0.  0.
         12    1    1    2    0    0  0.25046060305E+02  0.97430888493E+01  0.17160655037E+02  0.31886062762E+02  0.00000000000E+00 0. -1.
         11    1    3    3    0    0 -0.30284740995E+01 -0.17947534488E+02  0.56140080761E+01  0.19047381356E+02  0.51100000000E-03 0. -1.
        -11    1    3    3    0    0 -0.17903386337E+02 -0.44803964231E+01 -0.18787661054E+02  0.26335933676E+02  0.51100000000E-03 0.  1.
         12    1    3    3    0    0 -0.41141998682E+01  0.12684842062E+02 -0.39870020594E+01  0.13918622206E+02  0.00000000000E+00 0. -1.
</event>
<event>
 7    1  0.3449603E-013  0.5930194E+02  0.7816164E-02  0.1266605E+00
        -11   -1    0    0    0    0  0.00000000000E+00  0.00000000000E+00  0.45593999997E+02  0.45594000000E+02  0.51100000000E-03 0. -1.
         11   -1    0    0    0    0 -0.00000000000E+00 -0.00000000000E+00 -0.45593999997E+02  0.45594000000E+02  0.51100000000E-03 0.  1.
    9900012    2    1    2    0    0 -0.11955627016E+02 -0.16650951586E+02 -0.24423950531E+02  0.59301944026E+02  0.49999999996E+02 0.  0.
         12    1    1    2    0    0  0.11955627016E+02  0.16650951586E+02  0.24423950531E+02  0.31886055974E+02  0.00000000000E+00 0. -1.
         11    1    3    3    0    0 -0.95897667943E+01 -0.24461440801E+01  0.12807190710E+01  0.99793531669E+01  0.51100000000E-03 0. -1.
        -11    1    3    3    0    0 -0.18257979321E+02 -0.22033903947E+00 -0.20637620756E+02  0.27555648222E+02  0.51100000000E-03 0.  1.
        -12    1    3    3    0    0  0.15892119099E+02 -0.13984468466E+02 -0.50670488458E+01  0.21766942637E+02  0.00000000000E+00 0.  1.
</event>
<event>
 7    1  0.3449603E-013  0.5930195E+02  0.7816164E-02  0.1266605E+00
        -11   -1    0    0    0    0  0.00000000000E+00  0.00000000000E+00  0.45593999997E+02  0.45594000000E+02  0.51100000000E-03 0.  1.
         11   -1    0    0    0    0 -0.00000000000E+00 -0.00000000000E+00 -0.45593999997E+02  0.45594000000E+02  0.51100000000E-03 0. -1.
    9900012    2    1    2    0    0 -0.28889477970E+02 -0.36915681798E+01  0.12980382141E+02  0.59301953937E+02  0.50000018072E+02 0.  0.
         12    1    1    2    0    0  0.28889477970E+02  0.36915681798E+01 -0.12980382141E+02  0.31886046063E+02  0.00000000000E+00 0. -1.
         11    1    3    3    0    0 -0.25479840302E+02  0.85207570080E+01  0.98909058120E+01  0.28629627658E+02  0.51100000000E-03 0. -1.
        -11    1    3    3    0    0 -0.12080085311E+02  0.30587685049E+01 -0.14193599323E+01  0.12541894146E+02  0.51100000000E-03 0.  1.
        -12    1    3    3    0    0  0.86704476429E+01 -0.15271093693E+02  0.45088362614E+01  0.18130432133E+02  0.00000000000E+00 0.  1.
</event>
<event>
 7    1  0.3449603E-013  0.5930173E+02  0.7816164E-02  0.1266606E+00
        -11   -1    0    0    0    0  0.00000000000E+00  0.00000000000E+00  0.45593999997E+02  0.45594000000E+02  0.51100000000E-03 0.  1.
         11   -1    0    0    0    0 -0.00000000000E+00 -0.00000000000E+00 -0.45593999997E+02  0.45594000000E+02  0.51100000000E-03 0. -1.
    9900012    2    1    2    0    0 -0.10013234530E+02  0.25819221060E+02  0.15806241713E+02  0.59301728362E+02  0.49999606675E+02 0.  0.
         12    1    1    2    0    0  0.10013234530E+02 -0.25819221060E+02 -0.15806241713E+02  0.31886271638E+02  0.00000000000E+00 0. -1.
         11    1    3    3    0    0  0.15195965729E+02  0.17629912314E+02  0.43288825011E+00  0.23279144640E+02  0.51100000000E-03 0. -1.
        -11    1    3    3    0    0 -0.66575602304E+01  0.56066548281E+01  0.14935867874E+02  0.17286926737E+02  0.51100000000E-03 0.  1.
        -12    1    3    3    0    0 -0.18551640029E+02  0.25826539178E+01  0.43748558890E+00  0.18735656985E+02  0.00000000000E+00 0.  1.
</event>
<event>
 7    1  0.3449603E-013  0.5930208E+02  0.7816164E-02  0.1266604E+00
        -11   -1    0    0    0    0  0.00000000000E+00  0.00000000000E+00  0.45593999997E+02  0.45594000000E+02  0.51100000000E-03 0.  1.
         11   -1    0    0    0    0 -0.00000000000E+00 -0.00000000000E+00 -0.45593999997E+02  0.45594000000E+02  0.51100000000E-03 0. -1.
    9900012    2    1    2    0    0 -0.22292722956E+02  0.13591694915E+02  0.18303346201E+02  0.59302075996E+02  0.50000240678E+02 0.  0.
         12    1    1    2    0    0  0.22292722956E+02 -0.13591694915E+02 -0.18303346201E+02  0.31885924004E+02  0.00000000000E+00 0. -1.
         11    1    3    3    0    0 -0.73198008214E+01  0.24382851449E+02  0.47522910276E+01  0.25897629218E+02  0.51100000000E-03 0. -1.
        -11    1    3    3    0    0  0.25194999354E+01  0.52629100546E+01 -0.43061547140E+00  0.58507719245E+01  0.51100000000E-03 0.  1.
        -12    1    3    3    0    0 -0.17492422070E+02 -0.16054066589E+02  0.13981670645E+02  0.27553674853E+02  0.00000000000E+00 0.  1.
</event>
<event>
 7    1  0.3449603E-013  0.5930235E+02  0.7816164E-02  0.1266603E+00
        -11   -1    0    0    0    0  0.00000000000E+00  0.00000000000E+00  0.45593999997E+02  0.45594000000E+02  0.51100000000E-03 0.  1.
         11   -1    0    0    0    0 -0.00000000000E+00 -0.00000000000E+00 -0.45593999997E+02  0.45594000000E+02  0.51100000000E-03 0. -1.
    9900012    2    1    2    0    0  0.29226892673E+02  0.56510235379E+00  0.12734368612E+02  0.59302348996E+02  0.50000738559E+02 0.  0.
         12    1    1    2    0    0 -0.29226892673E+02 -0.56510235379E+00 -0.12734368612E+02  0.31885651004E+02  0.00000000000E+00 0. -1.
         11    1    3    3    0    0  0.18209711394E+01 -0.16369820282E+01  0.15010725567E+02  0.15209126483E+02  0.51100000000E-03 0. -1.
        -11    1    3    3    0    0  0.18486005583E+02  0.12983858151E+01  0.15516088289E+02  0.24169551179E+02  0.51100000000E-03 0.  1.
        -12    1    3    3    0    0  0.89199159512E+01  0.90369856685E+00 -0.17792445244E+02  0.19923671334E+02  0.00000000000E+00 0.  1.
</event>
<event>
 7    1  0.3449603E-013  0.5930195E+02  0.7816164E-02  0.1266605E+00
        -11   -1    0    0    0    0  0.00000000000E+00  0.00000000000E+00  0.45593999997E+02  0.45594000000E+02  0.51100000000E-03 0.  1.
         11   -1    0    0    0    0 -0.00000000000E+00 -0.00000000000E+00 -0.45593999997E+02  0.45594000000E+02  0.51100000000E-03 0. -1.
    9900012    2    1    2    0    0 -0.28565409448E+02 -0.10457176098E+02 -0.95595477227E+01  0.59301951303E+02  0.50000013268E+02 0.  0.
         12    1    1    2    0    0  0.28565409448E+02  0.10457176098E+02  0.95595477227E+01  0.31886048697E+02  0.00000000000E+00 0. -1.
         11    1    3    3    0    0 -0.16080015751E+02 -0.12405212164E+02 -0.19266350511E+02  0.27993721754E+02  0.51100000000E-03 0. -1.
        -11    1    3    3    0    0 -0.40207120792E+01  0.28828909087E+01 -0.92702881197E+01  0.10507874557E+02  0.51100000000E-03 0.  1.
        -12    1    3    3    0    0 -0.84646816177E+01 -0.93485484359E+00  0.18977090908E+02  0.20800354992E+02  0.00000000000E+00 0.  1.
</event>
<event>
 7    1  0.3449603E-013  0.5930196E+02  0.7816164E-02  0.1266605E+00
        -11   -1    0    0    0    0  0.00000000000E+00  0.00000000000E+00  0.45593999997E+02  0.45594000000E+02  0.51100000000E-03 0. -1.
         11   -1    0    0    0    0 -0.00000000000E+00 -0.00000000000E+00 -0.45593999997E+02  0.45594000000E+02  0.51100000000E-03 0.  1.
    9900012    2    1    2    0    0  0.87516570118E+01 -0.29892838426E+02 -0.68224906745E+01  0.59301958091E+02  0.50000025648E+02 0.  0.
         12    1    1    2    0    0 -0.87516570118E+01  0.29892838426E+02  0.68224906745E+01  0.31886041909E+02  0.00000000000E+00 0. -1.
         11    1    3    3    0    0  0.76801740280E+01 -0.12323864094E+02  0.17147545925E+02  0.22470002911E+02  0.51100000000E-03 0. -1.
        -11    1    3    3    0    0  0.23173450382E+01  0.15293664333E+01  0.27873708105E+01  0.39342707087E+01  0.51100000000E-03 0.  1.
        -12    1    3    3    0    0 -0.12458620544E+01 -0.19098340766E+02 -0.26757407410E+02  0.32897684471E+02  0.00000000000E+00 0.  1.
</event>
<event>
 7    1  0.4369816E-013  0.5930194E+02  0.7816164E-02  0.1266605E+00
        -11   -1    0    0    0    0  0.00000000000E+00  0.00000000000E+00  0.45593999997E+02  0.45594000000E+02  0.51100000000E-03 0.  1.
         11   -1    0    0    0    0 -0.00000000000E+00 -0.00000000000E+00 -0.45593999997E+02  0.45594000000E+02  0.51100000000E-03 0. -1.
    9900012    2    1    2    0    0 -0.28570393241E+02  0.11787508249E+02 -0.78427084829E+01  0.59301940397E+02  0.49999993379E+02 0.  0.
         12    1    1    2    0    0  0.28570393241E+02 -0.11787508249E+02  0.78427084829E+01  0.31886059603E+02  0.00000000000E+00 0. -1.
         11    1    3    3    0    0  0.28421034198E+01  0.16067214429E+01 -0.94029447292E+01  0.99536162015E+01  0.51100000000E-03 0. -1.
        -11    1    3    3    0    0 -0.17166230377E+02  0.21520366600E+02 -0.81543477645E+01  0.28710608347E+02  0.51100000000E-03 0.  1.
         12    1    3    3    0    0 -0.14246266284E+02 -0.11339579794E+02  0.97145840108E+01  0.20637715848E+02  0.00000000000E+00 0. -1.
</event>
<event>
 7    1  0.3449603E-013  0.5930193E+02  0.7816164E-02  0.1266605E+00
        -11   -1    0    0    0    0  0.00000000000E+00  0.00000000000E+00  0.45593999997E+02  0.45594000000E+02  0.51100000000E-03 0.  1.
         11   -1    0    0    0    0 -0.00000000000E+00 -0.00000000000E+00 -0.45593999997E+02  0.45594000000E+02  0.51100000000E-03 0. -1.
    9900012    2    1    2    0    0 -0.88468477240E+01 -0.27220269182E+02  0.14053885215E+02  0.59301930022E+02  0.49999974458E+02 0.  0.
         12    1    1    2    0    0  0.88468477240E+01  0.27220269182E+02 -0.14053885215E+02  0.31886069978E+02  0.00000000000E+00 0. -1.
         11    1    3    3    0    0  0.32834046598E+01 -0.59129655481E+01  0.40163804388E+01  0.78660803341E+01  0.51100000000E-03 0. -1.
        -11    1    3    3    0    0  0.14982499023E+02 -0.60770926063E+01 -0.49585346661E+01  0.16911339326E+02  0.51100000000E-03 0.  1.
        -12    1    3    3    0    0 -0.27112751407E+02 -0.15230211028E+02  0.14996039442E+02  0.34524510362E+02  0.00000000000E+00 0.  1.
</event>
<event>
 7    1  0.3449603E-013  0.5930194E+02  0.7816164E-02  0.1266605E+00
        -11   -1    0    0    0    0  0.00000000000E+00  0.00000000000E+00  0.45593999997E+02  0.45594000000E+02  0.51100000000E-03 0.  1.
         11   -1    0    0    0    0 -0.00000000000E+00 -0.00000000000E+00 -0.45593999997E+02  0.45594000000E+02  0.51100000000E-03 0. -1.
    9900012    2    1    2    0    0  0.26158317599E+02  0.11007398481E+02  0.14536174984E+02  0.59301940600E+02  0.49999993748E+02 0.  0.
         12    1    1    2    0    0 -0.26158317599E+02 -0.11007398481E+02 -0.14536174984E+02  0.31886059400E+02  0.00000000000E+00 0. -1.
         11    1    3    3    0    0  0.13000657879E+02 -0.13155675874E+02 -0.40041086503E+01  0.18924106302E+02  0.51100000000E-03 0. -1.
        -11    1    3    3    0    0  0.10794431105E+02  0.63275232004E+01 -0.24313357530E+01  0.12746320510E+02  0.51100000000E-03 0.  1.
        -12    1    3    3    0    0  0.23632286151E+01  0.17835551155E+02  0.20971619387E+02  0.27631513788E+02  0.00000000000E+00 0.  1.
</event>
<event>
 7    1  0.3449603E-013  0.5930212E+02  0.7816164E-02  0.1266604E+00
        -11   -1    0    0    0    0  0.00000000000E+00  0.00000000000E+00  0.45593999997E+02  0.45594000000E+02  0.51100000000E-03 0.  1.
         11   -1    0    0    0    0 -0.00000000000E+00 -0.00000000000E+00 -0.45593999997E+02  0.45594000000E+02  0.51100000000E-03 0. -1.
    9900012    2    1    2    0    0 -0.54320580977E+01 -0.24900191191E+02  0.19162009668E+02  0.59302119252E+02  0.50000319567E+02 0.  0.
         12    1    1    2    0    0  0.54320580977E+01  0.24900191191E+02 -0.19162009668E+02  0.31885880748E+02  0.00000000000E+00 0. -1.
         11    1    3    3    0    0 -0.86806644884E+01  0.11137352261E+02 -0.11744774716E+01  0.14169472430E+02  0.51100000000E-03 0. -1.
        -11    1    3    3    0    0  0.61930316271E+00 -0.20113297563E+02  0.12853299836E+01  0.20163837648E+02  0.51100000000E-03 0.  1.
        -12    1    3    3    0    0  0.26293032280E+01 -0.15924245889E+02  0.19051157156E+02  0.24968809175E+02  0.00000000000E+00 0.  1.
</event>
<event>
 7    1  0.3449603E-013  0.5930195E+02  0.7816164E-02  0.1266605E+00
        -11   -1    0    0    0    0  0.00000000000E+00  0.00000000000E+00  0.45593999997E+02  0.45594000000E+02  0.51100000000E-03 0.  1.
         11   -1    0    0    0    0 -0.00000000000E+00 -0.00000000000E+00 -0.45593999997E+02  0.45594000000E+02  0.51100000000E-03 0. -1.
    9900012    2    1    2    0    0 -0.19584872982E+02  0.11318955161E+02  0.22472967527E+02  0.59301948737E+02  0.50000008589E+02 0.  0.
         12    1    1    2    0    0  0.19584872982E+02 -0.11318955161E+02 -0.22472967527E+02  0.31886051263E+02  0.00000000000E+00 0. -1.
         11    1    3    3    0    0  0.49644600096E+00 -0.24168318769E+01 -0.40450664487E+00  0.25002321572E+01  0.51100000000E-03 0. -1.
        -11    1    3    3    0    0 -0.27075348213E+02  0.22675845911E+02  0.50621555390E+01  0.35677638481E+02  0.51100000000E-03 0.  1.
         12    1    3    3    0    0  0.69940292305E+01 -0.89400588731E+01  0.17815318633E+02  0.21124078099E+02  0.00000000000E+00 0. -1.
</event>
<event>
 7    1  0.3449603E-013  0.5930192E+02  0.7816164E-02  0.1266605E+00
        -11   -1    0    0    0    0  0.00000000000E+00  0.00000000000E+00  0.45593999997E+02  0.45594000000E+02  0.51100000000E-03 0.  1.
         11   -1    0    0    0    0 -0.00000000000E+00 -0.00000000000E+00 -0.45593999997E+02  0.45594000000E+02  0.51100000000E-03 0. -1.
    9900012    2    1    2    0    0  0.21185575821E+02 -0.95854847684E+01  0.21817692961E+02  0.59301923614E+02  0.49999962771E+02 0.  0.
         12    1    1    2    0    0 -0.21185575821E+02  0.95854847684E+01 -0.21817692961E+02  0.31886076386E+02  0.00000000000E+00 0. -1.
         11    1    3    3    0    0  0.21949708998E+02  0.12781164203E+02  0.38866242349E+01  0.25695402929E+02  0.51100000000E-03 0. -1.
        -11    1    3    3    0    0  0.34014285304E+01  0.13922239137E+01  0.22110279101E+00  0.36819682479E+01  0.51100000000E-03 0.  1.
        -12    1    3    3    0    0 -0.41655617072E+01 -0.23758872885E+02  0.17709965936E+02  0.29924552437E+02  0.00000000000E+00 0.  1.
</event>
<event>
 7    1  0.3449603E-013  0.5930197E+02  0.7816164E-02  0.1266605E+00
        -11   -1    0    0    0    0  0.00000000000E+00  0.00000000000E+00  0.45593999997E+02  0.45594000000E+02  0.51100000000E-03 0.  1.
         11   -1    0    0    0    0 -0.00000000000E+00 -0.00000000000E+00 -0.45593999997E+02  0.45594000000E+02  0.51100000000E-03 0. -1.
    9900012    2    1    2    0    0 -0.13085243258E+02 -0.28861585504E+02  0.35360957211E+01  0.59301973564E+02  0.50000053866E+02 0.  0.
         12    1    1    2    0    0  0.13085243258E+02  0.28861585504E+02 -0.35360957211E+01  0.31886026436E+02  0.00000000000E+00 0. -1.
         11    1    3    3    0    0  0.40382674803E+01 -0.40078544246E+01 -0.13866767056E+02  0.14988586664E+02  0.51100000000E-03 0. -1.
        -11    1    3    3    0    0  0.49251927176E+01 -0.12065084532E+02  0.13073622246E+02  0.18459235817E+02  0.51100000000E-03 0.  1.
        -12    1    3    3    0    0 -0.22048703456E+02 -0.12788646548E+02  0.43292405317E+01  0.25854151083E+02  0.00000000000E+00 0.  1.
</event>
<event>
 7    1  0.3449603E-013  0.5930192E+02  0.7816164E-02  0.1266605E+00
        -11   -1    0    0    0    0  0.00000000000E+00  0.00000000000E+00  0.45593999997E+02  0.45594000000E+02  0.51100000000E-03 0. -1.
         11   -1    0    0    0    0 -0.00000000000E+00 -0.00000000000E+00 -0.45593999997E+02  0.45594000000E+02  0.51100000000E-03 0.  1.
    9900012    2    1    2    0    0 -0.15218456899E+02 -0.87522650945E+00 -0.28006329228E+02  0.59301922652E+02  0.49999961016E+02 0.  0.
         12    1    1    2    0    0  0.15218456899E+02  0.87522650945E+00  0.28006329228E+02  0.31886077348E+02  0.00000000000E+00 0. -1.
         11    1    3    3    0    0 -0.15558180890E+02  0.73646849340E+01 -0.90306018584E+01  0.19438295887E+02  0.51100000000E-03 0.  1.
        -11    1    3    3    0    0 -0.15279390707E+02 -0.64986459780E+00 -0.16198698009E+02  0.22277340996E+02  0.51100000000E-03 0. -1.
         12    1    3    3    0    0  0.15619114699E+02 -0.75900468457E+01 -0.27770293600E+01  0.17586285769E+02  0.00000000000E+00 0. -1.
</event>
<event>
 7    1  0.4524434E-013  0.5930193E+02  0.7816164E-02  0.1266605E+00
        -11   -1    0    0    0    0  0.00000000000E+00  0.00000000000E+00  0.45593999997E+02  0.45594000000E+02  0.51100000000E-03 0. -1.
         11   -1    0    0    0    0 -0.00000000000E+00 -0.00000000000E+00 -0.45593999997E+02  0.45594000000E+02  0.51100000000E-03 0.  1.
    9900012    2    1    2    0    0 -0.24168009513E+02 -0.20769836934E+02 -0.11145991296E+01  0.59301934998E+02  0.49999983532E+02 0.  0.
         12    1    1    2    0    0  0.24168009513E+02  0.20769836934E+02  0.11145991296E+01  0.31886065002E+02  0.00000000000E+00 0. -1.
         11    1    3    3    0    0 -0.45573834101E+01 -0.13188495771E+02 -0.85289132820E+01  0.16353853561E+02  0.51100000000E-03 0. -1.
        -11    1    3    3    0    0 -0.26752600513E+02 -0.15162480090E+02  0.97779704232E+01  0.32267803497E+02  0.51100000000E-03 0.  1.
         12    1    3    3    0    0  0.71419744095E+01  0.75811389275E+01 -0.23636562708E+01  0.10680277940E+02  0.00000000000E+00 0. -1.
</event>
<event>
 7    1  0.3449603E-013  0.5930199E+02  0.7816164E-02  0.1266605E+00
        -11   -1    0    0    0    0  0.00000000000E+00  0.00000000000E+00  0.45593999997E+02  0.45594000000E+02  0.51100000000E-03 0.  1.
         11   -1    0    0    0    0 -0.00000000000E+00 -0.00000000000E+00 -0.45593999997E+02  0.45594000000E+02  0.51100000000E-03 0. -1.
    9900012    2    1    2    0    0  0.28559229389E+02 -0.40585457689E+01  0.13587356109E+02  0.59301990167E+02  0.50000084146E+02 0.  0.
         12    1    1    2    0    0 -0.28559229389E+02  0.40585457689E+01 -0.13587356109E+02  0.31886009833E+02  0.00000000000E+00 0. -1.
         11    1    3    3    0    0 -0.63803477332E+01 -0.16821397883E+01  0.39225824204E+01  0.76762676198E+01  0.51100000000E-03 0. -1.
        -11    1    3    3    0    0  0.18925806800E+02 -0.92046618598E+00  0.23657381661E+02  0.30310148933E+02  0.51100000000E-03 0.  1.
         12    1    3    3    0    0  0.16013770323E+02 -0.14559397946E+01 -0.13992607972E+02  0.21315573614E+02  0.00000000000E+00 0. -1.
</event>
<event>
 7    1  0.3449603E-013  0.5930192E+02  0.7816164E-02  0.1266605E+00
        -11   -1    0    0    0    0  0.00000000000E+00  0.00000000000E+00  0.45593999997E+02  0.45594000000E+02  0.51100000000E-03 0. -1.
         11   -1    0    0    0    0 -0.00000000000E+00 -0.00000000000E+00 -0.45593999997E+02  0.45594000000E+02  0.51100000000E-03 0.  1.
    9900012    2    1    2    0    0  0.12924819921E+02  0.29142673914E+02  0.61295667598E+00  0.59301919515E+02  0.49999955294E+02 0.  0.
         12    1    1    2    0    0 -0.12924819921E+02 -0.29142673914E+02 -0.61295667598E+00  0.31886080485E+02  0.00000000000E+00 0. -1.
         11    1    3    3    0    0  0.20333870415E+02  0.95730584813E+01  0.11584742331E+02  0.25284698730E+02  0.51100000000E-03 0. -1.
        -11    1    3    3    0    0  0.72580708412E+01  0.25303776296E+01  0.21553508827E+01  0.79829782019E+01  0.51100000000E-03 0.  1.
         12    1    3    3    0    0 -0.14667121335E+02  0.17039237803E+02 -0.13127136538E+02  0.26034242583E+02  0.00000000000E+00 0. -1.
</event>
<event>
 7    1  0.3449603E-013  0.5930199E+02  0.7816164E-02  0.1266605E+00
        -11   -1    0    0    0    0  0.00000000000E+00  0.00000000000E+00  0.45593999997E+02  0.45594000000E+02  0.51100000000E-03 0.  1.
         11   -1    0    0    0    0 -0.00000000000E+00 -0.00000000000E+00 -0.45593999997E+02  0.45594000000E+02  0.51100000000E-03 0. -1.
    9900012    2    1    2    0    0  0.21450893369E+02  0.58005867104E+01  0.22867661107E+02  0.59301991202E+02  0.50000086035E+02 0.  0.
         12    1    1    2    0    0 -0.21450893369E+02 -0.58005867104E+01 -0.22867661107E+02  0.31886008798E+02  0.00000000000E+00 0. -1.
         11    1    3    3    0    0 -0.60173880950E+01  0.55889268928E+01  0.11727289167E+02  0.14316926163E+02  0.51100000000E-03 0.  1.
        -11    1    3    3    0    0  0.14470566641E+02  0.14044547354E+02  0.15590113574E+02  0.25489179093E+02  0.51100000000E-03 0. -1.
         12    1    3    3    0    0  0.12997714823E+02 -0.13832887537E+02 -0.44497416341E+01  0.19495885946E+02  0.00000000000E+00 0. -1.
</event>
<event>
 7    1  0.3449603E-013  0.5930194E+02  0.7816164E-02  0.1266605E+00
        -11   -1    0    0    0    0  0.00000000000E+00  0.00000000000E+00  0.45593999997E+02  0.45594000000E+02  0.51100000000E-03 0. -1.
         11   -1    0    0    0    0 -0.00000000000E+00 -0.00000000000E+00 -0.45593999997E+02  0.45594000000E+02  0.51100000000E-03 0.  1.
    9900012    2    1    2    0    0  0.80638429367E+01 -0.29437149545E+02 -0.92276558447E+01  0.59301937705E+02  0.49999988469E+02 0.  0.
         12    1    1    2    0    0 -0.80638429367E+01  0.29437149545E+02  0.92276558447E+01  0.31886062295E+02  0.00000000000E+00 0. -1.
         11    1    3    3    0    0  0.97552731004E+00  0.85900985881E+01  0.29006197597E+00  0.86501782350E+01  0.51100000000E-03 0. -1.
        -11    1    3    3    0    0  0.10859013065E+00 -0.67738447550E+01  0.10783959722E+02  0.12735405456E+02  0.51100000000E-03 0.  1.
        -12    1    3    3    0    0  0.69797254960E+01 -0.31253403379E+02 -0.20301677542E+02  0.37916354015E+02  0.00000000000E+00 0.  1.
</event>
<event>
 7    1  0.3449603E-013  0.5930202E+02  0.7816164E-02  0.1266604E+00
        -11   -1    0    0    0    0  0.00000000000E+00  0.00000000000E+00  0.45593999997E+02  0.45594000000E+02  0.51100000000E-03 0. -1.
         11   -1    0    0    0    0 -0.00000000000E+00 -0.00000000000E+00 -0.45593999997E+02  0.45594000000E+02  0.51100000000E-03 0.  1.
    9900012    2    1    2    0    0  0.24355068594E+02  0.16391762355E+02 -0.12444133770E+02  0.59302020250E+02  0.50000139011E+02 0.  0.
         12    1    1    2    0    0 -0.24355068594E+02 -0.16391762355E+02  0.12444133770E+02  0.31885979750E+02  0.00000000000E+00 0. -1.
         11    1    3    3    0    0  0.49565352475E+01  0.13031492784E+02  0.83329846740E+01  0.16242711587E+02  0.51100000000E-03 0. -1.
        -11    1    3    3    0    0  0.73386290410E+01  0.14685328972E+02  0.10593350450E+00  0.16417234402E+02  0.51100000000E-03 0.  1.
        -12    1    3    3    0    0  0.12059904305E+02 -0.11325059401E+02 -0.20883051948E+02  0.26642074262E+02  0.00000000000E+00 0.  1.
</event>
<event>
 7    1  0.3449603E-013  0.5930196E+02  0.7816164E-02  0.1266605E+00
        -11   -1    0    0    0    0  0.00000000000E+00  0.00000000000E+00  0.45593999997E+02  0.45594000000E+02  0.51100000000E-03 0. -1.
         11   -1    0    0    0    0 -0.00000000000E+00 -0.00000000000E+00 -0.45593999997E+02  0.45594000000E+02  0.51100000000E-03 0.  1.
    9900012    2    1    2    0    0 -0.10305013177E+02 -0.21541276975E+01 -0.30097942359E+02  0.59301957647E+02  0.50000024838E+02 0.  0.
         12    1    1    2    0    0  0.10305013177E+02  0.21541276975E+01  0.30097942359E+02  0.31886042353E+02  0.00000000000E+00 0. -1.
         11    1    3    3    0    0  0.85916208765E+01 -0.25122663647E+01  0.27802083526E+01  0.93732059786E+01  0.51100000000E-03 0. -1.
        -11    1    3    3    0    0 -0.27380835619E+01  0.13421530338E+02 -0.38472577223E+01  0.14227999524E+02  0.51100000000E-03 0.  1.
         12    1    3    3    0    0 -0.16158550492E+02 -0.13063391671E+02 -0.29030892989E+02  0.35700752144E+02  0.00000000000E+00 0. -1.
</event>
<event>
 7    1  0.3449603E-013  0.5930197E+02  0.7816164E-02  0.1266605E+00
        -11   -1    0    0    0    0  0.00000000000E+00  0.00000000000E+00  0.45593999997E+02  0.45594000000E+02  0.51100000000E-03 0. -1.
         11   -1    0    0    0    0 -0.00000000000E+00 -0.00000000000E+00 -0.45593999997E+02  0.45594000000E+02  0.51100000000E-03 0.  1.
    9900012    2    1    2    0    0 -0.11446714304E+02  0.17252194759E+02 -0.24249811389E+02  0.59301971009E+02  0.50000049208E+02 0.  0.
         12    1    1    2    0    0  0.11446714304E+02 -0.17252194759E+02  0.24249811389E+02  0.31886028991E+02  0.00000000000E+00 0. -1.
         11    1    3    3    0    0  0.68415960598E+01  0.98137376313E+01 -0.71511480541E+01  0.13937567998E+02  0.51100000000E-03 0. -1.
        -11    1    3    3    0    0  0.10974975138E+02  0.72705373050E+00 -0.91489286733E+01  0.14306697122E+02  0.51100000000E-03 0.  1.
        -12    1    3    3    0    0 -0.29263285502E+02  0.67114033977E+01 -0.79497346622E+01  0.31057705890E+02  0.00000000000E+00 0.  1.
</event>
<event>
 7    1  0.3449603E-013  0.5930197E+02  0.7816164E-02  0.1266605E+00
        -11   -1    0    0    0    0  0.00000000000E+00  0.00000000000E+00  0.45593999997E+02  0.45594000000E+02  0.51100000000E-03 0.  1.
         11   -1    0    0    0    0 -0.00000000000E+00 -0.00000000000E+00 -0.45593999997E+02  0.45594000000E+02  0.51100000000E-03 0. -1.
    9900012    2    1    2    0    0 -0.13876350527E+02 -0.21837194261E+02  0.18636068503E+02  0.59301965339E+02  0.50000038867E+02 0.  0.
         12    1    1    2    0    0  0.13876350527E+02  0.21837194261E+02 -0.18636068503E+02  0.31886034661E+02  0.00000000000E+00 0. -1.
         11    1    3    3    0    0 -0.17367076241E+02 -0.15731891470E+02 -0.25638776080E+01  0.23572891529E+02  0.51100000000E-03 0. -1.
        -11    1    3    3    0    0 -0.65181213602E+01  0.66232260843E+01  0.16383791843E+02  0.18835648788E+02  0.51100000000E-03 0.  1.
        -12    1    3    3    0    0  0.10008847074E+02 -0.12728528875E+02  0.48161542680E+01  0.16893425023E+02  0.00000000000E+00 0.  1.
</event>
<event>
 7    1  0.3449603E-013  0.5930194E+02  0.7816164E-02  0.1266605E+00
        -11   -1    0    0    0    0  0.00000000000E+00  0.00000000000E+00  0.45593999997E+02  0.45594000000E+02  0.51100000000E-03 0.  1.
         11   -1    0    0    0    0 -0.00000000000E+00 -0.00000000000E+00 -0.45593999997E+02  0.45594000000E+02  0.51100000000E-03 0. -1.
    9900012    2    1    2    0    0  0.10814403798E+02  0.25047094814E+02  0.16504918460E+02  0.59301943149E+02  0.49999998397E+02 0.  0.
         12    1    1    2    0    0 -0.10814403798E+02 -0.25047094814E+02 -0.16504918460E+02  0.31886056851E+02  0.00000000000E+00 0. -1.
         11    1    3    3    0    0 -0.51298609771E+01  0.81653305724E+00 -0.17324028057E+01  0.54757117912E+01  0.51100000000E-03 0. -1.
        -11    1    3    3    0    0  0.25151542007E+02  0.30037349076E+02  0.10785856017E+02  0.40634678479E+02  0.51100000000E-03 0.  1.
         12    1    3    3    0    0 -0.92072772311E+01 -0.58067873192E+01  0.74514652491E+01  0.13191552878E+02  0.00000000000E+00 0. -1.
</event>
<event>
 7    1  0.3449603E-013  0.5930195E+02  0.7816164E-02  0.1266605E+00
        -11   -1    0    0    0    0  0.00000000000E+00  0.00000000000E+00  0.45593999997E+02  0.45594000000E+02  0.51100000000E-03 0. -1.
         11   -1    0    0    0    0 -0.00000000000E+00 -0.00000000000E+00 -0.45593999997E+02  0.45594000000E+02  0.51100000000E-03 0.  1.
    9900012    2    1    2    0    0 -0.29282239801E+01  0.30750013998E+02 -0.79109078396E+01  0.59301947886E+02  0.50000007036E+02 0.  0.
         12    1    1    2    0    0  0.29282239801E+01 -0.30750013998E+02  0.79109078396E+01  0.31886052114E+02  0.00000000000E+00 0. -1.
         11    1    3    3    0    0  0.57445390741E+01 -0.15153923446E+01  0.22105131674E+00  0.59451666989E+01  0.51100000000E-03 0. -1.
        -11    1    3    3    0    0  0.81376349580E+01 -0.63956002756E+01 -0.35908194209E+01  0.10955308757E+02  0.51100000000E-03 0.  1.
         12    1    3    3    0    0 -0.16810398012E+02  0.38661006619E+02 -0.45411397355E+01  0.42401472430E+02  0.00000000000E+00 0. -1.
</event>
<event>
 7    1  0.3449603E-013  0.5930196E+02  0.7816164E-02  0.1266605E+00
        -11   -1    0    0    0    0  0.00000000000E+00  0.00000000000E+00  0.45593999997E+02  0.45594000000E+02  0.51100000000E-03 0. -1.
         11   -1    0    0    0    0 -0.00000000000E+00 -0.00000000000E+00 -0.45593999997E+02  0.45594000000E+02  0.51100000000E-03 0.  1.
    9900012    2    1    2    0    0  0.55382166892E+01 -0.10167148383E+02 -0.29709876973E+02  0.59301960106E+02  0.50000029324E+02 0.  0.
         12    1    1    2    0    0 -0.55382166892E+01  0.10167148383E+02  0.29709876973E+02  0.31886039894E+02  0.00000000000E+00 0. -1.
         11    1    3    3    0    0  0.94972265674E+01 -0.81325916778E+01 -0.13466289835E+02  0.18375998532E+02  0.51100000000E-03 0. -1.
        -11    1    3    3    0    0  0.15616187480E+02  0.54961391414E+01 -0.80495263917E+01  0.18408360391E+02  0.51100000000E-03 0.  1.
         12    1    3    3    0    0 -0.19575197358E+02 -0.75306958467E+01 -0.81940607466E+01  0.22517601184E+02  0.00000000000E+00 0. -1.
</event>
<event>
 7    1  0.3449603E-013  0.5930195E+02  0.7816164E-02  0.1266605E+00
        -11   -1    0    0    0    0  0.00000000000E+00  0.00000000000E+00  0.45593999997E+02  0.45594000000E+02  0.51100000000E-03 0.  1.
         11   -1    0    0    0    0 -0.00000000000E+00 -0.00000000000E+00 -0.45593999997E+02  0.45594000000E+02  0.51100000000E-03 0. -1.
    9900012    2    1    2    0    0 -0.25022538824E+02  0.18816608919E+02  0.60438352002E+01  0.59301950318E+02  0.50000011472E+02 0.  0.
         12    1    1    2    0    0  0.25022538824E+02 -0.18816608919E+02 -0.60438352002E+01  0.31886049682E+02  0.00000000000E+00 0. -1.
         11    1    3    3    0    0 -0.58776244088E+01  0.21665292513E+02  0.20201282352E+02  0.30199721477E+02  0.51100000000E-03 0.  1.
        -11    1    3    3    0    0 -0.13721057159E+01 -0.69615410160E+01 -0.28957921924E+01  0.76636375238E+01  0.51100000000E-03 0. -1.
        -12    1    3    3    0    0 -0.17772808699E+02  0.41128574224E+01 -0.11261654960E+02  0.21438591317E+02  0.00000000000E+00 0.  1.
</event>
<event>
 7    1  0.3449603E-013  0.5930189E+02  0.7816164E-02  0.1266605E+00
        -11   -1    0    0    0    0  0.00000000000E+00  0.00000000000E+00  0.45593999997E+02  0.45594000000E+02  0.51100000000E-03 0. -1.
         11   -1    0    0    0    0 -0.00000000000E+00 -0.00000000000E+00 -0.45593999997E+02  0.45594000000E+02  0.51100000000E-03 0.  1.
    9900012    2    1    2    0    0 -0.57607417648E+01  0.29545084718E+01 -0.31221924725E+02  0.59301892531E+02  0.49999906083E+02 0.  0.
         12    1    1    2    0    0  0.57607417648E+01 -0.29545084718E+01  0.31221924725E+02  0.31886107469E+02  0.00000000000E+00 0. -1.
         11    1    3    3    0    0  0.12282287273E+02 -0.31384627910E+01 -0.45863538505E+00  0.12685222743E+02  0.51100000000E-03 0. -1.
        -11    1    3    3    0    0 -0.25918065875E+00  0.12725063924E+02 -0.31541238951E+01  0.13112700877E+02  0.51100000000E-03 0.  1.
        -12    1    3    3    0    0 -0.17783848379E+02 -0.66320926616E+01 -0.27609165444E+02  0.33503968911E+02  0.00000000000E+00 0.  1.
</event>
<event>
 7    1  0.3449603E-013  0.5930193E+02  0.7816164E-02  0.1266605E+00
        -11   -1    0    0    0    0  0.00000000000E+00  0.00000000000E+00  0.45593999997E+02  0.45594000000E+02  0.51100000000E-03 0. -1.
         11   -1    0    0    0    0 -0.00000000000E+00 -0.00000000000E+00 -0.45593999997E+02  0.45594000000E+02  0.51100000000E-03 0.  1.
    9900012    2    1    2    0    0 -0.28184391391E+02  0.74087269214E+01 -0.12941098728E+02  0.59301934251E+02  0.49999982170E+02 0.  0.
         12    1    1    2    0    0  0.28184391391E+02 -0.74087269214E+01  0.12941098728E+02  0.31886065749E+02  0.00000000000E+00 0. -1.
         11    1    3    3    0    0 -0.25937886211E+02  0.15758150528E+01  0.48542291616E+01  0.26435216571E+02  0.51100000000E-03 0. -1.
        -11    1    3    3    0    0 -0.13169961546E+02  0.84737216974E+01 -0.65705994988E+01  0.16983068761E+02  0.51100000000E-03 0.  1.
         12    1    3    3    0    0  0.10923456366E+02 -0.26408098287E+01 -0.11224728391E+02  0.15883648918E+02  0.00000000000E+00 0. -1.
</event>
<event>
 7    1  0.3449603E-013  0.5930192E+02  0.7816164E-02  0.1266605E+00
        -11   -1    0    0    0    0  0.00000000000E+00  0.00000000000E+00  0.45593999997E+02  0.45594000000E+02  0.51100000000E-03 0.  1.
         11   -1    0    0    0    0 -0.00000000000E+00 -0.00000000000E+00 -0.45593999997E+02  0.45594000000E+02  0.51100000000E-03 0. -1.
    9900012    2    1    2    0    0 -0.28901511507E+02 -0.10878442141E+02  0.79425430286E+01  0.59301923720E+02  0.49999962963E+02 0.  0.
         12    1    1    2    0    0  0.28901511507E+02  0.10878442141E+02 -0.79425430286E+01  0.31886076280E+02  0.00000000000E+00 0. -1.
         11    1    3    3    0    0 -0.18636306057E+01  0.15289754923E+02 -0.16348059247E+01  0.15489425919E+02  0.51100000000E-03 0. -1.
        -11    1    3    3    0    0 -0.26620202319E+01 -0.43627482408E+01  0.98597588046E+01  0.11105618752E+02  0.51100000000E-03 0.  1.
        -12    1    3    3    0    0 -0.24375860669E+02 -0.21805448823E+02 -0.28240985132E+00  0.32706879048E+02  0.00000000000E+00 0.  1.
</event>
<event>
 7    1  0.3449603E-013  0.5930227E+02  0.7816164E-02  0.1266604E+00
        -11   -1    0    0    0    0  0.00000000000E+00  0.00000000000E+00  0.45593999997E+02  0.45594000000E+02  0.51100000000E-03 0. -1.
         11   -1    0    0    0    0 -0.00000000000E+00 -0.00000000000E+00 -0.45593999997E+02  0.45594000000E+02  0.51100000000E-03 0.  1.
    9900012    2    1    2    0    0 -0.23777193435E+02 -0.35079213594E+01 -0.20953267758E+02  0.59302268557E+02  0.50000591859E+02 0.  0.
         12    1    1    2    0    0  0.23777193435E+02  0.35079213594E+01  0.20953267758E+02  0.31885731443E+02  0.00000000000E+00 0. -1.
         11    1    3    3    0    0 -0.28522022202E+01  0.12261385808E+02  0.28446249404E+01  0.12906143140E+02  0.51100000000E-03 0. -1.
        -11    1    3    3    0    0 -0.19918211586E+02 -0.10936088977E+02 -0.65489769426E+00  0.22732401680E+02  0.51100000000E-03 0.  1.
        -12    1    3    3    0    0 -0.10067796287E+01 -0.48332181901E+01 -0.23142995005E+02  0.23663723737E+02  0.00000000000E+00 0.  1.
</event>
<event>
 7    1  0.3449603E-013  0.5930196E+02  0.7816164E-02  0.1266605E+00
        -11   -1    0    0    0    0  0.00000000000E+00  0.00000000000E+00  0.45593999997E+02  0.45594000000E+02  0.51100000000E-03 0.  1.
         11   -1    0    0    0    0 -0.00000000000E+00 -0.00000000000E+00 -0.45593999997E+02  0.45594000000E+02  0.51100000000E-03 0. -1.
    9900012    2    1    2    0    0 -0.77443473205E+01 -0.26773705722E+02  0.15489141653E+02  0.59301956930E+02  0.50000023531E+02 0.  0.
         12    1    1    2    0    0  0.77443473205E+01  0.26773705722E+02 -0.15489141653E+02  0.31886043070E+02  0.00000000000E+00 0. -1.
         11    1    3    3    0    0 -0.98822863004E+01  0.10632925727E+01 -0.11469580891E+02  0.15177004306E+02  0.51100000000E-03 0. -1.
        -11    1    3    3    0    0 -0.22074497303E+01 -0.11043463598E+02 -0.90994428044E+00  0.11298624757E+02  0.51100000000E-03 0.  1.
         12    1    3    3    0    0  0.43453887101E+01 -0.16793534697E+02  0.27868666824E+02  0.32826327867E+02  0.00000000000E+00 0. -1.
</event>
<event>
 7    1  0.3449603E-013  0.5930194E+02  0.7816164E-02  0.1266605E+00
        -11   -1    0    0    0    0  0.00000000000E+00  0.00000000000E+00  0.45593999997E+02  0.45594000000E+02  0.51100000000E-03 0.  1.
         11   -1    0    0    0    0 -0.00000000000E+00 -0.00000000000E+00 -0.45593999997E+02  0.45594000000E+02  0.51100000000E-03 0. -1.
    9900012    2    1    2    0    0  0.21714009674E+02 -0.10085232822E+02  0.21059691221E+02  0.59301941424E+02  0.49999995251E+02 0.  0.
         12    1    1    2    0    0 -0.21714009674E+02  0.10085232822E+02 -0.21059691221E+02  0.31886058576E+02  0.00000000000E+00 0. -1.
         11    1    3    3    0    0 -0.25872180926E+01 -0.11573324074E+02  0.21754623439E+02  0.24776988695E+02  0.51100000000E-03 0. -1.
        -11    1    3    3    0    0  0.15396477322E+02 -0.53710889230E+01  0.99016490987E+01  0.19077284012E+02  0.51100000000E-03 0.  1.
         12    1    3    3    0    0  0.89047504445E+01  0.68591801754E+01 -0.10596581316E+02  0.15447668716E+02  0.00000000000E+00 0. -1.
</event>
<event>
 7    1  0.3449603E-013  0.5930195E+02  0.7816164E-02  0.1266605E+00
        -11   -1    0    0    0    0  0.00000000000E+00  0.00000000000E+00  0.45593999997E+02  0.45594000000E+02  0.51100000000E-03 0.  1.
         11   -1    0    0    0    0 -0.00000000000E+00 -0.00000000000E+00 -0.45593999997E+02  0.45594000000E+02  0.51100000000E-03 0. -1.
    9900012    2    1    2    0    0  0.13193266798E+02  0.31024857694E+01  0.28862299858E+02  0.59301951956E+02  0.50000014459E+02 0.  0.
         12    1    1    2    0    0 -0.13193266798E+02 -0.31024857694E+01 -0.28862299858E+02  0.31886048044E+02  0.00000000000E+00 0. -1.
         11    1    3    3    0    0  0.80420677343E+01  0.15190758304E+02 -0.41252908822E+01  0.17676312297E+02  0.51100000000E-03 0. -1.
        -11    1    3    3    0    0  0.79933848315E+01 -0.96763985317E+01  0.51940850950E+01  0.13583276845E+02  0.51100000000E-03 0.  1.
        -12    1    3    3    0    0 -0.28421857678E+01 -0.24118740031E+01  0.27793505645E+02  0.28042362814E+02  0.00000000000E+00 0.  1.
</event>
<event>
 7    1  0.3449603E-013  0.5930196E+02  0.7816164E-02  0.1266605E+00
        -11   -1    0    0    0    0  0.00000000000E+00  0.00000000000E+00  0.45593999997E+02  0.45594000000E+02  0.51100000000E-03 0.  1.
         11   -1    0    0    0    0 -0.00000000000E+00 -0.00000000000E+00 -0.45593999997E+02  0.45594000000E+02  0.51100000000E-03 0. -1.
    9900012    2    1    2    0    0  0.19538546300E+02  0.18619846937E+02  0.16978406893E+02  0.59301956155E+02  0.50000022118E+02 0.  0.
         12    1    1    2    0    0 -0.19538546300E+02 -0.18619846937E+02 -0.16978406893E+02  0.31886043845E+02  0.00000000000E+00 0. -1.
         11    1    3    3    0    0 -0.36009254575E+01 -0.68292227436E+01  0.18920365856E+02  0.20434901316E+02  0.51100000000E-03 0. -1.
        -11    1    3    3    0    0  0.24223832503E+01  0.20517156108E+01  0.58529761254E+01  0.66584388069E+01  0.51100000000E-03 0.  1.
         12    1    3    3    0    0  0.20717088507E+02  0.23397354069E+02 -0.77949350888E+01  0.32208616032E+02  0.00000000000E+00 0. -1.
</event>
<event>
 7    1  0.3449603E-013  0.5930193E+02  0.7816164E-02  0.1266605E+00
        -11   -1    0    0    0    0  0.00000000000E+00  0.00000000000E+00  0.45593999997E+02  0.45594000000E+02  0.51100000000E-03 0. -1.
         11   -1    0    0    0    0 -0.00000000000E+00 -0.00000000000E+00 -0.45593999997E+02  0.45594000000E+02  0.51100000000E-03 0.  1.
    9900012    2    1    2    0    0  0.95138616052E+01  0.21509510093E+02 -0.21530179677E+02  0.59301933701E+02  0.49999981166E+02 0.  0.
         12    1    1    2    0    0 -0.95138616052E+01 -0.21509510093E+02  0.21530179677E+02  0.31886066299E+02  0.00000000000E+00 0. -1.
         11    1    3    3    0    0  0.42019689119E+01  0.12136070615E+02 -0.34140257318E+02  0.36475991045E+02  0.51100000000E-03 0. -1.
        -11    1    3    3    0    0 -0.16436530404E+01  0.48643187222E+00 -0.30645572272E+01  0.35113704651E+01  0.51100000000E-03 0.  1.
         12    1    3    3    0    0  0.69555457337E+01  0.88870076065E+01  0.15674634868E+02  0.19314572191E+02  0.00000000000E+00 0. -1.
</event>
<event>
 7    1  0.3449603E-013  0.5930192E+02  0.7816164E-02  0.1266605E+00
        -11   -1    0    0    0    0  0.00000000000E+00  0.00000000000E+00  0.45593999997E+02  0.45594000000E+02  0.51100000000E-03 0. -1.
         11   -1    0    0    0    0 -0.00000000000E+00 -0.00000000000E+00 -0.45593999997E+02  0.45594000000E+02  0.51100000000E-03 0.  1.
    9900012    2    1    2    0    0 -0.19074005420E+02  0.24626776305E+02  0.68137009134E+01  0.59301916608E+02  0.49999949993E+02 0.  0.
         12    1    1    2    0    0  0.19074005420E+02 -0.24626776305E+02 -0.68137009134E+01  0.31886083392E+02  0.00000000000E+00 0. -1.
         11    1    3    3    0    0 -0.95665131115E+01  0.11013932206E+01  0.66507001014E+01  0.11703121474E+02  0.51100000000E-03 0. -1.
        -11    1    3    3    0    0  0.81683368253E+01 -0.53419776709E+01 -0.81823544942E+01  0.12736144521E+02  0.51100000000E-03 0.  1.
         12    1    3    3    0    0 -0.17675829134E+02  0.28867360756E+02  0.83453553062E+01  0.34862650613E+02  0.00000000000E+00 0. -1.
</event>
<event>
 7    1  0.3449603E-013  0.5930192E+02  0.7816164E-02  0.1266605E+00
        -11   -1    0    0    0    0  0.00000000000E+00  0.00000000000E+00  0.45593999997E+02  0.45594000000E+02  0.51100000000E-03 0.  1.
         11   -1    0    0    0    0 -0.00000000000E+00 -0.00000000000E+00 -0.45593999997E+02  0.45594000000E+02  0.51100000000E-03 0. -1.
    9900012    2    1    2    0    0  0.19021428924E+01 -0.14208434631E+02  0.28481997493E+02  0.59301922420E+02  0.49999960593E+02 0.  0.
         12    1    1    2    0    0 -0.19021428924E+01  0.14208434631E+02 -0.28481997493E+02  0.31886077580E+02  0.00000000000E+00 0. -1.
         11    1    3    3    0    0  0.17183847290E+01  0.82587969565E+01  0.52030756164E+00  0.84517035836E+01  0.51100000000E-03 0. -1.
        -11    1    3    3    0    0  0.17187758213E+02 -0.48294188330E+01  0.99184016737E+01  0.20423442675E+02  0.51100000000E-03 0.  1.
        -12    1    3    3    0    0 -0.17004000050E+02 -0.17637812754E+02  0.18043288258E+02  0.30426776162E+02  0.00000000000E+00 0.  1.
</event>
<event>
 7    1  0.3449603E-013  0.5930195E+02  0.7816164E-02  0.1266605E+00
        -11   -1    0    0    0    0  0.00000000000E+00  0.00000000000E+00  0.45593999997E+02  0.45594000000E+02  0.51100000000E-03 0. -1.
         11   -1    0    0    0    0 -0.00000000000E+00 -0.00000000000E+00 -0.45593999997E+02  0.45594000000E+02  0.51100000000E-03 0.  1.
    9900012    2    1    2    0    0 -0.19261896221E+02 -0.12585680366E+02  0.22074870351E+02  0.59301954505E+02  0.50000019108E+02 0.  0.
         12    1    1    2    0    0  0.19261896221E+02  0.12585680366E+02 -0.22074870351E+02  0.31886045495E+02  0.00000000000E+00 0. -1.
         11    1    3    3    0    0 -0.19912473277E+02 -0.98131168230E+01  0.68626216793E+01  0.23235736062E+02  0.51100000000E-03 0. -1.
        -11    1    3    3    0    0 -0.80803071229E+01 -0.15083670897E+02  0.49436188923E+01  0.17811453027E+02  0.51100000000E-03 0.  1.
         12    1    3    3    0    0  0.87308841789E+01  0.12311107354E+02  0.10268629780E+02  0.18254765416E+02  0.00000000000E+00 0. -1.
</event>
<event>
 7    1  0.3449603E-013  0.5930195E+02  0.7816164E-02  0.1266605E+00
        -11   -1    0    0    0    0  0.00000000000E+00  0.00000000000E+00  0.45593999997E+02  0.45594000000E+02  0.51100000000E-03 0. -1.
         11   -1    0    0    0    0 -0.00000000000E+00 -0.00000000000E+00 -0.45593999997E+02  0.45594000000E+02  0.51100000000E-03 0.  1.
    9900012    2    1    2    0    0  0.28405926595E+02  0.12179874393E+02 -0.78405392682E+01  0.59301951923E+02  0.50000014398E+02 0.  0.
         12    1    1    2    0    0 -0.28405926595E+02 -0.12179874393E+02  0.78405392682E+01  0.31886048077E+02  0.00000000000E+00 0. -1.
         11    1    3    3    0    0  0.11302636369E+01  0.45203067221E+01 -0.11245885903E+02  0.12172946183E+02  0.51100000000E-03 0. -1.
        -11    1    3    3    0    0 -0.18968562847E+01  0.15569722711E+02  0.59969269233E+01  0.16792184546E+02  0.51100000000E-03 0.  1.
         12    1    3    3    0    0  0.29172519243E+02 -0.79101550396E+01 -0.25915802881E+01  0.30336821194E+02  0.00000000000E+00 0. -1.
</event>
<event>
 7    1  0.3449603E-013  0.5930196E+02  0.7816164E-02  0.1266605E+00
        -11   -1    0    0    0    0  0.00000000000E+00  0.00000000000E+00  0.45593999997E+02  0.45594000000E+02  0.51100000000E-03 0. -1.
         11   -1    0    0    0    0 -0.00000000000E+00 -0.00000000000E+00 -0.45593999997E+02  0.45594000000E+02  0.51100000000E-03 0.  1.
    9900012    2    1    2    0    0  0.36153601898E+01 -0.52812374040E+01 -0.31237109712E+02  0.59301963543E+02  0.50000035591E+02 0.  0.
         12    1    1    2    0    0 -0.36153601898E+01  0.52812374040E+01  0.31237109712E+02  0.31886036457E+02  0.00000000000E+00 0. -1.
         11    1    3    3    0    0 -0.14811551971E+02  0.75733091894E+01 -0.31501834910E+02  0.35624467530E+02  0.51100000000E-03 0.  1.
        -11    1    3    3    0    0  0.75269769510E+01 -0.32444736344E+01 -0.30974312771E+01  0.87621956132E+01  0.51100000000E-03 0. -1.
        -12    1    3    3    0    0  0.10899935210E+02 -0.96100729590E+01  0.33621564750E+01  0.14915300400E+02  0.00000000000E+00 0.  1.
</event>
<event>
 7    1  0.3449603E-013  0.5930194E+02  0.7816164E-02  0.1266605E+00
        -11   -1    0    0    0    0  0.00000000000E+00  0.00000000000E+00  0.45593999997E+02  0.45594000000E+02  0.51100000000E-03 0.  1.
         11   -1    0    0    0    0 -0.00000000000E+00 -0.00000000000E+00 -0.45593999997E+02  0.45594000000E+02  0.51100000000E-03 0. -1.
    9900012    2    1    2    0    0  0.19527357380E+02 -0.22279756886E+02  0.11790481568E+02  0.59301941781E+02  0.49999995903E+02 0.  0.
         12    1    1    2    0    0 -0.19527357380E+02  0.22279756886E+02 -0.11790481568E+02  0.31886058219E+02  0.00000000000E+00 0. -1.
         11    1    3    3    0    0  0.17696167800E+02  0.90686690456E+01 -0.37866622260E+01  0.20241885390E+02  0.51100000000E-03 0.  1.
        -11    1    3    3    0    0 -0.60324419804E+01 -0.37311062467E+01  0.26947168206E+01  0.75876879928E+01  0.51100000000E-03 0. -1.
        -12    1    3    3    0    0  0.78636315605E+01 -0.27617319685E+02  0.12882426973E+02  0.31472368398E+02  0.00000000000E+00 0.  1.
</event>
<event>
 7    1  0.3876306E-013  0.5930194E+02  0.7816164E-02  0.1266605E+00
        -11   -1    0    0    0    0  0.00000000000E+00  0.00000000000E+00  0.45593999997E+02  0.45594000000E+02  0.51100000000E-03 0. -1.
         11   -1    0    0    0    0 -0.00000000000E+00 -0.00000000000E+00 -0.45593999997E+02  0.45594000000E+02  0.51100000000E-03 0.  1.
    9900012    2    1    2    0    0 -0.24756924747E+02  0.13773454469E+02 -0.14632402168E+02  0.59301944048E+02  0.50000000038E+02 0.  0.
         12    1    1    2    0    0  0.24756924747E+02 -0.13773454469E+02  0.14632402168E+02  0.31886055952E+02  0.00000000000E+00 0. -1.
         11    1    3    3    0    0 -0.53322168074E+01  0.20202981710E+02 -0.70557736727E+01  0.22053955392E+02  0.51100000000E-03 0. -1.
        -11    1    3    3    0    0 -0.12588922473E+02 -0.11801854853E+00 -0.18827288769E+02  0.22648657798E+02  0.51100000000E-03 0.  1.
         12    1    3    3    0    0 -0.68357854669E+01 -0.63115086927E+01  0.11250660273E+02  0.14599330858E+02  0.00000000000E+00 0. -1.
</event>
<event>
 7    1  0.3449603E-013  0.5930191E+02  0.7816164E-02  0.1266605E+00
        -11   -1    0    0    0    0  0.00000000000E+00  0.00000000000E+00  0.45593999997E+02  0.45594000000E+02  0.51100000000E-03 0.  1.
         11   -1    0    0    0    0 -0.00000000000E+00 -0.00000000000E+00 -0.45593999997E+02  0.45594000000E+02  0.51100000000E-03 0. -1.
    9900012    2    1    2    0    0 -0.18862902477E+01  0.22880854917E+01  0.31747902267E+02  0.59301910173E+02  0.49999938257E+02 0.  0.
         12    1    1    2    0    0  0.18862902477E+01 -0.22880854917E+01 -0.31747902267E+02  0.31886089827E+02  0.00000000000E+00 0. -1.
         11    1    3    3    0    0  0.12818187660E+02  0.49693706171E+01  0.87868831020E+01  0.16315939879E+02  0.51100000000E-03 0. -1.
        -11    1    3    3    0    0  0.69329250206E+01 -0.24490554168E+01  0.19795582244E+02  0.21117016797E+02  0.51100000000E-03 0.  1.
        -12    1    3    3    0    0 -0.21637402929E+02 -0.23222970863E+00  0.31654369208E+01  0.21868953497E+02  0.00000000000E+00 0.  1.
</event>
<event>
 7    1  0.3449603E-013  0.5930194E+02  0.7816164E-02  0.1266605E+00
        -11   -1    0    0    0    0  0.00000000000E+00  0.00000000000E+00  0.45593999997E+02  0.45594000000E+02  0.51100000000E-03 0. -1.
         11   -1    0    0    0    0 -0.00000000000E+00 -0.00000000000E+00 -0.45593999997E+02  0.45594000000E+02  0.51100000000E-03 0.  1.
    9900012    2    1    2    0    0 -0.19784340264E+02  0.23919688634E+02 -0.72903350072E+01  0.59301943353E+02  0.49999998769E+02 0.  0.
         12    1    1    2    0    0  0.19784340264E+02 -0.23919688634E+02  0.72903350072E+01  0.31886056647E+02  0.00000000000E+00 0. -1.
         11    1    3    3    0    0 -0.21135654075E+01  0.61109297689E+01 -0.17910112778E+01  0.67095710020E+01  0.51100000000E-03 0. -1.
        -11    1    3    3    0    0 -0.23287140120E+02  0.15603323039E+02 -0.21606562363E+02  0.35392062983E+02  0.51100000000E-03 0.  1.
         12    1    3    3    0    0  0.56163652637E+01  0.22054358257E+01  0.16107238633E+02  0.17200309368E+02  0.00000000000E+00 0. -1.
</event>
<event>
 7    1  0.3449603E-013  0.5930193E+02  0.7816164E-02  0.1266605E+00
        -11   -1    0    0    0    0  0.00000000000E+00  0.00000000000E+00  0.45593999997E+02  0.45594000000E+02  0.51100000000E-03 0.  1.
         11   -1    0    0    0    0 -0.00000000000E+00 -0.00000000000E+00 -0.45593999997E+02  0.45594000000E+02  0.51100000000E-03 0. -1.
    9900012    2    1    2    0    0  0.31525956796E+02  0.44503815705E+01  0.17405959476E+01  0.59301929025E+02  0.49999972638E+02 0.  0.
         12    1    1    2    0    0 -0.31525956796E+02 -0.44503815705E+01 -0.17405959476E+01  0.31886070975E+02  0.00000000000E+00 0. -1.
         11    1    3    3    0    0 -0.92831009187E+00 -0.60260563784E+01  0.21591065265E+01  0.64681416463E+01  0.51100000000E-03 0. -1.
        -11    1    3    3    0    0 -0.16206418510E+01 -0.65851209452E+01  0.11113676102E+02  0.13019373819E+02  0.51100000000E-03 0.  1.
         12    1    3    3    0    0  0.34074908739E+02  0.17061558894E+02 -0.11532186681E+02  0.39814413559E+02  0.00000000000E+00 0. -1.
</event>
<event>
 7    1  0.3449603E-013  0.5930194E+02  0.7816164E-02  0.1266605E+00
        -11   -1    0    0    0    0  0.00000000000E+00  0.00000000000E+00  0.45593999997E+02  0.45594000000E+02  0.51100000000E-03 0.  1.
         11   -1    0    0    0    0 -0.00000000000E+00 -0.00000000000E+00 -0.45593999997E+02  0.45594000000E+02  0.51100000000E-03 0. -1.
    9900012    2    1    2    0    0  0.23338530000E+02  0.20406879172E+02  0.74560815719E+01  0.59301939526E+02  0.49999991791E+02 0.  0.
         12    1    1    2    0    0 -0.23338530000E+02 -0.20406879172E+02 -0.74560815719E+01  0.31886060474E+02  0.00000000000E+00 0. -1.
         11    1    3    3    0    0  0.98210084194E+01  0.31028121224E+01 -0.20284167520E+02  0.22749222001E+02  0.51100000000E-03 0. -1.
        -11    1    3    3    0    0  0.16682329697E+01 -0.57233914989E-02 -0.12653708576E+00  0.16730349350E+01  0.51100000000E-03 0.  1.
        -12    1    3    3    0    0  0.11849288611E+02  0.17309790441E+02  0.27866786178E+02  0.34879682590E+02  0.00000000000E+00 0.  1.
</event>
<event>
 7    1  0.3449603E-013  0.5930196E+02  0.7816164E-02  0.1266605E+00
        -11   -1    0    0    0    0  0.00000000000E+00  0.00000000000E+00  0.45593999997E+02  0.45594000000E+02  0.51100000000E-03 0. -1.
         11   -1    0    0    0    0 -0.00000000000E+00 -0.00000000000E+00 -0.45593999997E+02  0.45594000000E+02  0.51100000000E-03 0.  1.
    9900012    2    1    2    0    0 -0.25432951663E+02  0.15788701750E+02  0.10981858559E+02  0.59301963077E+02  0.50000034741E+02 0.  0.
         12    1    1    2    0    0  0.25432951663E+02 -0.15788701750E+02 -0.10981858559E+02  0.31886036923E+02  0.00000000000E+00 0. -1.
         11    1    3    3    0    0 -0.17468868281E+01  0.20216371670E+02 -0.49340435207E+01  0.20882961543E+02  0.51100000000E-03 0. -1.
        -11    1    3    3    0    0  0.41262963441E+01  0.39537118103E+01  0.42244355580E+01  0.71066176655E+01  0.51100000000E-03 0.  1.
         12    1    3    3    0    0 -0.27812361179E+02 -0.83813817300E+01  0.11691466522E+02  0.31312383868E+02  0.00000000000E+00 0. -1.
</event>
<event>
 7    1  0.3449603E-013  0.5930200E+02  0.7816164E-02  0.1266605E+00
        -11   -1    0    0    0    0  0.00000000000E+00  0.00000000000E+00  0.45593999997E+02  0.45594000000E+02  0.51100000000E-03 0. -1.
         11   -1    0    0    0    0 -0.00000000000E+00 -0.00000000000E+00 -0.45593999997E+02  0.45594000000E+02  0.51100000000E-03 0.  1.
    9900012    2    1    2    0    0 -0.22630933135E+02 -0.21912395949E+02 -0.49401228453E+01  0.59301999239E+02  0.50000100693E+02 0.  0.
         12    1    1    2    0    0  0.22630933135E+02  0.21912395949E+02  0.49401228453E+01  0.31886000761E+02  0.00000000000E+00 0. -1.
         11    1    3    3    0    0  0.36862669492E+00 -0.11078660018E+02  0.11094242714E+01  0.11140171270E+02  0.51100000000E-03 0. -1.
        -11    1    3    3    0    0  0.24418654848E+01 -0.31062048644E+01  0.14200292843E+02  0.14739726348E+02  0.51100000000E-03 0.  1.
        -12    1    3    3    0    0 -0.25441425315E+02 -0.77275310661E+01 -0.20249839960E+02  0.33422101622E+02  0.00000000000E+00 0.  1.
</event>
<event>
 7    1  0.3449603E-013  0.5930199E+02  0.7816164E-02  0.1266605E+00
        -11   -1    0    0    0    0  0.00000000000E+00  0.00000000000E+00  0.45593999997E+02  0.45594000000E+02  0.51100000000E-03 0. -1.
         11   -1    0    0    0    0 -0.00000000000E+00 -0.00000000000E+00 -0.45593999997E+02  0.45594000000E+02  0.51100000000E-03 0.  1.
    9900012    2    1    2    0    0 -0.27500590348E+01 -0.21874434376E+02 -0.23036144273E+02  0.59301989793E+02  0.50000083464E+02 0.  0.
         12    1    1    2    0    0  0.27500590348E+01  0.21874434376E+02  0.23036144273E+02  0.31886010207E+02  0.00000000000E+00 0. -1.
         11    1    3    3    0    0  0.21388717967E+01 -0.50114186763E+01  0.13294527040E+02  0.14367795210E+02  0.51100000000E-03 0. -1.
        -11    1    3    3    0    0  0.40558561898E+01 -0.23928107083E+01  0.11851480661E+00  0.47105794271E+01  0.51100000000E-03 0.  1.
        -12    1    3    3    0    0 -0.89447870213E+01 -0.14470204991E+02 -0.36449186120E+02  0.40223615155E+02  0.00000000000E+00 0.  1.
</event>
<event>
 7    1  0.3449603E-013  0.5930196E+02  0.7816164E-02  0.1266605E+00
        -11   -1    0    0    0    0  0.00000000000E+00  0.00000000000E+00  0.45593999997E+02  0.45594000000E+02  0.51100000000E-03 0. -1.
         11   -1    0    0    0    0 -0.00000000000E+00 -0.00000000000E+00 -0.45593999997E+02  0.45594000000E+02  0.51100000000E-03 0.  1.
    9900012    2    1    2    0    0  0.30920373297E+02  0.75716225199E+01  0.18223133291E+01  0.59301956372E+02  0.50000022513E+02 0.  0.
         12    1    1    2    0    0 -0.30920373297E+02 -0.75716225199E+01 -0.18223133291E+01  0.31886043628E+02  0.00000000000E+00 0. -1.
         11    1    3    3    0    0 -0.11520761666E+01 -0.14098764837E+02  0.64559889307E+01  0.15549348628E+02  0.51100000000E-03 0. -1.
        -11    1    3    3    0    0  0.12771174027E+02  0.99483357457E+01  0.78045118845E+01  0.17971718787E+02  0.51100000000E-03 0.  1.
        -12    1    3    3    0    0  0.19301275436E+02  0.11722051612E+02 -0.12438187486E+02  0.25780888957E+02  0.00000000000E+00 0.  1.
</event>
<event>
 7    1  0.3449603E-013  0.5930194E+02  0.7816164E-02  0.1266605E+00
        -11   -1    0    0    0    0  0.00000000000E+00  0.00000000000E+00  0.45593999997E+02  0.45594000000E+02  0.51100000000E-03 0.  1.
         11   -1    0    0    0    0 -0.00000000000E+00 -0.00000000000E+00 -0.45593999997E+02  0.45594000000E+02  0.51100000000E-03 0. -1.
    9900012    2    1    2    0    0  0.92218253196E+01 -0.13357971245E+00  0.30523118417E+02  0.59301942488E+02  0.49999997191E+02 0.  0.
         12    1    1    2    0    0 -0.92218253196E+01  0.13357971245E+00 -0.30523118417E+02  0.31886057512E+02  0.00000000000E+00 0. -1.
         11    1    3    3    0    0  0.11807840424E+02  0.11352318590E+02  0.60854906839E+01  0.17473792661E+02  0.51100000000E-03 0.  1.
        -11    1    3    3    0    0  0.10908943785E+02 -0.11041092161E+02  0.20116308506E+01  0.15651115920E+02  0.51100000000E-03 0. -1.
        -12    1    3    3    0    0 -0.13494958890E+02 -0.44480614146E+00  0.22425996883E+02  0.26177033906E+02  0.00000000000E+00 0.  1.
</event>
<event>
 7    1  0.3449603E-013  0.5930200E+02  0.7816164E-02  0.1266605E+00
        -11   -1    0    0    0    0  0.00000000000E+00  0.00000000000E+00  0.45593999997E+02  0.45594000000E+02  0.51100000000E-03 0.  1.
         11   -1    0    0    0    0 -0.00000000000E+00 -0.00000000000E+00 -0.45593999997E+02  0.45594000000E+02  0.51100000000E-03 0. -1.
    9900012    2    1    2    0    0 -0.97660931259E+00 -0.35683002164E+00  0.31869040005E+02  0.59302003007E+02  0.50000107564E+02 0.  0.
         12    1    1    2    0    0  0.97660931259E+00  0.35683002164E+00 -0.31869040005E+02  0.31885996993E+02  0.00000000000E+00 0. -1.
         11    1    3    3    0    0  0.16715188091E+02  0.96362788092E+01  0.13909972059E+02  0.23785346437E+02  0.51100000000E-03 0. -1.
        -11    1    3    3    0    0 -0.43982279614E+01  0.24758827318E+01 -0.43820241185E+01  0.66840511771E+01  0.51100000000E-03 0.  1.
        -12    1    3    3    0    0 -0.13293569442E+02 -0.12468991563E+02  0.22341092064E+02  0.28832605393E+02  0.00000000000E+00 0.  1.
</event>
<event>
 7    1  0.3449603E-013  0.5930196E+02  0.7816164E-02  0.1266605E+00
        -11   -1    0    0    0    0  0.00000000000E+00  0.00000000000E+00  0.45593999997E+02  0.45594000000E+02  0.51100000000E-03 0.  1.
         11   -1    0    0    0    0 -0.00000000000E+00 -0.00000000000E+00 -0.45593999997E+02  0.45594000000E+02  0.51100000000E-03 0. -1.
    9900012    2    1    2    0    0  0.96717624106E+01  0.17102487153E+02  0.25113375825E+02  0.59301957595E+02  0.50000024743E+02 0.  0.
         12    1    1    2    0    0 -0.96717624106E+01 -0.17102487153E+02 -0.25113375825E+02  0.31886042405E+02  0.00000000000E+00 0. -1.
         11    1    3    3    0    0 -0.33729336365E+01  0.38857632346E+01  0.15487545107E+02  0.16319923129E+02  0.51100000000E-03 0. -1.
        -11    1    3    3    0    0 -0.42445652903E+01 -0.49778231219E+01  0.15829265304E+02  0.17127775625E+02  0.51100000000E-03 0.  1.
         12    1    3    3    0    0  0.17289261337E+02  0.18194547040E+02 -0.62034345852E+01  0.25854258841E+02  0.00000000000E+00 0. -1.
</event>
<event>
 7    1  0.3449603E-013  0.5930193E+02  0.7816164E-02  0.1266605E+00
        -11   -1    0    0    0    0  0.00000000000E+00  0.00000000000E+00  0.45593999997E+02  0.45594000000E+02  0.51100000000E-03 0.  1.
         11   -1    0    0    0    0 -0.00000000000E+00 -0.00000000000E+00 -0.45593999997E+02  0.45594000000E+02  0.51100000000E-03 0. -1.
    9900012    2    1    2    0    0 -0.80798708284E+01 -0.30515499062E+02 -0.44990618716E+01  0.59301928537E+02  0.49999971749E+02 0.  0.
         12    1    1    2    0    0  0.80798708284E+01  0.30515499062E+02  0.44990618716E+01  0.31886071463E+02  0.00000000000E+00 0. -1.
         11    1    3    3    0    0  0.69747617123E+01 -0.77330726846E+01 -0.10985023295E+02  0.15136659181E+02  0.51100000000E-03 0. -1.
        -11    1    3    3    0    0 -0.34411022283E+01 -0.17126981746E+02 -0.12301257070E+02  0.21365757979E+02  0.51100000000E-03 0.  1.
        -12    1    3    3    0    0 -0.11613530312E+02 -0.56554446316E+01  0.18787218494E+02  0.22799511377E+02  0.00000000000E+00 0.  1.
</event>
<event>
 7    1  0.3449603E-013  0.5930192E+02  0.7816164E-02  0.1266605E+00
        -11   -1    0    0    0    0  0.00000000000E+00  0.00000000000E+00  0.45593999997E+02  0.45594000000E+02  0.51100000000E-03 0. -1.
         11   -1    0    0    0    0 -0.00000000000E+00 -0.00000000000E+00 -0.45593999997E+02  0.45594000000E+02  0.51100000000E-03 0.  1.
    9900012    2    1    2    0    0 -0.20453547612E+01  0.26224965134E+02 -0.18021918763E+02  0.59301924226E+02  0.49999963887E+02 0.  0.
         12    1    1    2    0    0  0.20453547612E+01 -0.26224965134E+02  0.18021918763E+02  0.31886075774E+02  0.00000000000E+00 0. -1.
         11    1    3    3    0    0  0.97309462676E+01 -0.33621047876E+01  0.17032646728E+01  0.10435332993E+02  0.51100000000E-03 0. -1.
        -11    1    3    3    0    0  0.23560825044E+01  0.41540821762E+00  0.66562664909E+01  0.70731586023E+01  0.51100000000E-03 0.  1.
        -12    1    3    3    0    0 -0.14132383533E+02  0.29171661704E+02 -0.26381449926E+02  0.41793432631E+02  0.00000000000E+00 0.  1.
</event>
<event>
 7    1  0.3449603E-013  0.5930196E+02  0.7816164E-02  0.1266605E+00
        -11   -1    0    0    0    0  0.00000000000E+00  0.00000000000E+00  0.45593999997E+02  0.45594000000E+02  0.51100000000E-03 0.  1.
         11   -1    0    0    0    0 -0.00000000000E+00 -0.00000000000E+00 -0.45593999997E+02  0.45594000000E+02  0.51100000000E-03 0. -1.
    9900012    2    1    2    0    0  0.15635679972E+02 -0.12124219578E+02  0.25004971755E+02  0.59301956015E+02  0.50000021861E+02 0.  0.
         12    1    1    2    0    0 -0.15635679972E+02  0.12124219578E+02 -0.25004971755E+02  0.31886043985E+02  0.00000000000E+00 0. -1.
         11    1    3    3    0    0  0.17716485485E+02 -0.15018506697E+02  0.81857606018E+01  0.24625922892E+02  0.51100000000E-03 0. -1.
        -11    1    3    3    0    0  0.11268300891E+02  0.41635122165E+01  0.17526323282E+02  0.21248092785E+02  0.51100000000E-03 0.  1.
        -12    1    3    3    0    0 -0.13349106405E+02 -0.12692250972E+01 -0.70711212821E+00  0.13427940338E+02  0.00000000000E+00 0.  1.
</event>
<event>
 7    1  0.3449603E-013  0.5930195E+02  0.7816164E-02  0.1266605E+00
        -11   -1    0    0    0    0  0.00000000000E+00  0.00000000000E+00  0.45593999997E+02  0.45594000000E+02  0.51100000000E-03 0.  1.
         11   -1    0    0    0    0 -0.00000000000E+00 -0.00000000000E+00 -0.45593999997E+02  0.45594000000E+02  0.51100000000E-03 0. -1.
    9900012    2    1    2    0    0  0.22374934792E+01  0.29447728370E+02  0.12022682551E+02  0.59301953225E+02  0.50000016774E+02 0.  0.
         12    1    1    2    0    0 -0.22374934792E+01 -0.29447728370E+02 -0.12022682551E+02  0.31886046775E+02  0.00000000000E+00 0. -1.
         11    1    3    3    0    0  0.93236054289E+01  0.11152111019E+02 -0.15316960932E+02  0.21116545428E+02  0.51100000000E-03 0. -1.
        -11    1    3    3    0    0 -0.87711302942E+01  0.86423106897E+00  0.64247201513E+01  0.10906725048E+02  0.51100000000E-03 0.  1.
        -12    1    3    3    0    0  0.16850183445E+01  0.17431386282E+02  0.20914923332E+02  0.27278682749E+02  0.00000000000E+00 0.  1.
</event>
<event>
 7    1  0.3449603E-013  0.5930193E+02  0.7816164E-02  0.1266605E+00
        -11   -1    0    0    0    0  0.00000000000E+00  0.00000000000E+00  0.45593999997E+02  0.45594000000E+02  0.51100000000E-03 0.  1.
         11   -1    0    0    0    0 -0.00000000000E+00 -0.00000000000E+00 -0.45593999997E+02  0.45594000000E+02  0.51100000000E-03 0. -1.
    9900012    2    1    2    0    0  0.11948989528E+02 -0.27553028266E+02 -0.10713242119E+02  0.59301932916E+02  0.49999979736E+02 0.  0.
         12    1    1    2    0    0 -0.11948989528E+02  0.27553028266E+02  0.10713242119E+02  0.31886067084E+02  0.00000000000E+00 0. -1.
         11    1    3    3    0    0  0.20656620247E+02 -0.24463592962E+02 -0.24509198590E+01  0.32111841259E+02  0.51100000000E-03 0. -1.
        -11    1    3    3    0    0  0.70907712735E+01 -0.50157867725E+01  0.10528382489E+01  0.87490355377E+01  0.51100000000E-03 0.  1.
        -12    1    3    3    0    0 -0.15798401992E+02  0.19263514685E+01 -0.93151605093E+01  0.18441056120E+02  0.00000000000E+00 0.  1.
</event>
<event>
 7    1  0.3579167E-013  0.5930193E+02  0.7816164E-02  0.1266605E+00
        -11   -1    0    0    0    0  0.00000000000E+00  0.00000000000E+00  0.45593999997E+02  0.45594000000E+02  0.51100000000E-03 0.  1.
         11   -1    0    0    0    0 -0.00000000000E+00 -0.00000000000E+00 -0.45593999997E+02  0.45594000000E+02  0.51100000000E-03 0. -1.
    9900012    2    1    2    0    0  0.26795758414E+02 -0.92368238002E+01  0.14607873133E+02  0.59301928740E+02  0.49999972119E+02 0.  0.
         12    1    1    2    0    0 -0.26795758414E+02  0.92368238002E+01 -0.14607873133E+02  0.31886071260E+02  0.00000000000E+00 0. -1.
         11    1    3    3    0    0  0.80484561615E+00  0.97402368772E+01  0.43810415904E+01  0.10710439607E+02  0.51100000000E-03 0. -1.
        -11    1    3    3    0    0  0.29035846897E+02 -0.15744708034E+01  0.10517543735E+02  0.30922129452E+02  0.51100000000E-03 0.  1.
         12    1    3    3    0    0 -0.30449340991E+01 -0.17402589874E+02 -0.29071219280E+00  0.17669359682E+02  0.00000000000E+00 0. -1.
</event>
<event>
 7    1  0.3449603E-013  0.5930192E+02  0.7816164E-02  0.1266605E+00
        -11   -1    0    0    0    0  0.00000000000E+00  0.00000000000E+00  0.45593999997E+02  0.45594000000E+02  0.51100000000E-03 0.  1.
         11   -1    0    0    0    0 -0.00000000000E+00 -0.00000000000E+00 -0.45593999997E+02  0.45594000000E+02  0.51100000000E-03 0. -1.
    9900012    2    1    2    0    0 -0.28980081879E+02 -0.92318112292E+00  0.13267422668E+02  0.59301922891E+02  0.49999961452E+02 0.  0.
         12    1    1    2    0    0  0.28980081879E+02  0.92318112292E+00 -0.13267422668E+02  0.31886077109E+02  0.00000000000E+00 0. -1.
         11    1    3    3    0    0 -0.46151499462E+01  0.33032956115E+01  0.22480431680E+02  0.23185796940E+02  0.51100000000E-03 0. -1.
        -11    1    3    3    0    0 -0.23006130464E+02 -0.35223071055E+01  0.33025432494E+01  0.23507349456E+02  0.51100000000E-03 0.  1.
         12    1    3    3    0    0 -0.13588014689E+01 -0.70416962887E+00 -0.12515552261E+02  0.12608776495E+02  0.00000000000E+00 0. -1.
</event>
<event>
 7    1  0.3449603E-013  0.5930194E+02  0.7816164E-02  0.1266605E+00
        -11   -1    0    0    0    0  0.00000000000E+00  0.00000000000E+00  0.45593999997E+02  0.45594000000E+02  0.51100000000E-03 0.  1.
         11   -1    0    0    0    0 -0.00000000000E+00 -0.00000000000E+00 -0.45593999997E+02  0.45594000000E+02  0.51100000000E-03 0. -1.
    9900012    2    1    2    0    0 -0.22951494809E+02  0.70315429801E+01  0.20988260909E+02  0.59301940246E+02  0.49999993103E+02 0.  0.
         12    1    1    2    0    0  0.22951494809E+02 -0.70315429801E+01 -0.20988260909E+02  0.31886059754E+02  0.00000000000E+00 0. -1.
         11    1    3    3    0    0 -0.11405121947E+01 -0.78056433790E+00  0.44831543957E+01  0.46913454731E+01  0.51100000000E-03 0.  1.
        -11    1    3    3    0    0 -0.17270300473E+02  0.20609135974E+02 -0.67124318906E+01  0.27713832398E+02  0.51100000000E-03 0. -1.
         12    1    3    3    0    0 -0.45406821408E+01 -0.12797028656E+02  0.23217538404E+02  0.26896762375E+02  0.00000000000E+00 0. -1.
</event>
<event>
 7    1  0.3449603E-013  0.5930197E+02  0.7816164E-02  0.1266605E+00
        -11   -1    0    0    0    0  0.00000000000E+00  0.00000000000E+00  0.45593999997E+02  0.45594000000E+02  0.51100000000E-03 0. -1.
         11   -1    0    0    0    0 -0.00000000000E+00 -0.00000000000E+00 -0.45593999997E+02  0.45594000000E+02  0.51100000000E-03 0.  1.
    9900012    2    1    2    0    0  0.86700440246E+01 -0.22947708658E+02 -0.20370361445E+02  0.59301974512E+02  0.50000055595E+02 0.  0.
         12    1    1    2    0    0 -0.86700440246E+01  0.22947708658E+02  0.20370361445E+02  0.31886025488E+02  0.00000000000E+00 0. -1.
         11    1    3    3    0    0 -0.18137643499E+01  0.82402236551E+01 -0.22940097343E+01  0.87437696633E+01  0.51100000000E-03 0. -1.
        -11    1    3    3    0    0  0.37314118428E+01 -0.14758871516E+02  0.93624583515E+01  0.17871859148E+02  0.51100000000E-03 0.  1.
        -12    1    3    3    0    0  0.67523965317E+01 -0.16429060797E+02 -0.27438810062E+02  0.32686345700E+02  0.00000000000E+00 0.  1.
</event>
<event>
 7    1  0.3449603E-013  0.5930196E+02  0.7816164E-02  0.1266605E+00
        -11   -1    0    0    0    0  0.00000000000E+00  0.00000000000E+00  0.45593999997E+02  0.45594000000E+02  0.51100000000E-03 0.  1.
         11   -1    0    0    0    0 -0.00000000000E+00 -0.00000000000E+00 -0.45593999997E+02  0.45594000000E+02  0.51100000000E-03 0. -1.
    9900012    2    1    2    0    0 -0.77074036243E+01  0.28110980083E+02 -0.12926259346E+02  0.59301961479E+02  0.50000031828E+02 0.  0.
         12    1    1    2    0    0  0.77074036243E+01 -0.28110980083E+02  0.12926259346E+02  0.31886038521E+02  0.00000000000E+00 0. -1.
         11    1    3    3    0    0  0.14763835722E+02  0.86239916185E+01 -0.74213170277E+01  0.18639206618E+02  0.51100000000E-03 0. -1.
        -11    1    3    3    0    0  0.29359963926E+01  0.55126871500E+01  0.67378915718E+01  0.91874358515E+01  0.51100000000E-03 0.  1.
         12    1    3    3    0    0 -0.25407235739E+02  0.13974301314E+02 -0.12242833890E+02  0.31475319010E+02  0.00000000000E+00 0. -1.
</event>
<event>
 7    1  0.3449603E-013  0.5930196E+02  0.7816164E-02  0.1266605E+00
        -11   -1    0    0    0    0  0.00000000000E+00  0.00000000000E+00  0.45593999997E+02  0.45594000000E+02  0.51100000000E-03 0.  1.
         11   -1    0    0    0    0 -0.00000000000E+00 -0.00000000000E+00 -0.45593999997E+02  0.45594000000E+02  0.51100000000E-03 0. -1.
    9900012    2    1    2    0    0 -0.19691331492E+02 -0.26977398583E+01  0.24933770554E+02  0.59301964651E+02  0.50000037612E+02 0.  0.
         12    1    1    2    0    0  0.19691331492E+02  0.26977398583E+01 -0.24933770554E+02  0.31886035349E+02  0.00000000000E+00 0. -1.
         11    1    3    3    0    0  0.56938540341E+01 -0.10835217731E+02  0.14511096162E+01  0.12325892925E+02  0.51100000000E-03 0. -1.
        -11    1    3    3    0    0 -0.15112769551E+02 -0.81171129291E+01  0.21704870936E+02  0.27665587802E+02  0.51100000000E-03 0.  1.
        -12    1    3    3    0    0 -0.10272415975E+02  0.16254590801E+02  0.17777900014E+01  0.19310483924E+02  0.00000000000E+00 0.  1.
</event>
<event>
 7    1  0.3449603E-013  0.5930202E+02  0.7816164E-02  0.1266604E+00
        -11   -1    0    0    0    0  0.00000000000E+00  0.00000000000E+00  0.45593999997E+02  0.45594000000E+02  0.51100000000E-03 0. -1.
         11   -1    0    0    0    0 -0.00000000000E+00 -0.00000000000E+00 -0.45593999997E+02  0.45594000000E+02  0.51100000000E-03 0.  1.
    9900012    2    1    2    0    0  0.76116387579E+00 -0.23486914349E+02 -0.21552288664E+02  0.59302020907E+02  0.50000140209E+02 0.  0.
         12    1    1    2    0    0 -0.76116387579E+00  0.23486914349E+02  0.21552288664E+02  0.31885979093E+02  0.00000000000E+00 0. -1.
         11    1    3    3    0    0 -0.72743705551E+01 -0.25841067589E+02  0.56164646961E+01  0.27426664344E+02  0.51100000000E-03 0. -1.
        -11    1    3    3    0    0 -0.28630034011E+01 -0.19072788570E+01 -0.16794148794E+01  0.38281765517E+01  0.51100000000E-03 0.  1.
        -12    1    3    3    0    0  0.10898537832E+02  0.42614320969E+01 -0.25489338480E+02  0.28047180011E+02  0.00000000000E+00 0.  1.
</event>
<event>
 7    1  0.3449603E-013  0.5930192E+02  0.7816164E-02  0.1266605E+00
        -11   -1    0    0    0    0  0.00000000000E+00  0.00000000000E+00  0.45593999997E+02  0.45594000000E+02  0.51100000000E-03 0.  1.
         11   -1    0    0    0    0 -0.00000000000E+00 -0.00000000000E+00 -0.45593999997E+02  0.45594000000E+02  0.51100000000E-03 0. -1.
    9900012    2    1    2    0    0  0.50118241140E+01 -0.29050579067E+02  0.12151844245E+02  0.59301923985E+02  0.49999963447E+02 0.  0.
         12    1    1    2    0    0 -0.50118241140E+01  0.29050579067E+02 -0.12151844245E+02  0.31886076015E+02  0.00000000000E+00 0. -1.
         11    1    3    3    0    0 -0.71759847615E+01  0.44485840343E+01 -0.69467771607E+01  0.10933543359E+02  0.51100000000E-03 0. -1.
        -11    1    3    3    0    0  0.36527918820E+01 -0.98248252437E+01  0.20646590743E+02  0.23154951720E+02  0.51100000000E-03 0.  1.
         12    1    3    3    0    0  0.85350169935E+01 -0.23674337858E+02 -0.15479693376E+01  0.25213428905E+02  0.00000000000E+00 0. -1.
</event>
<event>
 7    1  0.3449603E-013  0.5930193E+02  0.7816164E-02  0.1266605E+00
        -11   -1    0    0    0    0  0.00000000000E+00  0.00000000000E+00  0.45593999997E+02  0.45594000000E+02  0.51100000000E-03 0.  1.
         11   -1    0    0    0    0 -0.00000000000E+00 -0.00000000000E+00 -0.45593999997E+02  0.45594000000E+02  0.51100000000E-03 0. -1.
    9900012    2    1    2    0    0 -0.31333616908E+02 -0.53885133283E+01  0.24268774117E+01  0.59301931594E+02  0.49999977324E+02 0.  0.
         12    1    1    2    0    0  0.31333616908E+02  0.53885133283E+01 -0.24268774117E+01  0.31886068406E+02  0.00000000000E+00 0. -1.
         11    1    3    3    0    0 -0.11425283822E+02 -0.56856267331E+01 -0.81000164291E+01  0.15115347438E+02  0.51100000000E-03 0. -1.
        -11    1    3    3    0    0 -0.18187384886E+02 -0.62734826335E+01 -0.10620116039E+02  0.21975541365E+02  0.51100000000E-03 0.  1.
        -12    1    3    3    0    0 -0.17209481995E+01  0.65705960382E+01  0.21147009880E+02  0.22211042791E+02  0.00000000000E+00 0.  1.
</event>
<event>
 7    1  0.3449603E-013  0.5930195E+02  0.7816164E-02  0.1266605E+00
        -11   -1    0    0    0    0  0.00000000000E+00  0.00000000000E+00  0.45593999997E+02  0.45594000000E+02  0.51100000000E-03 0.  1.
         11   -1    0    0    0    0 -0.00000000000E+00 -0.00000000000E+00 -0.45593999997E+02  0.45594000000E+02  0.51100000000E-03 0. -1.
    9900012    2    1    2    0    0 -0.10838423861E+02  0.18024031414E+02 -0.23966294011E+02  0.59301946798E+02  0.50000005052E+02 0.  0.
         12    1    1    2    0    0  0.10838423861E+02 -0.18024031414E+02  0.23966294011E+02  0.31886053202E+02  0.00000000000E+00 0. -1.
         11    1    3    3    0    0  0.11389974471E+02  0.15139276919E+02 -0.63296144882E+01  0.19974815241E+02  0.51100000000E-03 0. -1.
        -11    1    3    3    0    0  0.20727135605E+01  0.11721447706E+01  0.53355587356E+01  0.58427948919E+01  0.51100000000E-03 0.  1.
         12    1    3    3    0    0 -0.24301111892E+02  0.17126097240E+01 -0.22972238259E+02  0.33484336665E+02  0.00000000000E+00 0. -1.
</event>
<event>
 7    1  0.3449603E-013  0.5930202E+02  0.7816164E-02  0.1266604E+00
        -11   -1    0    0    0    0  0.00000000000E+00  0.00000000000E+00  0.45593999997E+02  0.45594000000E+02  0.51100000000E-03 0.  1.
         11   -1    0    0    0    0 -0.00000000000E+00 -0.00000000000E+00 -0.45593999997E+02  0.45594000000E+02  0.51100000000E-03 0. -1.
    9900012    2    1    2    0    0 -0.30534620766E+02  0.14260347002E+01  0.90729885501E+01  0.59302019358E+02  0.50000137384E+02 0.  0.
         12    1    1    2    0    0  0.30534620766E+02 -0.14260347002E+01 -0.90729885501E+01  0.31885980642E+02  0.00000000000E+00 0. -1.
         11    1    3    3    0    0 -0.17087669917E+01 -0.45640118450E+01 -0.11932287879E+02  0.12889126543E+02  0.51100000000E-03 0. -1.
        -11    1    3    3    0    0  0.38041989939E+01  0.66940948782E+01  0.84810590843E+01  0.11454745727E+02  0.51100000000E-03 0.  1.
         12    1    3    3    0    0 -0.32630052768E+02 -0.70404833296E+00  0.12524217345E+02  0.34958147088E+02  0.00000000000E+00 0. -1.
</event>
<event>
 7    1  0.3449603E-013  0.5930195E+02  0.7816164E-02  0.1266605E+00
        -11   -1    0    0    0    0  0.00000000000E+00  0.00000000000E+00  0.45593999997E+02  0.45594000000E+02  0.51100000000E-03 0.  1.
         11   -1    0    0    0    0 -0.00000000000E+00 -0.00000000000E+00 -0.45593999997E+02  0.45594000000E+02  0.51100000000E-03 0. -1.
    9900012    2    1    2    0    0  0.39682318064E+01 -0.63054355644E+01  0.31003465497E+02  0.59301948909E+02  0.50000008902E+02 0.  0.
         12    1    1    2    0    0 -0.39682318064E+01  0.63054355644E+01 -0.31003465497E+02  0.31886051091E+02  0.00000000000E+00 0. -1.
         11    1    3    3    0    0  0.13408262159E+02  0.74817250629E+01  0.11185008860E+02  0.18996371430E+02  0.51100000000E-03 0. -1.
        -11    1    3    3    0    0  0.73645528492E+01  0.49517282311E+01  0.97831777740E+01  0.13208588826E+02  0.51100000000E-03 0.  1.
         12    1    3    3    0    0 -0.16804583202E+02 -0.18738888858E+02  0.10035278863E+02  0.27096988654E+02  0.00000000000E+00 0. -1.
</event>
<event>
 7    1  0.3449603E-013  0.5930191E+02  0.7816164E-02  0.1266605E+00
        -11   -1    0    0    0    0  0.00000000000E+00  0.00000000000E+00  0.45593999997E+02  0.45594000000E+02  0.51100000000E-03 0.  1.
         11   -1    0    0    0    0 -0.00000000000E+00 -0.00000000000E+00 -0.45593999997E+02  0.45594000000E+02  0.51100000000E-03 0. -1.
    9900012    2    1    2    0    0 -0.19684550740E+01  0.64533909552E+00  0.31818725540E+02  0.59301912550E+02  0.49999942592E+02 0.  0.
         12    1    1    2    0    0  0.19684550740E+01 -0.64533909552E+00 -0.31818725540E+02  0.31886087450E+02  0.00000000000E+00 0. -1.
         11    1    3    3    0    0 -0.21615598497E+01  0.13704953331E+02  0.85751434034E+01  0.16310462024E+02  0.51100000000E-03 0. -1.
        -11    1    3    3    0    0 -0.16424213028E+02 -0.86724618988E+01  0.15273145949E+02  0.24046524830E+02  0.51100000000E-03 0.  1.
         12    1    3    3    0    0  0.16617317804E+02 -0.43871523363E+01  0.79704361873E+01  0.18944925696E+02  0.00000000000E+00 0. -1.
</event>
<event>
 7    1  0.3449603E-013  0.5930198E+02  0.7816164E-02  0.1266605E+00
        -11   -1    0    0    0    0  0.00000000000E+00  0.00000000000E+00  0.45593999997E+02  0.45594000000E+02  0.51100000000E-03 0. -1.
         11   -1    0    0    0    0 -0.00000000000E+00 -0.00000000000E+00 -0.45593999997E+02  0.45594000000E+02  0.51100000000E-03 0.  1.
    9900012    2    1    2    0    0  0.24380503075E+02  0.10959192643E+02 -0.17384052290E+02  0.59301982569E+02  0.50000070291E+02 0.  0.
         12    1    1    2    0    0 -0.24380503075E+02 -0.10959192643E+02  0.17384052290E+02  0.31886017431E+02  0.00000000000E+00 0. -1.
         11    1    3    3    0    0  0.34781233922E+01  0.23965100363E+01  0.84162695946E+01  0.94166977670E+01  0.51100000000E-03 0.  1.
        -11    1    3    3    0    0  0.73816826673E+01 -0.90012424315E+00  0.88176947673E+01  0.11534782353E+02  0.51100000000E-03 0. -1.
         12    1    3    3    0    0  0.13520697015E+02  0.94628068496E+01 -0.34618016652E+02  0.38350502450E+02  0.00000000000E+00 0. -1.
</event>
<event>
 7    1  0.3449603E-013  0.5930194E+02  0.7816164E-02  0.1266605E+00
        -11   -1    0    0    0    0  0.00000000000E+00  0.00000000000E+00  0.45593999997E+02  0.45594000000E+02  0.51100000000E-03 0.  1.
         11   -1    0    0    0    0 -0.00000000000E+00 -0.00000000000E+00 -0.45593999997E+02  0.45594000000E+02  0.51100000000E-03 0. -1.
    9900012    2    1    2    0    0  0.18163451137E+02  0.21865747526E+01  0.26115683731E+02  0.59301937166E+02  0.49999987485E+02 0.  0.
         12    1    1    2    0    0 -0.18163451137E+02 -0.21865747526E+01 -0.26115683731E+02  0.31886062834E+02  0.00000000000E+00 0. -1.
         11    1    3    3    0    0  0.10909547326E+02  0.72490520239E+01 -0.51725008929E+01  0.14082675309E+02  0.51100000000E-03 0. -1.
        -11    1    3    3    0    0 -0.74838188706E+01  0.90656786224E+01  0.78469879063E+01  0.14133976554E+02  0.51100000000E-03 0.  1.
        -12    1    3    3    0    0  0.14737722682E+02 -0.14128155894E+02  0.23441196718E+02  0.31085285303E+02  0.00000000000E+00 0.  1.
</event>
<event>
 7    1  0.3449603E-013  0.5930195E+02  0.7816164E-02  0.1266605E+00
        -11   -1    0    0    0    0  0.00000000000E+00  0.00000000000E+00  0.45593999997E+02  0.45594000000E+02  0.51100000000E-03 0.  1.
         11   -1    0    0    0    0 -0.00000000000E+00 -0.00000000000E+00 -0.45593999997E+02  0.45594000000E+02  0.51100000000E-03 0. -1.
    9900012    2    1    2    0    0  0.24603112793E+02  0.16448159903E+02 -0.11868666746E+02  0.59301947036E+02  0.50000005486E+02 0.  0.
         12    1    1    2    0    0 -0.24603112793E+02 -0.16448159903E+02  0.11868666746E+02  0.31886052964E+02  0.00000000000E+00 0. -1.
         11    1    3    3    0    0  0.23240984567E+00  0.11423636311E+02 -0.87310393262E+01  0.14380004482E+02  0.51100000000E-03 0. -1.
        -11    1    3    3    0    0  0.14112044740E+02  0.13848749324E+02  0.13150673255E+02  0.23746112774E+02  0.51100000000E-03 0.  1.
         12    1    3    3    0    0  0.10258658208E+02 -0.88242257321E+01 -0.16288300675E+02  0.21175829780E+02  0.00000000000E+00 0. -1.
</event>
<event>
 7    1  0.3449603E-013  0.5930199E+02  0.7816164E-02  0.1266605E+00
        -11   -1    0    0    0    0  0.00000000000E+00  0.00000000000E+00  0.45593999997E+02  0.45594000000E+02  0.51100000000E-03 0. -1.
         11   -1    0    0    0    0 -0.00000000000E+00 -0.00000000000E+00 -0.45593999997E+02  0.45594000000E+02  0.51100000000E-03 0.  1.
    9900012    2    1    2    0    0  0.28302371859E+02 -0.76179838446E+01 -0.12556249687E+02  0.59301994655E+02  0.50000092331E+02 0.  0.
         12    1    1    2    0    0 -0.28302371859E+02  0.76179838446E+01  0.12556249687E+02  0.31886005345E+02  0.00000000000E+00 0. -1.
         11    1    3    3    0    0  0.13876382121E+01 -0.60756612772E+01  0.14562730408E+02  0.15840212024E+02  0.51100000000E-03 0. -1.
        -11    1    3    3    0    0 -0.27092871528E+01  0.13534348495E+01  0.23341117984E+00  0.30375160589E+01  0.51100000000E-03 0.  1.
        -12    1    3    3    0    0  0.29624020799E+02 -0.28957574169E+01 -0.27352391276E+02  0.40424266571E+02  0.00000000000E+00 0.  1.
</event>
<event>
 7    1  0.3449603E-013  0.5930195E+02  0.7816164E-02  0.1266605E+00
        -11   -1    0    0    0    0  0.00000000000E+00  0.00000000000E+00  0.45593999997E+02  0.45594000000E+02  0.51100000000E-03 0.  1.
         11   -1    0    0    0    0 -0.00000000000E+00 -0.00000000000E+00 -0.45593999997E+02  0.45594000000E+02  0.51100000000E-03 0. -1.
    9900012    2    1    2    0    0  0.77064460132E+01 -0.94279013421E+01  0.29469396522E+02  0.59301953440E+02  0.50000017166E+02 0.  0.
         12    1    1    2    0    0 -0.77064460132E+01  0.94279013421E+01 -0.29469396522E+02  0.31886046560E+02  0.00000000000E+00 0. -1.
         11    1    3    3    0    0 -0.63121768966E+01 -0.12614497124E+02  0.36677258113E+01  0.14574681051E+02  0.51100000000E-03 0. -1.
        -11    1    3    3    0    0 -0.60569334943E+01  0.54860921117E+01  0.22898376361E+02  0.24312944911E+02  0.51100000000E-03 0.  1.
         12    1    3    3    0    0  0.20075556404E+02 -0.22994963300E+01  0.29032943498E+01  0.20414327478E+02  0.00000000000E+00 0. -1.
</event>
<event>
 7    1  0.3449603E-013  0.5930190E+02  0.7816164E-02  0.1266605E+00
        -11   -1    0    0    0    0  0.00000000000E+00  0.00000000000E+00  0.45593999997E+02  0.45594000000E+02  0.51100000000E-03 0. -1.
         11   -1    0    0    0    0 -0.00000000000E+00 -0.00000000000E+00 -0.45593999997E+02  0.45594000000E+02  0.51100000000E-03 0.  1.
    9900012    2    1    2    0    0  0.18029374588E+02 -0.12336496283E+01 -0.26270575396E+02  0.59301900033E+02  0.49999919765E+02 0.  0.
         12    1    1    2    0    0 -0.18029374588E+02  0.12336496283E+01  0.26270575396E+02  0.31886099967E+02  0.00000000000E+00 0. -1.
         11    1    3    3    0    0  0.64143523536E+01 -0.35494069215E+01  0.32570208790E+01  0.80218695376E+01  0.51100000000E-03 0. -1.
        -11    1    3    3    0    0  0.54353672560E+01 -0.16436774732E+02 -0.25979423962E+02  0.31219244873E+02  0.51100000000E-03 0.  1.
         12    1    3    3    0    0  0.61796549783E+01  0.18752532026E+02 -0.35481723135E+01  0.20060785622E+02  0.00000000000E+00 0. -1.
</event>
<event>
 7    1  0.3449603E-013  0.5930197E+02  0.7816164E-02  0.1266605E+00
        -11   -1    0    0    0    0  0.00000000000E+00  0.00000000000E+00  0.45593999997E+02  0.45594000000E+02  0.51100000000E-03 0.  1.
         11   -1    0    0    0    0 -0.00000000000E+00 -0.00000000000E+00 -0.45593999997E+02  0.45594000000E+02  0.51100000000E-03 0. -1.
    9900012    2    1    2    0    0  0.14736139160E+02  0.20693052229E+02  0.19270769887E+02  0.59301972026E+02  0.50000051063E+02 0.  0.
         12    1    1    2    0    0 -0.14736139160E+02 -0.20693052229E+02 -0.19270769887E+02  0.31886027974E+02  0.00000000000E+00 0. -1.
         11    1    3    3    0    0  0.88767581387E+01  0.42292418282E+01 -0.30500719168E+01  0.10294962868E+02  0.51100000000E-03 0. -1.
        -11    1    3    3    0    0  0.18806843767E+01 -0.12057648071E+02  0.14917090443E+02  0.19272867930E+02  0.51100000000E-03 0.  1.
         12    1    3    3    0    0  0.39786966448E+01  0.28521458472E+02  0.74037513610E+01  0.29734141228E+02  0.00000000000E+00 0. -1.
</event>
<event>
 7    1  0.3449603E-013  0.5930206E+02  0.7816164E-02  0.1266604E+00
        -11   -1    0    0    0    0  0.00000000000E+00  0.00000000000E+00  0.45593999997E+02  0.45594000000E+02  0.51100000000E-03 0.  1.
         11   -1    0    0    0    0 -0.00000000000E+00 -0.00000000000E+00 -0.45593999997E+02  0.45594000000E+02  0.51100000000E-03 0. -1.
    9900012    2    1    2    0    0 -0.11858259100E+02 -0.62605574491E+00  0.29592275387E+02  0.59302062390E+02  0.50000215865E+02 0.  0.
         12    1    1    2    0    0  0.11858259100E+02  0.62605574491E+00 -0.29592275387E+02  0.31885937610E+02  0.00000000000E+00 0. -1.
         11    1    3    3    0    0 -0.13855316378E+02 -0.82082187563E-01 -0.72950497745E+01  0.15658680688E+02  0.51100000000E-03 0. -1.
        -11    1    3    3    0    0 -0.88040088775E+01 -0.61426629179E+01  0.13197394943E+02  0.17012175451E+02  0.51100000000E-03 0.  1.
        -12    1    3    3    0    0  0.10801066155E+02  0.55986893605E+01  0.23689930218E+02  0.26631206251E+02  0.00000000000E+00 0.  1.
</event>
<event>
 7    1  0.3449603E-013  0.5930194E+02  0.7816164E-02  0.1266605E+00
        -11   -1    0    0    0    0  0.00000000000E+00  0.00000000000E+00  0.45593999997E+02  0.45594000000E+02  0.51100000000E-03 0. -1.
         11   -1    0    0    0    0 -0.00000000000E+00 -0.00000000000E+00 -0.45593999997E+02  0.45594000000E+02  0.51100000000E-03 0.  1.
    9900012    2    1    2    0    0  0.28172597530E+02 -0.67824347499E+01  0.13305033851E+02  0.59301943510E+02  0.49999999055E+02 0.  0.
         12    1    1    2    0    0 -0.28172597530E+02  0.67824347499E+01 -0.13305033851E+02  0.31886056490E+02  0.00000000000E+00 0. -1.
         11    1    3    3    0    0  0.25782324101E+02 -0.11353532131E+01  0.13851889343E+02  0.29289795179E+02  0.51100000000E-03 0. -1.
        -11    1    3    3    0    0  0.61794005659E+01  0.12683271974E+01  0.12936306182E+02  0.14392416862E+02  0.51100000000E-03 0.  1.
        -12    1    3    3    0    0 -0.37891271371E+01 -0.69154087342E+01 -0.13483161674E+02  0.15619731469E+02  0.00000000000E+00 0.  1.
</event>
<event>
 7    1  0.3449603E-013  0.5930194E+02  0.7816164E-02  0.1266605E+00
        -11   -1    0    0    0    0  0.00000000000E+00  0.00000000000E+00  0.45593999997E+02  0.45594000000E+02  0.51100000000E-03 0. -1.
         11   -1    0    0    0    0 -0.00000000000E+00 -0.00000000000E+00 -0.45593999997E+02  0.45594000000E+02  0.51100000000E-03 0.  1.
    9900012    2    1    2    0    0 -0.13161318154E+02 -0.28373437035E+02  0.62007045778E+01  0.59301937810E+02  0.49999988660E+02 0.  0.
         12    1    1    2    0    0  0.13161318154E+02  0.28373437035E+02 -0.62007045778E+01  0.31886062190E+02  0.00000000000E+00 0. -1.
         11    1    3    3    0    0  0.20245318938E+01 -0.12624046172E+02  0.12197170458E+02  0.17670207655E+02  0.51100000000E-03 0. -1.
        -11    1    3    3    0    0 -0.19293482118E+02 -0.11908259782E+02  0.99223740589E+01  0.24748709269E+02  0.51100000000E-03 0.  1.
        -12    1    3    3    0    0  0.41076320693E+01 -0.38411310810E+01 -0.15918839939E+02  0.16883020885E+02  0.00000000000E+00 0.  1.
</event>
<event>
 7    1  0.3449603E-013  0.5930197E+02  0.7816164E-02  0.1266605E+00
        -11   -1    0    0    0    0  0.00000000000E+00  0.00000000000E+00  0.45593999997E+02  0.45594000000E+02  0.51100000000E-03 0. -1.
         11   -1    0    0    0    0 -0.00000000000E+00 -0.00000000000E+00 -0.45593999997E+02  0.45594000000E+02  0.51100000000E-03 0.  1.
    9900012    2    1    2    0    0 -0.25744914399E+02  0.18776134639E+02 -0.11725860583E+01  0.59301971595E+02  0.50000050276E+02 0.  0.
         12    1    1    2    0    0  0.25744914399E+02 -0.18776134639E+02  0.11725860583E+01  0.31886028405E+02  0.00000000000E+00 0. -1.
         11    1    3    3    0    0 -0.20650311353E+02 -0.43645017856E+01  0.14979129577E+01  0.21159583604E+02  0.51100000000E-03 0. -1.
        -11    1    3    3    0    0 -0.34314069835E+01  0.97641959053E+01 -0.16084006730E+02  0.19126143059E+02  0.51100000000E-03 0.  1.
        -12    1    3    3    0    0 -0.16631960631E+01  0.13376440519E+02  0.13413507714E+02  0.19016244932E+02  0.00000000000E+00 0.  1.
</event>
<event>
 7    1  0.3449603E-013  0.5930191E+02  0.7816164E-02  0.1266605E+00
        -11   -1    0    0    0    0  0.00000000000E+00  0.00000000000E+00  0.45593999997E+02  0.45594000000E+02  0.51100000000E-03 0.  1.
         11   -1    0    0    0    0 -0.00000000000E+00 -0.00000000000E+00 -0.45593999997E+02  0.45594000000E+02  0.51100000000E-03 0. -1.
    9900012    2    1    2    0    0 -0.30840075614E+02  0.66280889909E+01  0.46562702800E+01  0.59301910863E+02  0.49999939515E+02 0.  0.
         12    1    1    2    0    0  0.30840075614E+02 -0.66280889909E+01 -0.46562702800E+01  0.31886089137E+02  0.00000000000E+00 0. -1.
         11    1    3    3    0    0  0.63550097016E+01 -0.55627493344E+01 -0.11949231268E+02  0.14632650362E+02  0.51100000000E-03 0. -1.
        -11    1    3    3    0    0 -0.10520557040E+02 -0.24023775881E+01  0.21542905973E+01  0.11004294923E+02  0.51100000000E-03 0.  1.
        -12    1    3    3    0    0 -0.26674528276E+02  0.14593215913E+02  0.14451210950E+02  0.33664965578E+02  0.00000000000E+00 0.  1.
</event>
<event>
 7    1  0.6488435E-013  0.5930195E+02  0.7816164E-02  0.1266605E+00
        -11   -1    0    0    0    0  0.00000000000E+00  0.00000000000E+00  0.45593999997E+02  0.45594000000E+02  0.51100000000E-03 0. -1.
         11   -1    0    0    0    0 -0.00000000000E+00 -0.00000000000E+00 -0.45593999997E+02  0.45594000000E+02  0.51100000000E-03 0.  1.
    9900012    2    1    2    0    0 -0.23013620994E+01 -0.10655090657E+02 -0.29964858639E+02  0.59301953244E+02  0.50000016809E+02 0.  0.
         12    1    1    2    0    0  0.23013620994E+01  0.10655090657E+02  0.29964858639E+02  0.31886046756E+02  0.00000000000E+00 0. -1.
         11    1    3    3    0    0 -0.10161551331E+02  0.12145552816E+01  0.25208764249E+01  0.10539785966E+02  0.51100000000E-03 0. -1.
        -11    1    3    3    0    0  0.71211150164E+01  0.80053835834E+01 -0.25538485890E+02  0.27694958155E+02  0.51100000000E-03 0.  1.
         12    1    3    3    0    0  0.73907421546E+00 -0.19875029522E+02 -0.69472491748E+01  0.21067209124E+02  0.00000000000E+00 0. -1.
</event>
<event>
 7    1  0.3449603E-013  0.5930196E+02  0.7816164E-02  0.1266605E+00
        -11   -1    0    0    0    0  0.00000000000E+00  0.00000000000E+00  0.45593999997E+02  0.45594000000E+02  0.51100000000E-03 0.  1.
         11   -1    0    0    0    0 -0.00000000000E+00 -0.00000000000E+00 -0.45593999997E+02  0.45594000000E+02  0.51100000000E-03 0. -1.
    9900012    2    1    2    0    0 -0.49250621084E+01 -0.13016721383E+02  0.28688473328E+02  0.59301956435E+02  0.50000022628E+02 0.  0.
         12    1    1    2    0    0  0.49250621084E+01  0.13016721383E+02 -0.28688473328E+02  0.31886043565E+02  0.00000000000E+00 0. -1.
         11    1    3    3    0    0 -0.11866484735E+02 -0.15367730640E+02  0.61198892073E+01  0.20357643507E+02  0.51100000000E-03 0. -1.
        -11    1    3    3    0    0 -0.71412598944E+01  0.99210248303E+00  0.23679385365E+02  0.24752679688E+02  0.51100000000E-03 0.  1.
         12    1    3    3    0    0  0.14082682521E+02  0.13589067739E+01 -0.11108012446E+01  0.14191633239E+02  0.00000000000E+00 0. -1.
</event>
<event>
 7    1  0.3449603E-013  0.5930200E+02  0.7816164E-02  0.1266605E+00
        -11   -1    0    0    0    0  0.00000000000E+00  0.00000000000E+00  0.45593999997E+02  0.45594000000E+02  0.51100000000E-03 0.  1.
         11   -1    0    0    0    0 -0.00000000000E+00 -0.00000000000E+00 -0.45593999997E+02  0.45594000000E+02  0.51100000000E-03 0. -1.
    9900012    2    1    2    0    0  0.19854279572E+02  0.10152363126E+02  0.22791538838E+02  0.59301997789E+02  0.50000098048E+02 0.  0.
         12    1    1    2    0    0 -0.19854279572E+02 -0.10152363126E+02 -0.22791538838E+02  0.31886002211E+02  0.00000000000E+00 0. -1.
         11    1    3    3    0    0  0.99770951280E+01  0.16175643814E+01 -0.71570320749E+01  0.12384750708E+02  0.51100000000E-03 0. -1.
        -11    1    3    3    0    0  0.46667135961E+01  0.60966459982E+01 -0.64741634445E+01  0.10043012535E+02  0.51100000000E-03 0.  1.
        -12    1    3    3    0    0  0.52104708480E+01  0.24381527462E+01  0.36422734358E+02  0.36874234546E+02  0.00000000000E+00 0.  1.
</event>
<event>
 7    1  0.3449603E-013  0.5930180E+02  0.7816164E-02  0.1266605E+00
        -11   -1    0    0    0    0  0.00000000000E+00  0.00000000000E+00  0.45593999997E+02  0.45594000000E+02  0.51100000000E-03 0.  1.
         11   -1    0    0    0    0 -0.00000000000E+00 -0.00000000000E+00 -0.45593999997E+02  0.45594000000E+02  0.51100000000E-03 0. -1.
    9900012    2    1    2    0    0 -0.18705270499E+02 -0.38644544116E+01  0.25532494644E+02  0.59301804945E+02  0.49999746346E+02 0.  0.
         12    1    1    2    0    0  0.18705270499E+02  0.38644544116E+01 -0.25532494644E+02  0.31886195055E+02  0.00000000000E+00 0. -1.
         11    1    3    3    0    0 -0.33731333698E+00  0.81765460613E+01 -0.39921521160E+01  0.91053261643E+01  0.51100000000E-03 0. -1.
        -11    1    3    3    0    0 -0.17730452788E+02  0.72366398655E+01  0.66430488979E+01  0.20269879415E+02  0.51100000000E-03 0.  1.
        -12    1    3    3    0    0 -0.63750437437E+00 -0.19277640338E+02  0.22881597862E+02  0.29926599365E+02  0.00000000000E+00 0.  1.
</event>
<event>
 7    1  0.3449603E-013  0.5930195E+02  0.7816164E-02  0.1266605E+00
        -11   -1    0    0    0    0  0.00000000000E+00  0.00000000000E+00  0.45593999997E+02  0.45594000000E+02  0.51100000000E-03 0.  1.
         11   -1    0    0    0    0 -0.00000000000E+00 -0.00000000000E+00 -0.45593999997E+02  0.45594000000E+02  0.51100000000E-03 0. -1.
    9900012    2    1    2    0    0 -0.20082629820E+02 -0.23755018693E+02  0.70076766251E+01  0.59301945599E+02  0.50000002865E+02 0.  0.
         12    1    1    2    0    0  0.20082629820E+02  0.23755018693E+02 -0.70076766251E+01  0.31886054401E+02  0.00000000000E+00 0. -1.
         11    1    3    3    0    0 -0.12397302881E+02  0.14288827710E+01  0.19662878490E+01  0.12633333403E+02  0.51100000000E-03 0. -1.
        -11    1    3    3    0    0  0.36665964431E+01  0.36035738633E+01 -0.10758356261E+02  0.11923586028E+02  0.51100000000E-03 0.  1.
        -12    1    3    3    0    0 -0.11351923383E+02 -0.28787475327E+02  0.15799745037E+02  0.34745026168E+02  0.00000000000E+00 0.  1.
</event>
<event>
 7    1  0.3449603E-013  0.5930195E+02  0.7816164E-02  0.1266605E+00
        -11   -1    0    0    0    0  0.00000000000E+00  0.00000000000E+00  0.45593999997E+02  0.45594000000E+02  0.51100000000E-03 0.  1.
         11   -1    0    0    0    0 -0.00000000000E+00 -0.00000000000E+00 -0.45593999997E+02  0.45594000000E+02  0.51100000000E-03 0. -1.
    9900012    2    1    2    0    0  0.83888832431E+00 -0.23725479773E+02  0.21286574604E+02  0.59301946898E+02  0.50000005234E+02 0.  0.
         12    1    1    2    0    0 -0.83888832431E+00  0.23725479773E+02 -0.21286574604E+02  0.31886053102E+02  0.00000000000E+00 0. -1.
         11    1    3    3    0    0  0.18723658865E+01  0.20716835283E+00 -0.11766114460E+02  0.11915960829E+02  0.51100000000E-03 0. -1.
        -11    1    3    3    0    0 -0.11450288807E+02 -0.12936120456E+02  0.10492322284E+02  0.20212400981E+02  0.51100000000E-03 0.  1.
        -12    1    3    3    0    0  0.10416811245E+02 -0.10996527669E+02  0.22560366780E+02  0.27173585088E+02  0.00000000000E+00 0.  1.
</event>
<event>
 7    1  0.3449603E-013  0.5930195E+02  0.7816164E-02  0.1266605E+00
        -11   -1    0    0    0    0  0.00000000000E+00  0.00000000000E+00  0.45593999997E+02  0.45594000000E+02  0.51100000000E-03 0.  1.
         11   -1    0    0    0    0 -0.00000000000E+00 -0.00000000000E+00 -0.45593999997E+02  0.45594000000E+02  0.51100000000E-03 0. -1.
    9900012    2    1    2    0    0 -0.87238580476E+01  0.25852884868E+02 -0.16499784832E+02  0.59301948900E+02  0.50000008886E+02 0.  0.
         12    1    1    2    0    0  0.87238580476E+01 -0.25852884868E+02  0.16499784832E+02  0.31886051100E+02  0.00000000000E+00 0. -1.
         11    1    3    3    0    0 -0.14014253799E+02 -0.97690561424E+01 -0.21121198692E+01  0.17213216377E+02  0.51100000000E-03 0. -1.
        -11    1    3    3    0    0  0.14445174420E+01 -0.13906321989E+01  0.40296249805E+00  0.20452060015E+01  0.51100000000E-03 0.  1.
        -12    1    3    3    0    0  0.38458783094E+01  0.37012573209E+02 -0.14790627461E+02  0.40043526521E+02  0.00000000000E+00 0.  1.
</event>
<event>
 7    1  0.3449603E-013  0.5930193E+02  0.7816164E-02  0.1266605E+00
        -11   -1    0    0    0    0  0.00000000000E+00  0.00000000000E+00  0.45593999997E+02  0.45594000000E+02  0.51100000000E-03 0.  1.
         11   -1    0    0    0    0 -0.00000000000E+00 -0.00000000000E+00 -0.45593999997E+02  0.45594000000E+02  0.51100000000E-03 0. -1.
    9900012    2    1    2    0    0  0.14768726065E+01  0.10905245418E+02  0.29926845489E+02  0.59301927629E+02  0.49999970092E+02 0.  0.
         12    1    1    2    0    0 -0.14768726065E+01 -0.10905245418E+02 -0.29926845489E+02  0.31886072371E+02  0.00000000000E+00 0. -1.
         11    1    3    3    0    0 -0.62023074520E+00 -0.77347030418E+01 -0.75724747917E+01  0.10842171925E+02  0.51100000000E-03 0. -1.
        -11    1    3    3    0    0 -0.35774914250E+01 -0.48808038188E+01  0.45034484088E+01  0.75433241111E+01  0.51100000000E-03 0.  1.
        -12    1    3    3    0    0  0.56745947767E+01  0.23520752279E+02  0.32995871872E+02  0.40916431592E+02  0.00000000000E+00 0.  1.
</event>
<event>
 7    1  0.3449603E-013  0.5930191E+02  0.7816164E-02  0.1266605E+00
        -11   -1    0    0    0    0  0.00000000000E+00  0.00000000000E+00  0.45593999997E+02  0.45594000000E+02  0.51100000000E-03 0. -1.
         11   -1    0    0    0    0 -0.00000000000E+00 -0.00000000000E+00 -0.45593999997E+02  0.45594000000E+02  0.51100000000E-03 0.  1.
    9900012    2    1    2    0    0  0.14463355056E+02 -0.74661663449E+01 -0.27418792758E+02  0.59301914074E+02  0.49999945372E+02 0.  0.
         12    1    1    2    0    0 -0.14463355056E+02  0.74661663449E+01  0.27418792758E+02  0.31886085926E+02  0.00000000000E+00 0. -1.
         11    1    3    3    0    0 -0.52596697526E+01  0.27403165547E+01  0.16514824305E+01  0.61563670460E+01  0.51100000000E-03 0. -1.
        -11    1    3    3    0    0 -0.98374085632E+01 -0.58878386839E+01 -0.17888764073E+02  0.21247332348E+02  0.51100000000E-03 0.  1.
        -12    1    3    3    0    0  0.29560433371E+02 -0.43186442157E+01 -0.11181511116E+02  0.31898214680E+02  0.00000000000E+00 0.  1.
</event>
<event>
 7    1  0.3449603E-013  0.5930195E+02  0.7816164E-02  0.1266605E+00
        -11   -1    0    0    0    0  0.00000000000E+00  0.00000000000E+00  0.45593999997E+02  0.45594000000E+02  0.51100000000E-03 0. -1.
         11   -1    0    0    0    0 -0.00000000000E+00 -0.00000000000E+00 -0.45593999997E+02  0.45594000000E+02  0.51100000000E-03 0.  1.
    9900012    2    1    2    0    0 -0.63317381780E+00 -0.13699893334E+02 -0.28785975890E+02  0.59301946711E+02  0.50000004893E+02 0.  0.
         12    1    1    2    0    0  0.63317381780E+00  0.13699893334E+02  0.28785975890E+02  0.31886053289E+02  0.00000000000E+00 0. -1.
         11    1    3    3    0    0 -0.22292468010E+01  0.50209439230E+01 -0.22824609381E+02  0.23476418228E+02  0.51100000000E-03 0. -1.
        -11    1    3    3    0    0  0.11351812233E+02  0.15181262819E+01 -0.68415989357E+01  0.13340758024E+02  0.51100000000E-03 0.  1.
         12    1    3    3    0    0 -0.97557392502E+01 -0.20238963539E+02  0.88023242681E+00  0.22484770459E+02  0.00000000000E+00 0. -1.
</event>
<event>
 7    1  0.3449603E-013  0.5930195E+02  0.7816164E-02  0.1266605E+00
        -11   -1    0    0    0    0  0.00000000000E+00  0.00000000000E+00  0.45593999997E+02  0.45594000000E+02  0.51100000000E-03 0. -1.
         11   -1    0    0    0    0 -0.00000000000E+00 -0.00000000000E+00 -0.45593999997E+02  0.45594000000E+02  0.51100000000E-03 0.  1.
    9900012    2    1    2    0    0  0.13683207850E+02  0.28527944975E+02 -0.39555253981E+01  0.59301952852E+02  0.50000016094E+02 0.  0.
         12    1    1    2    0    0 -0.13683207850E+02 -0.28527944975E+02  0.39555253981E+01  0.31886047148E+02  0.00000000000E+00 0. -1.
         11    1    3    3    0    0  0.80786304965E+01  0.21385208962E+02 -0.57655350116E+01  0.23576107127E+02  0.51100000000E-03 0. -1.
        -11    1    3    3    0    0 -0.28970846823E+01 -0.10546375546E+02 -0.82234918903E+01  0.13683747877E+02  0.51100000000E-03 0.  1.
         12    1    3    3    0    0  0.85016620354E+01  0.17689111559E+02  0.10033501504E+02  0.22042097848E+02  0.00000000000E+00 0. -1.
</event>
<event>
 7    1  0.3449603E-013  0.5930193E+02  0.7816164E-02  0.1266605E+00
        -11   -1    0    0    0    0  0.00000000000E+00  0.00000000000E+00  0.45593999997E+02  0.45594000000E+02  0.51100000000E-03 0. -1.
         11   -1    0    0    0    0 -0.00000000000E+00 -0.00000000000E+00 -0.45593999997E+02  0.45594000000E+02  0.51100000000E-03 0.  1.
    9900012    2    1    2    0    0  0.12306973202E+02  0.23630830090E+02 -0.17516962012E+02  0.59301926578E+02  0.49999968176E+02 0.  0.
         12    1    1    2    0    0 -0.12306973202E+02 -0.23630830090E+02  0.17516962012E+02  0.31886073422E+02  0.00000000000E+00 0. -1.
         11    1    3    3    0    0  0.72003600956E+01 -0.10694650039E+02 -0.62645613407E+01  0.14334066207E+02  0.51100000000E-03 0. -1.
        -11    1    3    3    0    0 -0.60561768545E+01 -0.12284147383E+01 -0.26440770357E+01  0.67214153639E+01  0.51100000000E-03 0.  1.
         12    1    3    3    0    0  0.11162789961E+02  0.35553894867E+02 -0.86083236356E+01  0.38246445008E+02  0.00000000000E+00 0. -1.
</event>
<event>
 7    1  0.3449603E-013  0.5930194E+02  0.7816164E-02  0.1266605E+00
        -11   -1    0    0    0    0  0.00000000000E+00  0.00000000000E+00  0.45593999997E+02  0.45594000000E+02  0.51100000000E-03 0. -1.
         11   -1    0    0    0    0 -0.00000000000E+00 -0.00000000000E+00 -0.45593999997E+02  0.45594000000E+02  0.51100000000E-03 0.  1.
    9900012    2    1    2    0    0  0.77130307162E+01  0.24143086499E+02 -0.19347895983E+02  0.59301944309E+02  0.50000000514E+02 0.  0.
         12    1    1    2    0    0 -0.77130307162E+01 -0.24143086499E+02  0.19347895983E+02  0.31886055691E+02  0.00000000000E+00 0. -1.
         11    1    3    3    0    0  0.12254424251E+02  0.53490036788E+01 -0.10867597126E+02  0.17230421400E+02  0.51100000000E-03 0. -1.
        -11    1    3    3    0    0  0.45677196657E+01  0.23815484825E+02 -0.16161179331E+02  0.29141466984E+02  0.51100000000E-03 0.  1.
        -12    1    3    3    0    0 -0.91091132003E+01 -0.50214020041E+01  0.76808804733E+01  0.12930055925E+02  0.00000000000E+00 0.  1.
</event>
<event>
 7    1  0.3449603E-013  0.5930193E+02  0.7816164E-02  0.1266605E+00
        -11   -1    0    0    0    0  0.00000000000E+00  0.00000000000E+00  0.45593999997E+02  0.45594000000E+02  0.51100000000E-03 0.  1.
         11   -1    0    0    0    0 -0.00000000000E+00 -0.00000000000E+00 -0.45593999997E+02  0.45594000000E+02  0.51100000000E-03 0. -1.
    9900012    2    1    2    0    0 -0.30124915543E+02  0.10170529570E+02  0.24023700775E+01  0.59301927959E+02  0.49999970695E+02 0.  0.
         12    1    1    2    0    0  0.30124915543E+02 -0.10170529570E+02 -0.24023700775E+01  0.31886072041E+02  0.00000000000E+00 0. -1.
         11    1    3    3    0    0 -0.77878231941E+01  0.15958245471E+02 -0.16519043392E+02  0.24252723218E+02  0.51100000000E-03 0. -1.
        -11    1    3    3    0    0 -0.10760943847E+01  0.53789417892E+01  0.36928054210E+01  0.66127003588E+01  0.51100000000E-03 0.  1.
        -12    1    3    3    0    0 -0.21260997964E+02 -0.11166657691E+02  0.15228608048E+02  0.28436504383E+02  0.00000000000E+00 0.  1.
</event>
<event>
 7    1  0.3449603E-013  0.5930197E+02  0.7816164E-02  0.1266605E+00
        -11   -1    0    0    0    0  0.00000000000E+00  0.00000000000E+00  0.45593999997E+02  0.45594000000E+02  0.51100000000E-03 0.  1.
         11   -1    0    0    0    0 -0.00000000000E+00 -0.00000000000E+00 -0.45593999997E+02  0.45594000000E+02  0.51100000000E-03 0. -1.
    9900012    2    1    2    0    0 -0.39900672173E+01  0.26735837606E+02  0.16911328970E+02  0.59301973336E+02  0.50000053451E+02 0.  0.
         12    1    1    2    0    0  0.39900672173E+01 -0.26735837606E+02 -0.16911328970E+02  0.31886026664E+02  0.00000000000E+00 0. -1.
         11    1    3    3    0    0 -0.11810336848E+02  0.45125545248E+01  0.13121691556E+02  0.18221580457E+02  0.51100000000E-03 0. -1.
        -11    1    3    3    0    0  0.40817583757E+01  0.53514193780E+00  0.15578904476E+02  0.16113639976E+02  0.51100000000E-03 0.  1.
        -12    1    3    3    0    0  0.37385112552E+01  0.21688141144E+02 -0.11789267062E+02  0.24966752903E+02  0.00000000000E+00 0.  1.
</event>
<event>
 7    1  0.3449603E-013  0.5930195E+02  0.7816164E-02  0.1266605E+00
        -11   -1    0    0    0    0  0.00000000000E+00  0.00000000000E+00  0.45593999997E+02  0.45594000000E+02  0.51100000000E-03 0. -1.
         11   -1    0    0    0    0 -0.00000000000E+00 -0.00000000000E+00 -0.45593999997E+02  0.45594000000E+02  0.51100000000E-03 0.  1.
    9900012    2    1    2    0    0  0.20919593701E+02 -0.22445721497E+02  0.86764189317E+01  0.59301951960E+02  0.50000014466E+02 0.  0.
         12    1    1    2    0    0 -0.20919593701E+02  0.22445721497E+02 -0.86764189317E+01  0.31886048040E+02  0.00000000000E+00 0. -1.
         11    1    3    3    0    0 -0.36863425820E+01  0.65665905898E+01  0.90843313301E+01  0.11799758878E+02  0.51100000000E-03 0. -1.
        -11    1    3    3    0    0  0.75156645351E+01 -0.12053631619E+02 -0.13924267014E+02  0.19891215668E+02  0.51100000000E-03 0.  1.
         12    1    3    3    0    0  0.17090271748E+02 -0.16958680468E+02  0.13516354616E+02  0.27610977414E+02  0.00000000000E+00 0. -1.
</event>
<event>
 7    1  0.3449603E-013  0.5930193E+02  0.7816164E-02  0.1266605E+00
        -11   -1    0    0    0    0  0.00000000000E+00  0.00000000000E+00  0.45593999997E+02  0.45594000000E+02  0.51100000000E-03 0.  1.
         11   -1    0    0    0    0 -0.00000000000E+00 -0.00000000000E+00 -0.45593999997E+02  0.45594000000E+02  0.51100000000E-03 0. -1.
    9900012    2    1    2    0    0 -0.39635371185E+01  0.26623574170E+02  0.17093777618E+02  0.59301928412E+02  0.49999971521E+02 0.  0.
         12    1    1    2    0    0  0.39635371185E+01 -0.26623574170E+02 -0.17093777618E+02  0.31886071588E+02  0.00000000000E+00 0. -1.
         11    1    3    3    0    0  0.13219341027E+01 -0.38520089041E+01 -0.52864175434E+01  0.66732071055E+01  0.51100000000E-03 0. -1.
        -11    1    3    3    0    0  0.15552184628E+02  0.12450212650E+02  0.72823533313E+01  0.21211103508E+02  0.51100000000E-03 0.  1.
        -12    1    3    3    0    0 -0.20837655849E+02  0.18025370424E+02  0.15097841830E+02  0.31417617798E+02  0.00000000000E+00 0.  1.
</event>
<event>
 7    1  0.3449603E-013  0.5930192E+02  0.7816164E-02  0.1266605E+00
        -11   -1    0    0    0    0  0.00000000000E+00  0.00000000000E+00  0.45593999997E+02  0.45594000000E+02  0.51100000000E-03 0.  1.
         11   -1    0    0    0    0 -0.00000000000E+00 -0.00000000000E+00 -0.45593999997E+02  0.45594000000E+02  0.51100000000E-03 0. -1.
    9900012    2    1    2    0    0  0.19361921239E+02  0.17090526940E+02  0.18701654641E+02  0.59301921666E+02  0.49999959218E+02 0.  0.
         12    1    1    2    0    0 -0.19361921239E+02 -0.17090526940E+02 -0.18701654641E+02  0.31886078334E+02  0.00000000000E+00 0. -1.
         11    1    3    3    0    0  0.62625003525E+01  0.21693866887E+02  0.84811181915E+01  0.24119953093E+02  0.51100000000E-03 0. -1.
        -11    1    3    3    0    0  0.56904630801E+01  0.47471841268E+01  0.18984010148E+02  0.20379150345E+02  0.51100000000E-03 0.  1.
         12    1    3    3    0    0  0.74089578066E+01 -0.93505240739E+01 -0.87634736984E+01  0.14802818228E+02  0.00000000000E+00 0. -1.
</event>
<event>
 7    1  0.3552409E-013  0.5930194E+02  0.7816164E-02  0.1266605E+00
        -11   -1    0    0    0    0  0.00000000000E+00  0.00000000000E+00  0.45593999997E+02  0.45594000000E+02  0.51100000000E-03 0. -1.
         11   -1    0    0    0    0 -0.00000000000E+00 -0.00000000000E+00 -0.45593999997E+02  0.45594000000E+02  0.51100000000E-03 0.  1.
    9900012    2    1    2    0    0  0.54711912392E+01  0.72848934075E+01 -0.30556782161E+02  0.59301944402E+02  0.50000000683E+02 0.  0.
         12    1    1    2    0    0 -0.54711912392E+01 -0.72848934075E+01  0.30556782161E+02  0.31886055598E+02  0.00000000000E+00 0. -1.
         11    1    3    3    0    0  0.11113674975E+02 -0.25156583978E+01  0.48239657172E+01  0.12373881934E+02  0.51100000000E-03 0. -1.
        -11    1    3    3    0    0  0.18776192496E+01 -0.84999656255E+01 -0.20180688664E+02  0.21978058715E+02  0.51100000000E-03 0.  1.
         12    1    3    3    0    0 -0.75201029852E+01  0.18300517431E+02 -0.15200059215E+02  0.24950003753E+02  0.00000000000E+00 0. -1.
</event>
<event>
 7    1  0.3449603E-013  0.5930194E+02  0.7816164E-02  0.1266605E+00
        -11   -1    0    0    0    0  0.00000000000E+00  0.00000000000E+00  0.45593999997E+02  0.45594000000E+02  0.51100000000E-03 0.  1.
         11   -1    0    0    0    0 -0.00000000000E+00 -0.00000000000E+00 -0.45593999997E+02  0.45594000000E+02  0.51100000000E-03 0. -1.
    9900012    2    1    2    0    0  0.13244893882E+02 -0.62211260914E+01  0.28330044056E+02  0.59301936900E+02  0.49999987002E+02 0.  0.
         12    1    1    2    0    0 -0.13244893882E+02  0.62211260914E+01 -0.28330044056E+02  0.31886063100E+02  0.00000000000E+00 0. -1.
         11    1    3    3    0    0  0.93406327639E+00  0.43656030781E+00 -0.49384641993E+01  0.50449467802E+01  0.51100000000E-03 0. -1.
        -11    1    3    3    0    0 -0.14570016747E+02 -0.38254922527E+01  0.71671177381E+01  0.16681947006E+02  0.51100000000E-03 0.  1.
        -12    1    3    3    0    0  0.26880847353E+02 -0.28321941465E+01  0.26101390517E+02  0.37575043114E+02  0.00000000000E+00 0.  1.
</event>
<event>
 7    1  0.3449603E-013  0.5930200E+02  0.7816164E-02  0.1266605E+00
        -11   -1    0    0    0    0  0.00000000000E+00  0.00000000000E+00  0.45593999997E+02  0.45594000000E+02  0.51100000000E-03 0.  1.
         11   -1    0    0    0    0 -0.00000000000E+00 -0.00000000000E+00 -0.45593999997E+02  0.45594000000E+02  0.51100000000E-03 0. -1.
    9900012    2    1    2    0    0 -0.19376939634E+02  0.22026331464E+02  0.12493676473E+02  0.59301999636E+02  0.50000101417E+02 0.  0.
         12    1    1    2    0    0  0.19376939634E+02 -0.22026331464E+02 -0.12493676473E+02  0.31886000364E+02  0.00000000000E+00 0. -1.
         11    1    3    3    0    0  0.79772894160E+01  0.13385314823E+02 -0.25789292240E+01  0.15794134213E+02  0.51100000000E-03 0. -1.
        -11    1    3    3    0    0 -0.11571570676E+00  0.13187297165E+02  0.44114003603E+01  0.13906065225E+02  0.51100000000E-03 0.  1.
        -12    1    3    3    0    0 -0.27238513344E+02 -0.45462805232E+01  0.10661205337E+02  0.29601800199E+02  0.00000000000E+00 0.  1.
</event>
<event>
 7    1  0.3449603E-013  0.5930194E+02  0.7816164E-02  0.1266605E+00
        -11   -1    0    0    0    0  0.00000000000E+00  0.00000000000E+00  0.45593999997E+02  0.45594000000E+02  0.51100000000E-03 0.  1.
         11   -1    0    0    0    0 -0.00000000000E+00 -0.00000000000E+00 -0.45593999997E+02  0.45594000000E+02  0.51100000000E-03 0. -1.
    9900012    2    1    2    0    0 -0.13965769510E+02 -0.23301720294E+02  0.16694554013E+02  0.59301936895E+02  0.49999986992E+02 0.  0.
         12    1    1    2    0    0  0.13965769510E+02  0.23301720294E+02 -0.16694554013E+02  0.31886063105E+02  0.00000000000E+00 0. -1.
         11    1    3    3    0    0 -0.40541735623E+01  0.10111785324E+02  0.65042501291E+01  0.12688175429E+02  0.51100000000E-03 0. -1.
        -11    1    3    3    0    0 -0.15199840539E+02 -0.10345314665E+02 -0.42745910525E+01  0.18876779832E+02  0.51100000000E-03 0.  1.
        -12    1    3    3    0    0  0.52882445913E+01 -0.23068190952E+02  0.14464894936E+02  0.27736981634E+02  0.00000000000E+00 0.  1.
</event>
<event>
 7    1  0.3449603E-013  0.5930196E+02  0.7816164E-02  0.1266605E+00
        -11   -1    0    0    0    0  0.00000000000E+00  0.00000000000E+00  0.45593999997E+02  0.45594000000E+02  0.51100000000E-03 0.  1.
         11   -1    0    0    0    0 -0.00000000000E+00 -0.00000000000E+00 -0.45593999997E+02  0.45594000000E+02  0.51100000000E-03 0. -1.
    9900012    2    1    2    0    0 -0.10524004909E+02 -0.23831206174E+02 -0.18385815613E+02  0.59301964141E+02  0.50000036683E+02 0.  0.
         12    1    1    2    0    0  0.10524004909E+02  0.23831206174E+02  0.18385815613E+02  0.31886035859E+02  0.00000000000E+00 0. -1.
         11    1    3    3    0    0 -0.18686501894E+02 -0.29444533235E+01 -0.15072171877E+02  0.24187300878E+02  0.51100000000E-03 0. -1.
        -11    1    3    3    0    0 -0.67434395574E+01 -0.26414898753E+01 -0.83178975357E+01  0.11029001111E+02  0.51100000000E-03 0.  1.
        -12    1    3    3    0    0  0.14905936543E+02 -0.18245262975E+02  0.50042537991E+01  0.24085662153E+02  0.00000000000E+00 0.  1.
</event>
<event>
 7    1  0.3449603E-013  0.5930195E+02  0.7816164E-02  0.1266605E+00
        -11   -1    0    0    0    0  0.00000000000E+00  0.00000000000E+00  0.45593999997E+02  0.45594000000E+02  0.51100000000E-03 0. -1.
         11   -1    0    0    0    0 -0.00000000000E+00 -0.00000000000E+00 -0.45593999997E+02  0.45594000000E+02  0.51100000000E-03 0.  1.
    9900012    2    1    2    0    0  0.26091540024E+02  0.47636919814E+01 -0.17699130900E+02  0.59301945733E+02  0.50000003110E+02 0.  0.
         12    1    1    2    0    0 -0.26091540024E+02 -0.47636919814E+01  0.17699130900E+02  0.31886054267E+02  0.00000000000E+00 0. -1.
         11    1    3    3    0    0 -0.15592124892E+01  0.55635570729E+01  0.41949580103E+01  0.71401669350E+01  0.51100000000E-03 0. -1.
        -11    1    3    3    0    0  0.28986054558E+02  0.14113133094E+02 -0.16744070164E+02  0.36328167728E+02  0.51100000000E-03 0.  1.
        -12    1    3    3    0    0 -0.13353020442E+01 -0.14912998185E+02 -0.51500187457E+01  0.15833611070E+02  0.00000000000E+00 0.  1.
</event>
<event>
 7    1  0.3449603E-013  0.5930194E+02  0.7816164E-02  0.1266605E+00
        -11   -1    0    0    0    0  0.00000000000E+00  0.00000000000E+00  0.45593999997E+02  0.45594000000E+02  0.51100000000E-03 0.  1.
         11   -1    0    0    0    0 -0.00000000000E+00 -0.00000000000E+00 -0.45593999997E+02  0.45594000000E+02  0.51100000000E-03 0. -1.
    9900012    2    1    2    0    0 -0.24976848528E+02 -0.88979468740E+01  0.17711698615E+02  0.59301942094E+02  0.49999996473E+02 0.  0.
         12    1    1    2    0    0  0.24976848528E+02  0.88979468740E+01 -0.17711698615E+02  0.31886057906E+02  0.00000000000E+00 0. -1.
         11    1    3    3    0    0 -0.12329763008E+02 -0.22338718591E+02  0.27525423965E+01  0.25663551859E+02  0.51100000000E-03 0. -1.
        -11    1    3    3    0    0  0.32580773209E+01 -0.48294086542E+01  0.38948676656E+01  0.70077278894E+01  0.51100000000E-03 0.  1.
        -12    1    3    3    0    0 -0.15905162842E+02  0.18270180371E+02  0.11064288552E+02  0.26630662346E+02  0.00000000000E+00 0.  1.
</event>
<event>
 7    1  0.3449603E-013  0.5930194E+02  0.7816164E-02  0.1266605E+00
        -11   -1    0    0    0    0  0.00000000000E+00  0.00000000000E+00  0.45593999997E+02  0.45594000000E+02  0.51100000000E-03 0.  1.
         11   -1    0    0    0    0 -0.00000000000E+00 -0.00000000000E+00 -0.45593999997E+02  0.45594000000E+02  0.51100000000E-03 0. -1.
    9900012    2    1    2    0    0 -0.19040632516E+02  0.11609254391E+02  0.22790359259E+02  0.59301938010E+02  0.49999989024E+02 0.  0.
         12    1    1    2    0    0  0.19040632516E+02 -0.11609254391E+02 -0.22790359259E+02  0.31886061990E+02  0.00000000000E+00 0. -1.
         11    1    3    3    0    0  0.11668918480E+02  0.36526243569E+01  0.68682691188E+01  0.14024209216E+02  0.51100000000E-03 0. -1.
        -11    1    3    3    0    0  0.53832932888E+01  0.18279680534E+01  0.11502478690E+01  0.58003779410E+01  0.51100000000E-03 0.  1.
        -12    1    3    3    0    0 -0.36092844285E+02  0.61286619804E+01  0.14771842271E+02  0.39477350852E+02  0.00000000000E+00 0.  1.
</event>
<event>
 7    1  0.3449603E-013  0.5930195E+02  0.7816164E-02  0.1266605E+00
        -11   -1    0    0    0    0  0.00000000000E+00  0.00000000000E+00  0.45593999997E+02  0.45594000000E+02  0.51100000000E-03 0.  1.
         11   -1    0    0    0    0 -0.00000000000E+00 -0.00000000000E+00 -0.45593999997E+02  0.45594000000E+02  0.51100000000E-03 0. -1.
    9900012    2    1    2    0    0 -0.12157349205E+02  0.24735917763E+02  0.16032881289E+02  0.59301952115E+02  0.50000014749E+02 0.  0.
         12    1    1    2    0    0  0.12157349205E+02 -0.24735917763E+02 -0.16032881289E+02  0.31886047885E+02  0.00000000000E+00 0. -1.
         11    1    3    3    0    0  0.15675608915E+01  0.55715214681E+01  0.16001292153E+02  0.17015888147E+02  0.51100000000E-03 0. -1.
        -11    1    3    3    0    0 -0.10693658247E+02  0.10110267495E+00  0.14603574172E+02  0.18100522847E+02  0.51100000000E-03 0.  1.
         12    1    3    3    0    0 -0.30312518492E+01  0.19063293620E+02 -0.14571985036E+02  0.24185541121E+02  0.00000000000E+00 0. -1.
</event>
<event>
 7    1  0.3449603E-013  0.5930192E+02  0.7816164E-02  0.1266605E+00
        -11   -1    0    0    0    0  0.00000000000E+00  0.00000000000E+00  0.45593999997E+02  0.45594000000E+02  0.51100000000E-03 0.  1.
         11   -1    0    0    0    0 -0.00000000000E+00 -0.00000000000E+00 -0.45593999997E+02  0.45594000000E+02  0.51100000000E-03 0. -1.
    9900012    2    1    2    0    0  0.12956647625E+02  0.29049437476E+02  0.22310443834E+01  0.59301920053E+02  0.49999956275E+02 0.  0.
         12    1    1    2    0    0 -0.12956647625E+02 -0.29049437476E+02 -0.22310443834E+01  0.31886079947E+02  0.00000000000E+00 0. -1.
         11    1    3    3    0    0 -0.43849912945E+01  0.16847235952E+02 -0.71982308185E+01  0.18838047538E+02  0.51100000000E-03 0. -1.
        -11    1    3    3    0    0 -0.30900477486E+01  0.15017370025E+02  0.12279404833E+02  0.19643156083E+02  0.51100000000E-03 0.  1.
        -12    1    3    3    0    0  0.20431686668E+02 -0.28151685011E+01 -0.28501296316E+01  0.20820716431E+02  0.00000000000E+00 0.  1.
</event>
<event>
 7    1  0.3449603E-013  0.5930194E+02  0.7816164E-02  0.1266605E+00
        -11   -1    0    0    0    0  0.00000000000E+00  0.00000000000E+00  0.45593999997E+02  0.45594000000E+02  0.51100000000E-03 0. -1.
         11   -1    0    0    0    0 -0.00000000000E+00 -0.00000000000E+00 -0.45593999997E+02  0.45594000000E+02  0.51100000000E-03 0.  1.
    9900012    2    1    2    0    0  0.28862639021E+02 -0.71309876248E+00 -0.13533685578E+02  0.59301935858E+02  0.49999985101E+02 0.  0.
         12    1    1    2    0    0 -0.28862639021E+02  0.71309876248E+00  0.13533685578E+02  0.31886064142E+02  0.00000000000E+00 0. -1.
         11    1    3    3    0    0  0.18490504184E+02  0.85622495657E+01 -0.60312565014E+01  0.21250574530E+02  0.51100000000E-03 0. -1.
        -11    1    3    3    0    0  0.20361232386E+02  0.19809157373E+01 -0.10041998791E+02  0.22789154250E+02  0.51100000000E-03 0.  1.
        -12    1    3    3    0    0 -0.99890975492E+01 -0.11256264065E+02  0.25395697145E+01  0.15262207078E+02  0.00000000000E+00 0.  1.
</event>
<event>
 7    1  0.3449603E-013  0.5930195E+02  0.7816164E-02  0.1266605E+00
        -11   -1    0    0    0    0  0.00000000000E+00  0.00000000000E+00  0.45593999997E+02  0.45594000000E+02  0.51100000000E-03 0. -1.
         11   -1    0    0    0    0 -0.00000000000E+00 -0.00000000000E+00 -0.45593999997E+02  0.45594000000E+02  0.51100000000E-03 0.  1.
    9900012    2    1    2    0    0  0.47807442117E+01  0.85017872339E+01 -0.30357603285E+02  0.59301953230E+02  0.50000016783E+02 0.  0.
         12    1    1    2    0    0 -0.47807442117E+01 -0.85017872339E+01  0.30357603285E+02  0.31886046770E+02  0.00000000000E+00 0. -1.
         11    1    3    3    0    0 -0.10671071765E+02  0.59989633582E+01  0.15101558411E+01  0.12334500595E+02  0.51100000000E-03 0. -1.
        -11    1    3    3    0    0  0.79939681571E+01 -0.13769598941E+01  0.47479569329E+01  0.93990765900E+01  0.51100000000E-03 0.  1.
        -12    1    3    3    0    0  0.74578478199E+01  0.38797837699E+01 -0.36615716059E+02  0.37568376046E+02  0.00000000000E+00 0.  1.
</event>
<event>
 7    1  0.3449603E-013  0.5930194E+02  0.7816164E-02  0.1266605E+00
        -11   -1    0    0    0    0  0.00000000000E+00  0.00000000000E+00  0.45593999997E+02  0.45594000000E+02  0.51100000000E-03 0.  1.
         11   -1    0    0    0    0 -0.00000000000E+00 -0.00000000000E+00 -0.45593999997E+02  0.45594000000E+02  0.51100000000E-03 0. -1.
    9900012    2    1    2    0    0 -0.73745312534E+01  0.31006539142E+02 -0.96507768327E+00  0.59301944181E+02  0.50000000280E+02 0.  0.
         12    1    1    2    0    0  0.73745312534E+01 -0.31006539142E+02  0.96507768327E+00  0.31886055819E+02  0.00000000000E+00 0. -1.
         11    1    3    3    0    0  0.15329057941E+02 -0.26758130096E+01 -0.56745018882E+01  0.16563211179E+02  0.51100000000E-03 0. -1.
        -11    1    3    3    0    0 -0.48348731062E+01  0.84612504101E+01 -0.41389355669E+01  0.10587707228E+02  0.51100000000E-03 0.  1.
        -12    1    3    3    0    0 -0.17868716088E+02  0.25221101741E+02  0.88483597719E+01  0.32151025774E+02  0.00000000000E+00 0.  1.
</event>
<event>
 7    1  0.3449603E-013  0.5930193E+02  0.7816164E-02  0.1266605E+00
        -11   -1    0    0    0    0  0.00000000000E+00  0.00000000000E+00  0.45593999997E+02  0.45594000000E+02  0.51100000000E-03 0. -1.
         11   -1    0    0    0    0 -0.00000000000E+00 -0.00000000000E+00 -0.45593999997E+02  0.45594000000E+02  0.51100000000E-03 0.  1.
    9900012    2    1    2    0    0 -0.11984810045E+02 -0.20978690539E+00 -0.29547276106E+02  0.59301933958E+02  0.49999981635E+02 0.  0.
         12    1    1    2    0    0  0.11984810045E+02  0.20978690539E+00  0.29547276106E+02  0.31886066042E+02  0.00000000000E+00 0. -1.
         11    1    3    3    0    0  0.32167157038E+01  0.20377272682E+02 -0.84276245536E+01  0.22284643990E+02  0.51100000000E-03 0. -1.
        -11    1    3    3    0    0 -0.22045046422E+01 -0.37876979926E+01 -0.13914579636E+02  0.14588420871E+02  0.51100000000E-03 0.  1.
        -12    1    3    3    0    0 -0.12997021106E+02 -0.16799361595E+02 -0.72050719163E+01  0.22428869097E+02  0.00000000000E+00 0.  1.
</event>
<event>
 7    1  0.3449603E-013  0.5930197E+02  0.7816164E-02  0.1266605E+00
        -11   -1    0    0    0    0  0.00000000000E+00  0.00000000000E+00  0.45593999997E+02  0.45594000000E+02  0.51100000000E-03 0. -1.
         11   -1    0    0    0    0 -0.00000000000E+00 -0.00000000000E+00 -0.45593999997E+02  0.45594000000E+02  0.51100000000E-03 0.  1.
    9900012    2    1    2    0    0 -0.25893906464E+02  0.36922358555E+01 -0.18237103277E+02  0.59301969618E+02  0.50000046671E+02 0.  0.
         12    1    1    2    0    0  0.25893906464E+02 -0.36922358555E+01  0.18237103277E+02  0.31886030382E+02  0.00000000000E+00 0. -1.
         11    1    3    3    0    0 -0.55607243739E+01  0.20899077788E+02 -0.15104653046E+02  0.26378848570E+02  0.51100000000E-03 0. -1.
        -11    1    3    3    0    0  0.23453063682E+01 -0.84887361110E+00  0.33913270318E+01  0.42097681249E+01  0.51100000000E-03 0.  1.
        -12    1    3    3    0    0 -0.22678488458E+02 -0.16357968322E+02 -0.65237772628E+01  0.28713352924E+02  0.00000000000E+00 0.  1.
</event>
<event>
 7    1  0.3449603E-013  0.5930196E+02  0.7816164E-02  0.1266605E+00
        -11   -1    0    0    0    0  0.00000000000E+00  0.00000000000E+00  0.45593999997E+02  0.45594000000E+02  0.51100000000E-03 0.  1.
         11   -1    0    0    0    0 -0.00000000000E+00 -0.00000000000E+00 -0.45593999997E+02  0.45594000000E+02  0.51100000000E-03 0. -1.
    9900012    2    1    2    0    0  0.24592439056E+02  0.14563366537E+02  0.14136481679E+02  0.59301955751E+02  0.50000021380E+02 0.  0.
         12    1    1    2    0    0 -0.24592439056E+02 -0.14563366537E+02 -0.14136481679E+02  0.31886044249E+02  0.00000000000E+00 0. -1.
         11    1    3    3    0    0 -0.14180685102E+01 -0.51180307401E+01 -0.80388509072E+01  0.96347434385E+01  0.51100000000E-03 0. -1.
        -11    1    3    3    0    0  0.29330069170E+02  0.12869968437E+02  0.71181295841E+01  0.32810925226E+02  0.51100000000E-03 0.  1.
         12    1    3    3    0    0 -0.33195616043E+01  0.68114288398E+01  0.15057203002E+02  0.16856287086E+02  0.00000000000E+00 0. -1.
</event>
<event>
 7    1  0.3449603E-013  0.5930189E+02  0.7816164E-02  0.1266605E+00
        -11   -1    0    0    0    0  0.00000000000E+00  0.00000000000E+00  0.45593999997E+02  0.45594000000E+02  0.51100000000E-03 0. -1.
         11   -1    0    0    0    0 -0.00000000000E+00 -0.00000000000E+00 -0.45593999997E+02  0.45594000000E+02  0.51100000000E-03 0.  1.
    9900012    2    1    2    0    0  0.19954576194E+02 -0.21760646992E+02  0.12042134456E+02  0.59301892197E+02  0.49999905473E+02 0.  0.
         12    1    1    2    0    0 -0.19954576194E+02  0.21760646992E+02 -0.12042134456E+02  0.31886107803E+02  0.00000000000E+00 0. -1.
         11    1    3    3    0    0  0.20504152053E+01 -0.55003065798E+00  0.13127253748E+02  0.13297801603E+02  0.51100000000E-03 0. -1.
        -11    1    3    3    0    0  0.13613672784E+02 -0.20631910270E+02  0.15290687386E+02  0.29065665811E+02  0.51100000000E-03 0.  1.
         12    1    3    3    0    0  0.42904882048E+01 -0.57870606373E+00 -0.16375806678E+02  0.16938424782E+02  0.00000000000E+00 0. -1.
</event>
<event>
 7    1  0.3449603E-013  0.5930200E+02  0.7816164E-02  0.1266605E+00
        -11   -1    0    0    0    0  0.00000000000E+00  0.00000000000E+00  0.45593999997E+02  0.45594000000E+02  0.51100000000E-03 0.  1.
         11   -1    0    0    0    0 -0.00000000000E+00 -0.00000000000E+00 -0.45593999997E+02  0.45594000000E+02  0.51100000000E-03 0. -1.
    9900012    2    1    2    0    0  0.10051290037E+02 -0.45478235644E+01  0.29916647216E+02  0.59302001330E+02  0.50000104505E+02 0.  0.
         12    1    1    2    0    0 -0.10051290037E+02  0.45478235644E+01 -0.29916647216E+02  0.31885998670E+02  0.00000000000E+00 0. -1.
         11    1    3    3    0    0 -0.15079885796E+01  0.89185676016E+01 -0.50636156577E+01  0.10366054284E+02  0.51100000000E-03 0. -1.
        -11    1    3    3    0    0 -0.44426854466E+01  0.43248216553E+01 -0.41173412753E+00  0.62137799752E+01  0.51100000000E-03 0.  1.
        -12    1    3    3    0    0  0.16001964063E+02 -0.17791212821E+02  0.35391997001E+02  0.42722167071E+02  0.00000000000E+00 0.  1.
</event>
<event>
 7    1  0.3449603E-013  0.5930196E+02  0.7816164E-02  0.1266605E+00
        -11   -1    0    0    0    0  0.00000000000E+00  0.00000000000E+00  0.45593999997E+02  0.45594000000E+02  0.51100000000E-03 0.  1.
         11   -1    0    0    0    0 -0.00000000000E+00 -0.00000000000E+00 -0.45593999997E+02  0.45594000000E+02  0.51100000000E-03 0. -1.
    9900012    2    1    2    0    0  0.11557049302E+02  0.26054881370E+02 -0.14293271527E+02  0.59301955361E+02  0.50000020669E+02 0.  0.
         12    1    1    2    0    0 -0.11557049302E+02 -0.26054881370E+02  0.14293271527E+02  0.31886044639E+02  0.00000000000E+00 0. -1.
         11    1    3    3    0    0 -0.74526520427E+01 -0.21682671837E+01 -0.10730073893E+02  0.13243031792E+02  0.51100000000E-03 0. -1.
        -11    1    3    3    0    0 -0.73382496652E+01  0.39931467575E+01  0.43208927908E+01  0.94055964163E+01  0.51100000000E-03 0.  1.
         12    1    3    3    0    0  0.26347951010E+02  0.24230001796E+02 -0.78840904246E+01  0.36653327152E+02  0.00000000000E+00 0. -1.
</event>
<event>
 7    1  0.3449603E-013  0.5930193E+02  0.7816164E-02  0.1266605E+00
        -11   -1    0    0    0    0  0.00000000000E+00  0.00000000000E+00  0.45593999997E+02  0.45594000000E+02  0.51100000000E-03 0. -1.
         11   -1    0    0    0    0 -0.00000000000E+00 -0.00000000000E+00 -0.45593999997E+02  0.45594000000E+02  0.51100000000E-03 0.  1.
    9900012    2    1    2    0    0 -0.25158850724E+02 -0.17991225641E+02  0.77504343261E+01  0.59301934045E+02  0.49999981795E+02 0.  0.
         12    1    1    2    0    0  0.25158850724E+02  0.17991225641E+02 -0.77504343261E+01  0.31886065955E+02  0.00000000000E+00 0. -1.
         11    1    3    3    0    0  0.12367288369E+02 -0.48158431006E+01  0.24826735422E+01  0.13502067788E+02  0.51100000000E-03 0. -1.
        -11    1    3    3    0    0  0.17802885103E+01  0.82687245049E+00 -0.26817242146E+01  0.33233703154E+01  0.51100000000E-03 0.  1.
        -12    1    3    3    0    0 -0.39306427603E+02 -0.14002254991E+02  0.79494849985E+01  0.42476495942E+02  0.00000000000E+00 0.  1.
</event>
<event>
 7    1  0.3449603E-013  0.5930193E+02  0.7816164E-02  0.1266605E+00
        -11   -1    0    0    0    0  0.00000000000E+00  0.00000000000E+00  0.45593999997E+02  0.45594000000E+02  0.51100000000E-03 0.  1.
         11   -1    0    0    0    0 -0.00000000000E+00 -0.00000000000E+00 -0.45593999997E+02  0.45594000000E+02  0.51100000000E-03 0. -1.
    9900012    2    1    2    0    0 -0.65046261533E+01 -0.43356178554E+01  0.30912999357E+02  0.59301932935E+02  0.49999979770E+02 0.  0.
         12    1    1    2    0    0  0.65046261533E+01  0.43356178554E+01 -0.30912999357E+02  0.31886067065E+02  0.00000000000E+00 0. -1.
         11    1    3    3    0    0 -0.62562905086E+01 -0.13431001308E+02  0.96875254149E+01  0.17702573711E+02  0.51100000000E-03 0. -1.
        -11    1    3    3    0    0 -0.13133459534E+02  0.23401836790E+01  0.23354357192E+02  0.26895914543E+02  0.51100000000E-03 0.  1.
         12    1    3    3    0    0  0.12885123890E+02  0.67551997736E+01 -0.21288832492E+01  0.14703444682E+02  0.00000000000E+00 0. -1.
</event>
<event>
 7    1  0.3449603E-013  0.5930195E+02  0.7816164E-02  0.1266605E+00
        -11   -1    0    0    0    0  0.00000000000E+00  0.00000000000E+00  0.45593999997E+02  0.45594000000E+02  0.51100000000E-03 0.  1.
         11   -1    0    0    0    0 -0.00000000000E+00 -0.00000000000E+00 -0.45593999997E+02  0.45594000000E+02  0.51100000000E-03 0. -1.
    9900012    2    1    2    0    0  0.18860532782E+02 -0.16006217342E+01  0.25660051276E+02  0.59301954177E+02  0.50000018510E+02 0.  0.
         12    1    1    2    0    0 -0.18860532782E+02  0.16006217342E+01 -0.25660051276E+02  0.31886045823E+02  0.00000000000E+00 0. -1.
         11    1    3    3    0    0 -0.24834895816E+00 -0.52841267103E+01 -0.83330838308E+01  0.98703575765E+01  0.51100000000E-03 0. -1.
        -11    1    3    3    0    0 -0.52705067904E+01  0.63077257803E+01  0.18972049714E+02  0.20676177523E+02  0.51100000000E-03 0.  1.
         12    1    3    3    0    0  0.24379388530E+02 -0.26242208042E+01  0.15021085393E+02  0.28755419078E+02  0.00000000000E+00 0. -1.
</event>
<event>
 7    1  0.3449603E-013  0.5930195E+02  0.7816164E-02  0.1266605E+00
        -11   -1    0    0    0    0  0.00000000000E+00  0.00000000000E+00  0.45593999997E+02  0.45594000000E+02  0.51100000000E-03 0. -1.
         11   -1    0    0    0    0 -0.00000000000E+00 -0.00000000000E+00 -0.45593999997E+02  0.45594000000E+02  0.51100000000E-03 0.  1.
    9900012    2    1    2    0    0 -0.24488671397E+02 -0.69289775749E+01 -0.19209754864E+02  0.59301946011E+02  0.50000003618E+02 0.  0.
         12    1    1    2    0    0  0.24488671397E+02  0.69289775749E+01  0.19209754864E+02  0.31886053989E+02  0.00000000000E+00 0. -1.
         11    1    3    3    0    0  0.48762142280E+01 -0.70892727314E+01 -0.14991308920E+00  0.86056799413E+01  0.51100000000E-03 0. -1.
        -11    1    3    3    0    0  0.13784215644E+01  0.13279305957E+02 -0.33579005262E+01  0.13766463196E+02  0.51100000000E-03 0.  1.
        -12    1    3    3    0    0 -0.30743307189E+02 -0.13119010801E+02 -0.15701941249E+02  0.36929802874E+02  0.00000000000E+00 0.  1.
</event>
<event>
 7    1  0.3449603E-013  0.5930190E+02  0.7816164E-02  0.1266605E+00
        -11   -1    0    0    0    0  0.00000000000E+00  0.00000000000E+00  0.45593999997E+02  0.45594000000E+02  0.51100000000E-03 0.  1.
         11   -1    0    0    0    0 -0.00000000000E+00 -0.00000000000E+00 -0.45593999997E+02  0.45594000000E+02  0.51100000000E-03 0. -1.
    9900012    2    1    2    0    0  0.92572585083E+01  0.21785522302E+02  0.21363929173E+02  0.59301901355E+02  0.49999922176E+02 0.  0.
         12    1    1    2    0    0 -0.92572585083E+01 -0.21785522302E+02 -0.21363929173E+02  0.31886098645E+02  0.00000000000E+00 0. -1.
         11    1    3    3    0    0 -0.23082118940E+00  0.70746325675E+01  0.33361862566E+01  0.78252056450E+01  0.51100000000E-03 0. -1.
        -11    1    3    3    0    0  0.80433474072E+01  0.28244086160E+02  0.22667257735E+02  0.37097552668E+02  0.51100000000E-03 0.  1.
         12    1    3    3    0    0  0.14447322905E+01 -0.13533196425E+02 -0.46395148179E+01  0.14379143042E+02  0.00000000000E+00 0. -1.
</event>
<event>
 7    1  0.3449603E-013  0.5930193E+02  0.7816164E-02  0.1266605E+00
        -11   -1    0    0    0    0  0.00000000000E+00  0.00000000000E+00  0.45593999997E+02  0.45594000000E+02  0.51100000000E-03 0.  1.
         11   -1    0    0    0    0 -0.00000000000E+00 -0.00000000000E+00 -0.45593999997E+02  0.45594000000E+02  0.51100000000E-03 0. -1.
    9900012    2    1    2    0    0 -0.30824027966E+02 -0.53329314396E+01  0.61774425696E+01  0.59301926951E+02  0.49999968857E+02 0.  0.
         12    1    1    2    0    0  0.30824027966E+02  0.53329314396E+01 -0.61774425696E+01  0.31886073049E+02  0.00000000000E+00 0. -1.
         11    1    3    3    0    0 -0.34702168982E+01 -0.15122765065E+02 -0.59300290327E+01  0.16610408578E+02  0.51100000000E-03 0. -1.
        -11    1    3    3    0    0 -0.27388051382E+02 -0.30412898490E+01  0.11458962398E+02  0.29843971284E+02  0.51100000000E-03 0.  1.
         12    1    3    3    0    0  0.34240314778E-01  0.12831123475E+02  0.64850920407E+00  0.12847547089E+02  0.00000000000E+00 0. -1.
</event>
<event>
 7    1  0.3449603E-013  0.5930196E+02  0.7816164E-02  0.1266605E+00
        -11   -1    0    0    0    0  0.00000000000E+00  0.00000000000E+00  0.45593999997E+02  0.45594000000E+02  0.51100000000E-03 0. -1.
         11   -1    0    0    0    0 -0.00000000000E+00 -0.00000000000E+00 -0.45593999997E+02  0.45594000000E+02  0.51100000000E-03 0.  1.
    9900012    2    1    2    0    0 -0.12615524459E+02 -0.28885478619E+02 -0.48163177295E+01  0.59301964673E+02  0.50000037652E+02 0.  0.
         12    1    1    2    0    0  0.12615524459E+02  0.28885478619E+02  0.48163177295E+01  0.31886035327E+02  0.00000000000E+00 0. -1.
         11    1    3    3    0    0  0.75037936435E+01 -0.21059594227E+02  0.65008462505E+01  0.23282491926E+02  0.51100000000E-03 0. -1.
        -11    1    3    3    0    0 -0.44678755460E+01  0.93604081141E+01 -0.66196787510E+01  0.12304442246E+02  0.51100000000E-03 0.  1.
        -12    1    3    3    0    0 -0.15651442556E+02 -0.17186292505E+02 -0.46974852289E+01  0.23715030501E+02  0.00000000000E+00 0.  1.
</event>
<event>
 7    1  0.3449603E-013  0.5930195E+02  0.7816164E-02  0.1266605E+00
        -11   -1    0    0    0    0  0.00000000000E+00  0.00000000000E+00  0.45593999997E+02  0.45594000000E+02  0.51100000000E-03 0.  1.
         11   -1    0    0    0    0 -0.00000000000E+00 -0.00000000000E+00 -0.45593999997E+02  0.45594000000E+02  0.51100000000E-03 0. -1.
    9900012    2    1    2    0    0 -0.10430459643E+02  0.39292394686E+01  0.29874519391E+02  0.59301947877E+02  0.50000007019E+02 0.  0.
         12    1    1    2    0    0  0.10430459643E+02 -0.39292394686E+01 -0.29874519391E+02  0.31886052123E+02  0.00000000000E+00 0. -1.
         11    1    3    3    0    0  0.96680446646E+00 -0.35564939370E+01  0.50328400027E+01  0.62380156103E+01  0.51100000000E-03 0. -1.
        -11    1    3    3    0    0  0.38863795109E+01 -0.17110539348E+02  0.12716491437E+02  0.21669879031E+02  0.51100000000E-03 0.  1.
         12    1    3    3    0    0 -0.15283643621E+02  0.24596272754E+02  0.12125187951E+02  0.31394053235E+02  0.00000000000E+00 0. -1.
</event>
<event>
 7    1  0.3449603E-013  0.5930196E+02  0.7816164E-02  0.1266605E+00
        -11   -1    0    0    0    0  0.00000000000E+00  0.00000000000E+00  0.45593999997E+02  0.45594000000E+02  0.51100000000E-03 0.  1.
         11   -1    0    0    0    0 -0.00000000000E+00 -0.00000000000E+00 -0.45593999997E+02  0.45594000000E+02  0.51100000000E-03 0. -1.
    9900012    2    1    2    0    0  0.18450435862E+02 -0.26005466170E+02  0.12942871901E+00  0.59301959073E+02  0.50000027439E+02 0.  0.
         12    1    1    2    0    0 -0.18450435862E+02  0.26005466170E+02 -0.12942871901E+00  0.31886040927E+02  0.00000000000E+00 0. -1.
         11    1    3    3    0    0  0.15348147996E-01 -0.10643750980E+01  0.31786583890E+00  0.11109315314E+01  0.51100000000E-03 0. -1.
        -11    1    3    3    0    0 -0.61681084359E+01 -0.77602919581E+01  0.19794573965E+02  0.22138040827E+02  0.51100000000E-03 0.  1.
         12    1    3    3    0    0  0.24603196150E+02 -0.17180799114E+02 -0.19983011085E+02  0.36052986714E+02  0.00000000000E+00 0. -1.
</event>
<event>
 7    1  0.3449603E-013  0.5930196E+02  0.7816164E-02  0.1266605E+00
        -11   -1    0    0    0    0  0.00000000000E+00  0.00000000000E+00  0.45593999997E+02  0.45594000000E+02  0.51100000000E-03 0. -1.
         11   -1    0    0    0    0 -0.00000000000E+00 -0.00000000000E+00 -0.45593999997E+02  0.45594000000E+02  0.51100000000E-03 0.  1.
    9900012    2    1    2    0    0 -0.15889760836E+02 -0.55837836379E+01 -0.27075014699E+02  0.59301959793E+02  0.50000028752E+02 0.  0.
         12    1    1    2    0    0  0.15889760836E+02  0.55837836379E+01  0.27075014699E+02  0.31886040207E+02  0.00000000000E+00 0. -1.
         11    1    3    3    0    0 -0.52633612751E+01  0.36681505314E+01  0.42201376530E+01  0.76790534771E+01  0.51100000000E-03 0. -1.
        -11    1    3    3    0    0 -0.13333551635E+02 -0.25614975734E+01  0.51115636197E+01  0.14507685961E+02  0.51100000000E-03 0.  1.
        -12    1    3    3    0    0  0.27071520747E+01 -0.66904365958E+01 -0.36406715972E+02  0.37115220355E+02  0.00000000000E+00 0.  1.
</event>
<event>
 7    1  0.3449603E-013  0.5930194E+02  0.7816164E-02  0.1266605E+00
        -11   -1    0    0    0    0  0.00000000000E+00  0.00000000000E+00  0.45593999997E+02  0.45594000000E+02  0.51100000000E-03 0.  1.
         11   -1    0    0    0    0 -0.00000000000E+00 -0.00000000000E+00 -0.45593999997E+02  0.45594000000E+02  0.51100000000E-03 0. -1.
    9900012    2    1    2    0    0 -0.19814115989E+02  0.10909670568E+02  0.22474451236E+02  0.59301936231E+02  0.49999985781E+02 0.  0.
         12    1    1    2    0    0  0.19814115989E+02 -0.10909670568E+02 -0.22474451236E+02  0.31886063769E+02  0.00000000000E+00 0. -1.
         11    1    3    3    0    0 -0.22075582598E+01 -0.72433436949E+01  0.27555590073E+02  0.28577086728E+02  0.51100000000E-03 0. -1.
        -11    1    3    3    0    0  0.17299885027E+01 -0.84792793005E-02  0.25856730945E+01  0.31110509045E+01  0.51100000000E-03 0.  1.
         12    1    3    3    0    0 -0.19336546232E+02  0.18161493542E+02 -0.76668119314E+01  0.27613798599E+02  0.00000000000E+00 0. -1.
</event>
<event>
 7    1  0.3449603E-013  0.5930187E+02  0.7816164E-02  0.1266605E+00
        -11   -1    0    0    0    0  0.00000000000E+00  0.00000000000E+00  0.45593999997E+02  0.45594000000E+02  0.51100000000E-03 0. -1.
         11   -1    0    0    0    0 -0.00000000000E+00 -0.00000000000E+00 -0.45593999997E+02  0.45594000000E+02  0.51100000000E-03 0.  1.
    9900012    2    1    2    0    0 -0.20485044591E+00 -0.25758566578E+02 -0.18793067250E+02  0.59301873040E+02  0.49999870535E+02 0.  0.
         12    1    1    2    0    0  0.20485044591E+00  0.25758566578E+02  0.18793067250E+02  0.31886126960E+02  0.00000000000E+00 0. -1.
         11    1    3    3    0    0 -0.19281364238E+01 -0.11663987266E+01 -0.67957047135E+00  0.23537230816E+01  0.51100000000E-03 0. -1.
        -11    1    3    3    0    0 -0.22854759571E+02 -0.15483034533E+02 -0.11569251156E+02  0.29931788553E+02  0.51100000000E-03 0.  1.
        -12    1    3    3    0    0  0.24578045549E+02 -0.91091333184E+01 -0.65442456230E+01  0.27016361405E+02  0.00000000000E+00 0.  1.
</event>
<event>
 7    1  0.3449603E-013  0.5930193E+02  0.7816164E-02  0.1266605E+00
        -11   -1    0    0    0    0  0.00000000000E+00  0.00000000000E+00  0.45593999997E+02  0.45594000000E+02  0.51100000000E-03 0.  1.
         11   -1    0    0    0    0 -0.00000000000E+00 -0.00000000000E+00 -0.45593999997E+02  0.45594000000E+02  0.51100000000E-03 0. -1.
    9900012    2    1    2    0    0 -0.16106539212E+02  0.19501181309E+02  0.19416607556E+02  0.59301932089E+02  0.49999978227E+02 0.  0.
         12    1    1    2    0    0  0.16106539212E+02 -0.19501181309E+02 -0.19416607556E+02  0.31886067911E+02  0.00000000000E+00 0. -1.
         11    1    3    3    0    0 -0.22771223324E+02  0.21070996191E+02  0.32753987344E+01  0.31196854477E+02  0.51100000000E-03 0. -1.
        -11    1    3    3    0    0 -0.77812422367E+01 -0.82187622374E+00  0.91487274240E+01  0.12038373022E+02  0.51100000000E-03 0.  1.
         12    1    3    3    0    0  0.14445926348E+02 -0.74793865875E+00  0.69924813972E+01  0.16066704590E+02  0.00000000000E+00 0. -1.
</event>
<event>
 7    1  0.3449603E-013  0.5930213E+02  0.7816164E-02  0.1266604E+00
        -11   -1    0    0    0    0  0.00000000000E+00  0.00000000000E+00  0.45593999997E+02  0.45594000000E+02  0.51100000000E-03 0. -1.
         11   -1    0    0    0    0 -0.00000000000E+00 -0.00000000000E+00 -0.45593999997E+02  0.45594000000E+02  0.51100000000E-03 0.  1.
    9900012    2    1    2    0    0 -0.30436618359E+02  0.94905258315E+01 -0.50108241846E+00  0.59302126933E+02  0.50000333574E+02 0.  0.
         12    1    1    2    0    0  0.30436618359E+02 -0.94905258315E+01  0.50108241846E+00  0.31885873067E+02  0.00000000000E+00 0. -1.
         11    1    3    3    0    0 -0.33109039365E+01  0.10626322435E+01  0.83266214425E+01  0.90235191067E+01  0.51100000000E-03 0. -1.
        -11    1    3    3    0    0 -0.20182934918E+02  0.24481056997E+02 -0.31222393789E+01  0.31881364347E+02  0.51100000000E-03 0.  1.
        -12    1    3    3    0    0 -0.69427795041E+01 -0.16053163409E+02 -0.57054644821E+01  0.18397243479E+02  0.00000000000E+00 0.  1.
</event>
<event>
 7    1  0.4335055E-013  0.5930194E+02  0.7816164E-02  0.1266605E+00
        -11   -1    0    0    0    0  0.00000000000E+00  0.00000000000E+00  0.45593999997E+02  0.45594000000E+02  0.51100000000E-03 0. -1.
         11   -1    0    0    0    0 -0.00000000000E+00 -0.00000000000E+00 -0.45593999997E+02  0.45594000000E+02  0.51100000000E-03 0.  1.
    9900012    2    1    2    0    0  0.23966220484E+02  0.21330924015E+01 -0.20923461570E+02  0.59301936405E+02  0.49999986098E+02 0.  0.
         12    1    1    2    0    0 -0.23966220484E+02 -0.21330924015E+01  0.20923461570E+02  0.31886063595E+02  0.00000000000E+00 0. -1.
         11    1    3    3    0    0  0.10794542827E+02  0.36927378165E+01  0.33669268119E+01  0.11895152956E+02  0.51100000000E-03 0. -1.
        -11    1    3    3    0    0  0.22950602335E+02 -0.17135171710E+00 -0.28566155680E+02  0.36644027611E+02  0.51100000000E-03 0.  1.
         12    1    3    3    0    0 -0.97789246779E+01 -0.13882936979E+01  0.42757672976E+01  0.10762755838E+02  0.00000000000E+00 0. -1.
</event>
<event>
 7    1  0.3449603E-013  0.5930196E+02  0.7816164E-02  0.1266605E+00
        -11   -1    0    0    0    0  0.00000000000E+00  0.00000000000E+00  0.45593999997E+02  0.45594000000E+02  0.51100000000E-03 0. -1.
         11   -1    0    0    0    0 -0.00000000000E+00 -0.00000000000E+00 -0.45593999997E+02  0.45594000000E+02  0.51100000000E-03 0.  1.
    9900012    2    1    2    0    0 -0.30464705677E+02 -0.76926865064E+01  0.54262311435E+01  0.59301957566E+02  0.50000024691E+02 0.  0.
         12    1    1    2    0    0  0.30464705677E+02  0.76926865064E+01 -0.54262311435E+01  0.31886042434E+02  0.00000000000E+00 0. -1.
         11    1    3    3    0    0  0.13548683740E+01  0.33624018084E+01  0.20589684358E+01  0.41690245277E+01  0.51100000000E-03 0. -1.
        -11    1    3    3    0    0 -0.35824231917E+02 -0.11418031610E+01 -0.10753834004E+02  0.37420906630E+02  0.51100000000E-03 0.  1.
         12    1    3    3    0    0  0.40046578667E+01 -0.99132851537E+01  0.14121096712E+02  0.17712026409E+02  0.00000000000E+00 0. -1.
</event>
<event>
 7    1  0.3449603E-013  0.5930195E+02  0.7816164E-02  0.1266605E+00
        -11   -1    0    0    0    0  0.00000000000E+00  0.00000000000E+00  0.45593999997E+02  0.45594000000E+02  0.51100000000E-03 0.  1.
         11   -1    0    0    0    0 -0.00000000000E+00 -0.00000000000E+00 -0.45593999997E+02  0.45594000000E+02  0.51100000000E-03 0. -1.
    9900012    2    1    2    0    0 -0.15690577394E+02  0.27115832265E+02 -0.59378318547E+01  0.59301946222E+02  0.50000004002E+02 0.  0.
         12    1    1    2    0    0  0.15690577394E+02 -0.27115832265E+02  0.59378318547E+01  0.31886053778E+02  0.00000000000E+00 0. -1.
         11    1    3    3    0    0 -0.11839948155E+02  0.29933123126E+01 -0.90703875743E+01  0.15212370687E+02  0.51100000000E-03 0. -1.
        -11    1    3    3    0    0 -0.12953818028E+02  0.29867294482E+02 -0.97019850906E+00  0.32569893561E+02  0.51100000000E-03 0.  1.
         12    1    3    3    0    0  0.91031887892E+01 -0.57447745288E+01  0.41027542286E+01  0.11519681974E+02  0.00000000000E+00 0. -1.
</event>
<event>
 7    1  0.3449603E-013  0.5930192E+02  0.7816164E-02  0.1266605E+00
        -11   -1    0    0    0    0  0.00000000000E+00  0.00000000000E+00  0.45593999997E+02  0.45594000000E+02  0.51100000000E-03 0.  1.
         11   -1    0    0    0    0 -0.00000000000E+00 -0.00000000000E+00 -0.45593999997E+02  0.45594000000E+02  0.51100000000E-03 0. -1.
    9900012    2    1    2    0    0  0.15758792935E+02 -0.25229240755E+02  0.11483365198E+02  0.59301924354E+02  0.49999964119E+02 0.  0.
         12    1    1    2    0    0 -0.15758792935E+02  0.25229240755E+02 -0.11483365198E+02  0.31886075646E+02  0.00000000000E+00 0. -1.
         11    1    3    3    0    0  0.71221706743E+01 -0.98555451902E+01  0.18629071903E+02  0.22246334672E+02  0.51100000000E-03 0. -1.
        -11    1    3    3    0    0 -0.68936503980E+01 -0.14985684179E+02  0.51094999988E+01  0.17268472330E+02  0.51100000000E-03 0.  1.
         12    1    3    3    0    0  0.15530272659E+02 -0.38801138609E+00 -0.12255206704E+02  0.19787117351E+02  0.00000000000E+00 0. -1.
</event>
<event>
 7    1  0.3449603E-013  0.5930194E+02  0.7816164E-02  0.1266605E+00
        -11   -1    0    0    0    0  0.00000000000E+00  0.00000000000E+00  0.45593999997E+02  0.45594000000E+02  0.51100000000E-03 0. -1.
         11   -1    0    0    0    0 -0.00000000000E+00 -0.00000000000E+00 -0.45593999997E+02  0.45594000000E+02  0.51100000000E-03 0.  1.
    9900012    2    1    2    0    0  0.14593153675E+02  0.27403276308E+02 -0.72678309557E+01  0.59301936377E+02  0.49999986046E+02 0.  0.
         12    1    1    2    0    0 -0.14593153675E+02 -0.27403276308E+02  0.72678309557E+01  0.31886063623E+02  0.00000000000E+00 0. -1.
         11    1    3    3    0    0  0.30579406661E+01 -0.18498157239E+01 -0.95475873514E+00  0.36992409807E+01  0.51100000000E-03 0. -1.
        -11    1    3    3    0    0  0.18164333691E+02  0.75031320527E+01 -0.20820525925E+02  0.28631002586E+02  0.51100000000E-03 0.  1.
         12    1    3    3    0    0 -0.66291206811E+01  0.21749959979E+02  0.14507453704E+02  0.26971692810E+02  0.00000000000E+00 0. -1.
</event>
<event>
 7    1  0.3449603E-013  0.5930196E+02  0.7816164E-02  0.1266605E+00
        -11   -1    0    0    0    0  0.00000000000E+00  0.00000000000E+00  0.45593999997E+02  0.45594000000E+02  0.51100000000E-03 0. -1.
         11   -1    0    0    0    0 -0.00000000000E+00 -0.00000000000E+00 -0.45593999997E+02  0.45594000000E+02  0.51100000000E-03 0.  1.
    9900012    2    1    2    0    0  0.20184008073E+02 -0.18182446997E+02  0.16695024034E+02  0.59301962489E+02  0.50000033669E+02 0.  0.
         12    1    1    2    0    0 -0.20184008073E+02  0.18182446997E+02 -0.16695024034E+02  0.31886037511E+02  0.00000000000E+00 0. -1.
         11    1    3    3    0    0 -0.37310363008E+01 -0.12792639205E+02  0.99560779434E+00  0.13362764866E+02  0.51100000000E-03 0. -1.
        -11    1    3    3    0    0 -0.48536983779E+01 -0.10144493492E+02 -0.25618306907E+01  0.11533954781E+02  0.51100000000E-03 0.  1.
        -12    1    3    3    0    0  0.28768742751E+02  0.47546857004E+01  0.18261246930E+02  0.34405242842E+02  0.00000000000E+00 0.  1.
</event>
<event>
 7    1  0.3449603E-013  0.5930195E+02  0.7816164E-02  0.1266605E+00
        -11   -1    0    0    0    0  0.00000000000E+00  0.00000000000E+00  0.45593999997E+02  0.45594000000E+02  0.51100000000E-03 0.  1.
         11   -1    0    0    0    0 -0.00000000000E+00 -0.00000000000E+00 -0.45593999997E+02  0.45594000000E+02  0.51100000000E-03 0. -1.
    9900012    2    1    2    0    0  0.44801387566E+01 -0.72228691373E+01  0.30732369335E+02  0.59301952788E+02  0.50000015977E+02 0.  0.
         12    1    1    2    0    0 -0.44801387566E+01  0.72228691373E+01 -0.30732369335E+02  0.31886047212E+02  0.00000000000E+00 0. -1.
         11    1    3    3    0    0  0.20761209495E+01 -0.25572503763E+01 -0.42371738638E+01  0.53668845989E+01  0.51100000000E-03 0. -1.
        -11    1    3    3    0    0  0.20409027853E+02  0.36128916050E+01  0.22140347266E+02  0.30327815302E+02  0.51100000000E-03 0.  1.
        -12    1    3    3    0    0 -0.18005010046E+02 -0.82785103659E+01  0.12829195932E+02  0.23607252888E+02  0.00000000000E+00 0.  1.
</event>
<event>
 7    1  0.3449603E-013  0.5930225E+02  0.7816164E-02  0.1266604E+00
        -11   -1    0    0    0    0  0.00000000000E+00  0.00000000000E+00  0.45593999997E+02  0.45594000000E+02  0.51100000000E-03 0.  1.
         11   -1    0    0    0    0 -0.00000000000E+00 -0.00000000000E+00 -0.45593999997E+02  0.45594000000E+02  0.51100000000E-03 0. -1.
    9900012    2    1    2    0    0  0.17628949255E+02 -0.14367374875E+01  0.26530307628E+02  0.59302246296E+02  0.50000551262E+02 0.  0.
         12    1    1    2    0    0 -0.17628949255E+02  0.14367374875E+01 -0.26530307628E+02  0.31885753704E+02  0.00000000000E+00 0. -1.
         11    1    3    3    0    0 -0.40198760237E+00 -0.18168768554E+01 -0.87767542179E+00  0.20574134118E+01  0.51100000000E-03 0. -1.
        -11    1    3    3    0    0 -0.67577185171E+01  0.14520202307E+02 -0.21488768703E+01  0.16159229767E+02  0.51100000000E-03 0.  1.
         12    1    3    3    0    0  0.24788655375E+02 -0.14140062939E+02  0.29556859920E+02  0.41085603117E+02  0.00000000000E+00 0. -1.
</event>
<event>
 7    1  0.3449603E-013  0.5930194E+02  0.7816164E-02  0.1266605E+00
        -11   -1    0    0    0    0  0.00000000000E+00  0.00000000000E+00  0.45593999997E+02  0.45594000000E+02  0.51100000000E-03 0.  1.
         11   -1    0    0    0    0 -0.00000000000E+00 -0.00000000000E+00 -0.45593999997E+02  0.45594000000E+02  0.51100000000E-03 0. -1.
    9900012    2    1    2    0    0  0.26921522350E+02  0.10425661456E+02  0.13537279540E+02  0.59301941608E+02  0.49999995587E+02 0.  0.
         12    1    1    2    0    0 -0.26921522350E+02 -0.10425661456E+02 -0.13537279540E+02  0.31886058392E+02  0.00000000000E+00 0. -1.
         11    1    3    3    0    0 -0.25905277140E+01  0.90160732385E+01  0.20364750668E+01  0.95993563033E+01  0.51100000000E-03 0. -1.
        -11    1    3    3    0    0 -0.52383176920E+01  0.92607174974E+01  0.90916992634E+01  0.13994993982E+02  0.51100000000E-03 0.  1.
        -12    1    3    3    0    0  0.34750367756E+02 -0.78511292796E+01  0.24091052095E+01  0.35707591322E+02  0.00000000000E+00 0.  1.
</event>
<event>
 7    1  0.3449603E-013  0.5930193E+02  0.7816164E-02  0.1266605E+00
        -11   -1    0    0    0    0  0.00000000000E+00  0.00000000000E+00  0.45593999997E+02  0.45594000000E+02  0.51100000000E-03 0.  1.
         11   -1    0    0    0    0 -0.00000000000E+00 -0.00000000000E+00 -0.45593999997E+02  0.45594000000E+02  0.51100000000E-03 0. -1.
    9900012    2    1    2    0    0 -0.29379300506E+02  0.12362273291E+02 -0.86743081181E+00  0.59301928819E+02  0.49999972263E+02 0.  0.
         12    1    1    2    0    0  0.29379300506E+02 -0.12362273291E+02  0.86743081181E+00  0.31886071181E+02  0.00000000000E+00 0. -1.
         11    1    3    3    0    0 -0.13662696357E+02  0.47463936327E+01 -0.16470181152E+02  0.21919497980E+02  0.51100000000E-03 0. -1.
        -11    1    3    3    0    0 -0.35608940759E+01 -0.11045383819E+02  0.66796591046E+01  0.13390232124E+02  0.51100000000E-03 0.  1.
         12    1    3    3    0    0 -0.12155710074E+02  0.18661263478E+02  0.89230912353E+01  0.23992198715E+02  0.00000000000E+00 0. -1.
</event>
<event>
 7    1  0.3449603E-013  0.5930190E+02  0.7816164E-02  0.1266605E+00
        -11   -1    0    0    0    0  0.00000000000E+00  0.00000000000E+00  0.45593999997E+02  0.45594000000E+02  0.51100000000E-03 0. -1.
         11   -1    0    0    0    0 -0.00000000000E+00 -0.00000000000E+00 -0.45593999997E+02  0.45594000000E+02  0.51100000000E-03 0.  1.
    9900012    2    1    2    0    0  0.56563154594E+01  0.26311063690E+02  0.17101378485E+02  0.59301903921E+02  0.49999926855E+02 0.  0.
         12    1    1    2    0    0 -0.56563154594E+01 -0.26311063690E+02 -0.17101378485E+02  0.31886096079E+02  0.00000000000E+00 0. -1.
         11    1    3    3    0    0 -0.34540934039E+01  0.10974285739E+02 -0.39250588482E+01  0.12156142313E+02  0.51100000000E-03 0. -1.
        -11    1    3    3    0    0  0.90027535763E+01  0.26459039998E+02  0.62295201737E+01  0.28634547166E+02  0.51100000000E-03 0.  1.
         12    1    3    3    0    0  0.10765528705E+00 -0.11122262046E+02  0.14796917159E+02  0.18511214442E+02  0.00000000000E+00 0. -1.
</event>
<event>
 7    1  0.3449603E-013  0.5930200E+02  0.7816164E-02  0.1266605E+00
        -11   -1    0    0    0    0  0.00000000000E+00  0.00000000000E+00  0.45593999997E+02  0.45594000000E+02  0.51100000000E-03 0. -1.
         11   -1    0    0    0    0 -0.00000000000E+00 -0.00000000000E+00 -0.45593999997E+02  0.45594000000E+02  0.51100000000E-03 0.  1.
    9900012    2    1    2    0    0 -0.27493527426E+02  0.13660120329E+02 -0.86153307492E+01  0.59302002106E+02  0.50000105921E+02 0.  0.
         12    1    1    2    0    0  0.27493527426E+02 -0.13660120329E+02  0.86153307492E+01  0.31885997894E+02  0.00000000000E+00 0. -1.
         11    1    3    3    0    0 -0.23650245614E+02 -0.32234939872E+01 -0.13737771259E+01  0.23908414730E+02  0.51100000000E-03 0. -1.
        -11    1    3    3    0    0 -0.16054659581E+02  0.39413040104E+01 -0.10932708497E+01  0.16567474550E+02  0.51100000000E-03 0.  1.
         12    1    3    3    0    0  0.12211377768E+02  0.12942310306E+02 -0.61482827736E+01  0.18826112826E+02  0.00000000000E+00 0. -1.
</event>
<event>
 7    1  0.3449603E-013  0.5930192E+02  0.7816164E-02  0.1266605E+00
        -11   -1    0    0    0    0  0.00000000000E+00  0.00000000000E+00  0.45593999997E+02  0.45594000000E+02  0.51100000000E-03 0.  1.
         11   -1    0    0    0    0 -0.00000000000E+00 -0.00000000000E+00 -0.45593999997E+02  0.45594000000E+02  0.51100000000E-03 0. -1.
    9900012    2    1    2    0    0 -0.14686700532E+02 -0.21005415391E+02  0.18968275070E+02  0.59301919849E+02  0.49999955905E+02 0.  0.
         12    1    1    2    0    0  0.14686700532E+02  0.21005415391E+02 -0.18968275070E+02  0.31886080151E+02  0.00000000000E+00 0. -1.
         11    1    3    3    0    0 -0.84812009974E+01  0.89181307270E+01  0.85096551965E+01  0.14962555191E+02  0.51100000000E-03 0. -1.
        -11    1    3    3    0    0 -0.63208925655E+01  0.39124763258E+01  0.71960431534E+01  0.10346216272E+02  0.51100000000E-03 0.  1.
        -12    1    3    3    0    0  0.11539303109E+00 -0.33836022444E+02  0.32625767197E+01  0.33993148386E+02  0.00000000000E+00 0.  1.
</event>
<event>
 7    1  0.3449603E-013  0.5930191E+02  0.7816164E-02  0.1266605E+00
        -11   -1    0    0    0    0  0.00000000000E+00  0.00000000000E+00  0.45593999997E+02  0.45594000000E+02  0.51100000000E-03 0.  1.
         11   -1    0    0    0    0 -0.00000000000E+00 -0.00000000000E+00 -0.45593999997E+02  0.45594000000E+02  0.51100000000E-03 0. -1.
    9900012    2    1    2    0    0  0.15148987305E+02  0.25887185177E+01  0.27937952623E+02  0.59301914058E+02  0.49999945342E+02 0.  0.
         12    1    1    2    0    0 -0.15148987305E+02 -0.25887185177E+01 -0.27937952623E+02  0.31886085942E+02  0.00000000000E+00 0. -1.
         11    1    3    3    0    0 -0.18639737216E+01 -0.92764476098E+01  0.50792001405E+01  0.10738954913E+02  0.51100000000E-03 0.  1.
        -11    1    3    3    0    0 -0.50195121641E+01  0.19008985582E+02  0.96785908623E+01  0.21913743554E+02  0.51100000000E-03 0. -1.
         12    1    3    3    0    0  0.22032473190E+02 -0.71438194541E+01  0.13180161621E+02  0.26649215591E+02  0.00000000000E+00 0. -1.
</event>
<event>
 7    1  0.3449603E-013  0.5930168E+02  0.7816164E-02  0.1266606E+00
        -11   -1    0    0    0    0  0.00000000000E+00  0.00000000000E+00  0.45593999997E+02  0.45594000000E+02  0.51100000000E-03 0.  1.
         11   -1    0    0    0    0 -0.00000000000E+00 -0.00000000000E+00 -0.45593999997E+02  0.45594000000E+02  0.51100000000E-03 0. -1.
    9900012    2    1    2    0    0 -0.34655519681E+00  0.27914694431E+02  0.15407363565E+02  0.59301684476E+02  0.49999526637E+02 0.  0.
         12    1    1    2    0    0  0.34655519681E+00 -0.27914694431E+02 -0.15407363565E+02  0.31886315524E+02  0.00000000000E+00 0. -1.
         11    1    3    3    0    0 -0.13368330444E+02  0.37056091047E+01 -0.64766182207E+01  0.15309813243E+02  0.51100000000E-03 0. -1.
        -11    1    3    3    0    0  0.27113593766E+01  0.15871207264E+02 -0.24433590221E+01  0.16285474917E+02  0.51100000000E-03 0.  1.
        -12    1    3    3    0    0  0.10310415871E+02  0.83378780621E+01  0.24327340808E+02  0.27706396316E+02  0.00000000000E+00 0.  1.
</event>
<event>
 7    1  0.3449603E-013  0.5930192E+02  0.7816164E-02  0.1266605E+00
        -11   -1    0    0    0    0  0.00000000000E+00  0.00000000000E+00  0.45593999997E+02  0.45594000000E+02  0.51100000000E-03 0.  1.
         11   -1    0    0    0    0 -0.00000000000E+00 -0.00000000000E+00 -0.45593999997E+02  0.45594000000E+02  0.51100000000E-03 0. -1.
    9900012    2    1    2    0    0  0.99274045830E+01  0.24464688612E+02  0.17878696825E+02  0.59301919168E+02  0.49999954663E+02 0.  0.
         12    1    1    2    0    0 -0.99274045830E+01 -0.24464688612E+02 -0.17878696825E+02  0.31886080832E+02  0.00000000000E+00 0. -1.
         11    1    3    3    0    0 -0.29123369501E+01 -0.31793735405E+01 -0.73371907674E+01  0.85102580008E+01  0.51100000000E-03 0. -1.
        -11    1    3    3    0    0 -0.93574555136E+01  0.94609357871E+01  0.15656107313E+02  0.20547140339E+02  0.51100000000E-03 0.  1.
        -12    1    3    3    0    0  0.22197197047E+02  0.18183126366E+02  0.95597802791E+01  0.30244520828E+02  0.00000000000E+00 0.  1.
</event>
<event>
 7    1  0.5211899E-013  0.5930195E+02  0.7816164E-02  0.1266605E+00
        -11   -1    0    0    0    0  0.00000000000E+00  0.00000000000E+00  0.45593999997E+02  0.45594000000E+02  0.51100000000E-03 0.  1.
         11   -1    0    0    0    0 -0.00000000000E+00 -0.00000000000E+00 -0.45593999997E+02  0.45594000000E+02  0.51100000000E-03 0. -1.
    9900012    2    1    2    0    0  0.29215884817E+02 -0.10455709823E+02 -0.73369102291E+01  0.59301952185E+02  0.50000014878E+02 0.  0.
         12    1    1    2    0    0 -0.29215884817E+02  0.10455709823E+02  0.73369102291E+01  0.31886047815E+02  0.00000000000E+00 0. -1.
         11    1    3    3    0    0  0.50059933858E+01 -0.11819329340E+02  0.89484154947E+01  0.15647065410E+02  0.51100000000E-03 0. -1.
        -11    1    3    3    0    0  0.30802488363E+01 -0.99781966603E+01 -0.16669729454E+02  0.19670592819E+02  0.51100000000E-03 0.  1.
         12    1    3    3    0    0  0.21129642595E+02  0.11341816177E+02  0.38440373067E+00  0.23984293957E+02  0.00000000000E+00 0. -1.
</event>
<event>
 7    1  0.3449603E-013  0.5930193E+02  0.7816164E-02  0.1266605E+00
        -11   -1    0    0    0    0  0.00000000000E+00  0.00000000000E+00  0.45593999997E+02  0.45594000000E+02  0.51100000000E-03 0.  1.
         11   -1    0    0    0    0 -0.00000000000E+00 -0.00000000000E+00 -0.45593999997E+02  0.45594000000E+02  0.51100000000E-03 0. -1.
    9900012    2    1    2    0    0  0.24982079160E+02  0.11752205745E+02  0.15953150277E+02  0.59301927448E+02  0.49999969763E+02 0.  0.
         12    1    1    2    0    0 -0.24982079160E+02 -0.11752205745E+02 -0.15953150277E+02  0.31886072552E+02  0.00000000000E+00 0. -1.
         11    1    3    3    0    0  0.16511869431E+02  0.66088905136E+00 -0.82088431751E+01  0.18451658814E+02  0.51100000000E-03 0. -1.
        -11    1    3    3    0    0  0.18347482023E+02  0.22477789996E+01  0.19313432557E+02  0.26733710637E+02  0.51100000000E-03 0.  1.
         12    1    3    3    0    0 -0.98772722952E+01  0.88435376945E+01  0.48485608951E+01  0.14116557998E+02  0.00000000000E+00 0. -1.
</event>
<event>
 7    1  0.3449603E-013  0.5930196E+02  0.7816164E-02  0.1266605E+00
        -11   -1    0    0    0    0  0.00000000000E+00  0.00000000000E+00  0.45593999997E+02  0.45594000000E+02  0.51100000000E-03 0. -1.
         11   -1    0    0    0    0 -0.00000000000E+00 -0.00000000000E+00 -0.45593999997E+02  0.45594000000E+02  0.51100000000E-03 0.  1.
    9900012    2    1    2    0    0 -0.16650974999E+02 -0.23882671706E+02 -0.13003184766E+02  0.59301956184E+02  0.50000022169E+02 0.  0.
         12    1    1    2    0    0  0.16650974999E+02  0.23882671706E+02  0.13003184766E+02  0.31886043816E+02  0.00000000000E+00 0. -1.
         11    1    3    3    0    0  0.97229551762E+01 -0.25702272226E+02 -0.11573769025E+02  0.29817692477E+02  0.51100000000E-03 0. -1.
        -11    1    3    3    0    0 -0.15366664226E+01 -0.34098102676E+01 -0.16827316474E+01  0.41011871225E+01  0.51100000000E-03 0.  1.
        -12    1    3    3    0    0 -0.24837263753E+02  0.52294107884E+01  0.25331590709E+00  0.25383076584E+02  0.00000000000E+00 0.  1.
</event>
<event>
 7    1  0.3449603E-013  0.5930194E+02  0.7816164E-02  0.1266605E+00
        -11   -1    0    0    0    0  0.00000000000E+00  0.00000000000E+00  0.45593999997E+02  0.45594000000E+02  0.51100000000E-03 0.  1.
         11   -1    0    0    0    0 -0.00000000000E+00 -0.00000000000E+00 -0.45593999997E+02  0.45594000000E+02  0.51100000000E-03 0. -1.
    9900012    2    1    2    0    0  0.22660939857E+02 -0.22026453520E+00  0.22431103386E+02  0.59301935477E+02  0.49999984405E+02 0.  0.
         12    1    1    2    0    0 -0.22660939857E+02  0.22026453520E+00 -0.22431103386E+02  0.31886064523E+02  0.00000000000E+00 0. -1.
         11    1    3    3    0    0  0.19844323253E+02  0.10848184640E+02  0.41357401905E+01  0.22990968282E+02  0.51100000000E-03 0. -1.
        -11    1    3    3    0    0 -0.99574652137E+01 -0.25226755436E+01  0.18249559429E+02  0.20941858203E+02  0.51100000000E-03 0.  1.
         12    1    3    3    0    0  0.12774081817E+02 -0.85457736311E+01  0.45803766728E-01  0.15369108992E+02  0.00000000000E+00 0. -1.
</event>
<event>
 7    1  0.3449603E-013  0.5930194E+02  0.7816164E-02  0.1266605E+00
        -11   -1    0    0    0    0  0.00000000000E+00  0.00000000000E+00  0.45593999997E+02  0.45594000000E+02  0.51100000000E-03 0. -1.
         11   -1    0    0    0    0 -0.00000000000E+00 -0.00000000000E+00 -0.45593999997E+02  0.45594000000E+02  0.51100000000E-03 0.  1.
    9900012    2    1    2    0    0 -0.23989544399E+02  0.72921808835E+01 -0.19698893289E+02  0.59301944438E+02  0.50000000748E+02 0.  0.
         12    1    1    2    0    0  0.23989544399E+02 -0.72921808835E+01  0.19698893289E+02  0.31886055562E+02  0.00000000000E+00 0. -1.
         11    1    3    3    0    0  0.10727374576E+02  0.43661788822E+01 -0.12036230396E+02  0.16703620138E+02  0.51100000000E-03 0. -1.
        -11    1    3    3    0    0 -0.98343917698E+00  0.32809862038E-01 -0.86703532399E+01  0.87260102376E+01  0.51100000000E-03 0.  1.
        -12    1    3    3    0    0 -0.33733479798E+02  0.28931921392E+01  0.10076903471E+01  0.33872314062E+02  0.00000000000E+00 0.  1.
</event>
<event>
 7    1  0.3449603E-013  0.5930192E+02  0.7816164E-02  0.1266605E+00
        -11   -1    0    0    0    0  0.00000000000E+00  0.00000000000E+00  0.45593999997E+02  0.45594000000E+02  0.51100000000E-03 0.  1.
         11   -1    0    0    0    0 -0.00000000000E+00 -0.00000000000E+00 -0.45593999997E+02  0.45594000000E+02  0.51100000000E-03 0. -1.
    9900012    2    1    2    0    0  0.89209873125E+01  0.79018126081E+00  0.30602513447E+02  0.59301917922E+02  0.49999952389E+02 0.  0.
         12    1    1    2    0    0 -0.89209873125E+01 -0.79018126081E+00 -0.30602513447E+02  0.31886082078E+02  0.00000000000E+00 0. -1.
         11    1    3    3    0    0 -0.60130324895E+01 -0.27506599953E+01  0.49056709719E+01  0.82333649302E+01  0.51100000000E-03 0. -1.
        -11    1    3    3    0    0  0.17651502997E+02 -0.90093405985E+01  0.31309579561E+02  0.37054467324E+02  0.51100000000E-03 0.  1.
         12    1    3    3    0    0 -0.27174831948E+01  0.12550181855E+02 -0.56127370867E+01  0.14014085668E+02  0.00000000000E+00 0. -1.
</event>
<event>
 7    1  0.3449603E-013  0.5930193E+02  0.7816164E-02  0.1266605E+00
        -11   -1    0    0    0    0  0.00000000000E+00  0.00000000000E+00  0.45593999997E+02  0.45594000000E+02  0.51100000000E-03 0.  1.
         11   -1    0    0    0    0 -0.00000000000E+00 -0.00000000000E+00 -0.45593999997E+02  0.45594000000E+02  0.51100000000E-03 0. -1.
    9900012    2    1    2    0    0 -0.15793112920E+02  0.14043840689E+02  0.23876127474E+02  0.59301931879E+02  0.49999977844E+02 0.  0.
         12    1    1    2    0    0  0.15793112920E+02 -0.14043840689E+02 -0.23876127474E+02  0.31886068121E+02  0.00000000000E+00 0. -1.
         11    1    3    3    0    0 -0.16070573285E+01  0.10884244923E+02 -0.53146328041E+01  0.12218622791E+02  0.51100000000E-03 0. -1.
        -11    1    3    3    0    0 -0.21450364216E+02 -0.13505151388E+00  0.55844567048E+01  0.22165796193E+02  0.51100000000E-03 0.  1.
        -12    1    3    3    0    0  0.72643086238E+01  0.32946472799E+01  0.23606303574E+02  0.24917512896E+02  0.00000000000E+00 0.  1.
</event>
<event>
 7    1  0.3449603E-013  0.5930193E+02  0.7816164E-02  0.1266605E+00
        -11   -1    0    0    0    0  0.00000000000E+00  0.00000000000E+00  0.45593999997E+02  0.45594000000E+02  0.51100000000E-03 0.  1.
         11   -1    0    0    0    0 -0.00000000000E+00 -0.00000000000E+00 -0.45593999997E+02  0.45594000000E+02  0.51100000000E-03 0. -1.
    9900012    2    1    2    0    0  0.24159730865E+02  0.86878983336E+01  0.18908969663E+02  0.59301932406E+02  0.49999978804E+02 0.  0.
         12    1    1    2    0    0 -0.24159730865E+02 -0.86878983336E+01 -0.18908969663E+02  0.31886067594E+02  0.00000000000E+00 0. -1.
         11    1    3    3    0    0 -0.49974458872E+01  0.53017686925E+01  0.13723035227E+02  0.15537210585E+02  0.51100000000E-03 0. -1.
        -11    1    3    3    0    0  0.31572599396E+02 -0.22872811904E+01  0.12644519117E+02  0.34087307782E+02  0.51100000000E-03 0.  1.
         12    1    3    3    0    0 -0.24154226436E+01  0.56734108315E+01 -0.74585846818E+01  0.96774140382E+01  0.00000000000E+00 0. -1.
</event>
<event>
 7    1  0.3449603E-013  0.5930195E+02  0.7816164E-02  0.1266605E+00
        -11   -1    0    0    0    0  0.00000000000E+00  0.00000000000E+00  0.45593999997E+02  0.45594000000E+02  0.51100000000E-03 0.  1.
         11   -1    0    0    0    0 -0.00000000000E+00 -0.00000000000E+00 -0.45593999997E+02  0.45594000000E+02  0.51100000000E-03 0. -1.
    9900012    2    1    2    0    0 -0.17483487684E+01 -0.25552783388E+02  0.18992601243E+02  0.59301947183E+02  0.50000005754E+02 0.  0.
         12    1    1    2    0    0  0.17483487684E+01  0.25552783388E+02 -0.18992601243E+02  0.31886052817E+02  0.00000000000E+00 0. -1.
         11    1    3    3    0    0 -0.64238690752E+01 -0.43314805163E+01 -0.75475048906E+01  0.10816313961E+02  0.51100000000E-03 0. -1.
        -11    1    3    3    0    0 -0.10829766669E+02 -0.30703367348E+01 -0.18341578982E+01  0.11405040519E+02  0.51100000000E-03 0.  1.
        -12    1    3    3    0    0  0.15505286976E+02 -0.18150966137E+02  0.28374264032E+02  0.37080592704E+02  0.00000000000E+00 0.  1.
</event>
<event>
 7    1  0.3449603E-013  0.5930197E+02  0.7816164E-02  0.1266605E+00
        -11   -1    0    0    0    0  0.00000000000E+00  0.00000000000E+00  0.45593999997E+02  0.45594000000E+02  0.51100000000E-03 0. -1.
         11   -1    0    0    0    0 -0.00000000000E+00 -0.00000000000E+00 -0.45593999997E+02  0.45594000000E+02  0.51100000000E-03 0.  1.
    9900012    2    1    2    0    0  0.57167837738E+01  0.30930703946E+02  0.52276903273E+01  0.59301971563E+02  0.50000050218E+02 0.  0.
         12    1    1    2    0    0 -0.57167837738E+01 -0.30930703946E+02 -0.52276903273E+01  0.31886028437E+02  0.00000000000E+00 0. -1.
         11    1    3    3    0    0  0.23079836497E+01 -0.28596129799E+01 -0.13258167048E+01  0.39066565139E+01  0.51100000000E-03 0. -1.
        -11    1    3    3    0    0 -0.15783164964E+02 -0.39809049535E+00  0.13753650473E+01  0.15847977840E+02  0.51100000000E-03 0.  1.
         12    1    3    3    0    0  0.19191965088E+02  0.34188407421E+02  0.51781419848E+01  0.39547337210E+02  0.00000000000E+00 0. -1.
</event>
<event>
 7    1  0.3449603E-013  0.5930195E+02  0.7816164E-02  0.1266605E+00
        -11   -1    0    0    0    0  0.00000000000E+00  0.00000000000E+00  0.45593999997E+02  0.45594000000E+02  0.51100000000E-03 0.  1.
         11   -1    0    0    0    0 -0.00000000000E+00 -0.00000000000E+00 -0.45593999997E+02  0.45594000000E+02  0.51100000000E-03 0. -1.
    9900012    2    1    2    0    0 -0.72235309405E+01 -0.18771469276E+01  0.31000276405E+02  0.59301949492E+02  0.50000009965E+02 0.  0.
         12    1    1    2    0    0  0.72235309405E+01  0.18771469276E+01 -0.31000276405E+02  0.31886050508E+02  0.00000000000E+00 0. -1.
         11    1    3    3    0    0  0.43798667681E+01 -0.10694983278E+01 -0.96728592553E+01  0.10671985102E+02  0.51100000000E-03 0. -1.
        -11    1    3    3    0    0 -0.14312211409E+02  0.75646420089E+01  0.17485057276E+02  0.23828353538E+02  0.51100000000E-03 0.  1.
        -12    1    3    3    0    0  0.27088137003E+01 -0.83722906087E+01  0.23188078384E+02  0.24801610852E+02  0.00000000000E+00 0.  1.
</event>
<event>
 7    1  0.3449603E-013  0.5930194E+02  0.7816164E-02  0.1266605E+00
        -11   -1    0    0    0    0  0.00000000000E+00  0.00000000000E+00  0.45593999997E+02  0.45594000000E+02  0.51100000000E-03 0.  1.
         11   -1    0    0    0    0 -0.00000000000E+00 -0.00000000000E+00 -0.45593999997E+02  0.45594000000E+02  0.51100000000E-03 0. -1.
    9900012    2    1    2    0    0 -0.25277815475E+02 -0.16596368636E+02 -0.10115014134E+02  0.59301938500E+02  0.49999989918E+02 0.  0.
         12    1    1    2    0    0  0.25277815475E+02  0.16596368636E+02  0.10115014134E+02  0.31886061500E+02  0.00000000000E+00 0. -1.
         11    1    3    3    0    0 -0.11320453356E+02  0.12361181409E+02 -0.94005672233E+01  0.19217755706E+02  0.51100000000E-03 0. -1.
        -11    1    3    3    0    0  0.12373786549E+01  0.30091173347E+01 -0.32507201771E+01  0.45992472211E+01  0.51100000000E-03 0.  1.
        -12    1    3    3    0    0 -0.15194740774E+02 -0.31966667379E+02  0.25362732667E+01  0.35484935572E+02  0.00000000000E+00 0.  1.
</event>
<event>
 7    1  0.3449603E-013  0.5930195E+02  0.7816164E-02  0.1266605E+00
        -11   -1    0    0    0    0  0.00000000000E+00  0.00000000000E+00  0.45593999997E+02  0.45594000000E+02  0.51100000000E-03 0.  1.
         11   -1    0    0    0    0 -0.00000000000E+00 -0.00000000000E+00 -0.45593999997E+02  0.45594000000E+02  0.51100000000E-03 0. -1.
    9900012    2    1    2    0    0  0.30882138643E+02  0.11074224804E+01  0.78604805599E+01  0.59301952481E+02  0.50000015417E+02 0.  0.
         12    1    1    2    0    0 -0.30882138643E+02 -0.11074224804E+01 -0.78604805599E+01  0.31886047519E+02  0.00000000000E+00 0. -1.
         11    1    3    3    0    0  0.68072203242E+01 -0.22541972302E+01 -0.82096840852E+01  0.10900392962E+02  0.51100000000E-03 0. -1.
        -11    1    3    3    0    0 -0.33701051190E+01 -0.11178026915E+02 -0.28712410992E+01  0.12022891496E+02  0.51100000000E-03 0.  1.
        -12    1    3    3    0    0  0.27445023438E+02  0.14539646625E+02  0.18941405744E+02  0.36378668022E+02  0.00000000000E+00 0.  1.
</event>
<event>
 7    1  0.3449603E-013  0.5930195E+02  0.7816164E-02  0.1266605E+00
        -11   -1    0    0    0    0  0.00000000000E+00  0.00000000000E+00  0.45593999997E+02  0.45594000000E+02  0.51100000000E-03 0.  1.
         11   -1    0    0    0    0 -0.00000000000E+00 -0.00000000000E+00 -0.45593999997E+02  0.45594000000E+02  0.51100000000E-03 0. -1.
    9900012    2    1    2    0    0 -0.31903420017E+01 -0.27136502095E+02  0.16436302735E+02  0.59301951709E+02  0.50000014008E+02 0.  0.
         12    1    1    2    0    0  0.31903420017E+01  0.27136502095E+02 -0.16436302735E+02  0.31886048291E+02  0.00000000000E+00 0. -1.
         11    1    3    3    0    0 -0.13506242846E+01 -0.22388723493E+02  0.72573389526E+01  0.23574310055E+02  0.51100000000E-03 0. -1.
        -11    1    3    3    0    0  0.13146791579E+02 -0.28655364702E+01  0.14436243492E+02  0.19734602973E+02  0.51100000000E-03 0.  1.
         12    1    3    3    0    0 -0.14986509296E+02 -0.18822421312E+01 -0.52572797097E+01  0.15993038681E+02  0.00000000000E+00 0. -1.
</event>
<event>
 7    1  0.3449603E-013  0.5930196E+02  0.7816164E-02  0.1266605E+00
        -11   -1    0    0    0    0  0.00000000000E+00  0.00000000000E+00  0.45593999997E+02  0.45594000000E+02  0.51100000000E-03 0. -1.
         11   -1    0    0    0    0 -0.00000000000E+00 -0.00000000000E+00 -0.45593999997E+02  0.45594000000E+02  0.51100000000E-03 0.  1.
    9900012    2    1    2    0    0  0.22088398384E+02  0.73827708307E+01  0.21778817304E+02  0.59301960242E+02  0.50000029571E+02 0.  0.
         12    1    1    2    0    0 -0.22088398384E+02 -0.73827708307E+01 -0.21778817304E+02  0.31886039758E+02  0.00000000000E+00 0. -1.
         11    1    3    3    0    0  0.17555045174E+02 -0.42566596358E+01  0.75529791964E+00  0.18079525367E+02  0.51100000000E-03 0. -1.
        -11    1    3    3    0    0 -0.78511643414E+01 -0.11677140613E+01 -0.52220857263E+01  0.95012902934E+01  0.51100000000E-03 0.  1.
        -12    1    3    3    0    0  0.12384517552E+02  0.12807144528E+02  0.26245605110E+02  0.31721144581E+02  0.00000000000E+00 0.  1.
</event>
<event>
 7    1  0.3449603E-013  0.5930194E+02  0.7816164E-02  0.1266605E+00
        -11   -1    0    0    0    0  0.00000000000E+00  0.00000000000E+00  0.45593999997E+02  0.45594000000E+02  0.51100000000E-03 0.  1.
         11   -1    0    0    0    0 -0.00000000000E+00 -0.00000000000E+00 -0.45593999997E+02  0.45594000000E+02  0.51100000000E-03 0. -1.
    9900012    2    1    2    0    0 -0.65744469177E+01  0.13329247536E+02  0.28210433428E+02  0.59301941192E+02  0.49999994828E+02 0.  0.
         12    1    1    2    0    0  0.65744469177E+01 -0.13329247536E+02 -0.28210433428E+02  0.31886058808E+02  0.00000000000E+00 0. -1.
         11    1    3    3    0    0  0.89206281163E+01  0.88736000985E+01 -0.96698594251E+01  0.15868981261E+02  0.51100000000E-03 0. -1.
        -11    1    3    3    0    0 -0.30517382401E+01 -0.35263138234E+01  0.29893244113E+01  0.55393191065E+01  0.51100000000E-03 0.  1.
        -12    1    3    3    0    0 -0.12443336794E+02  0.79819612610E+01  0.34890968441E+02  0.37893640824E+02  0.00000000000E+00 0.  1.
</event>
<event>
 7    1  0.3449603E-013  0.5930194E+02  0.7816164E-02  0.1266605E+00
        -11   -1    0    0    0    0  0.00000000000E+00  0.00000000000E+00  0.45593999997E+02  0.45594000000E+02  0.51100000000E-03 0.  1.
         11   -1    0    0    0    0 -0.00000000000E+00 -0.00000000000E+00 -0.45593999997E+02  0.45594000000E+02  0.51100000000E-03 0. -1.
    9900012    2    1    2    0    0  0.24075825650E+02  0.13278369658E+02  0.16148070673E+02  0.59301942421E+02  0.49999997069E+02 0.  0.
         12    1    1    2    0    0 -0.24075825650E+02 -0.13278369658E+02 -0.16148070673E+02  0.31886057579E+02  0.00000000000E+00 0. -1.
         11    1    3    3    0    0 -0.62056530626E+01  0.48012903928E+01 -0.89365960979E+01  0.11892235679E+02  0.51100000000E-03 0. -1.
        -11    1    3    3    0    0  0.19511549744E+02 -0.30997272330E+01  0.26066753283E+01  0.19927459418E+02  0.51100000000E-03 0.  1.
        -12    1    3    3    0    0  0.10769928969E+02  0.11576806498E+02  0.22477991442E+02  0.27482247324E+02  0.00000000000E+00 0.  1.
</event>
<event>
 7    1  0.3449603E-013  0.5930194E+02  0.7816164E-02  0.1266605E+00
        -11   -1    0    0    0    0  0.00000000000E+00  0.00000000000E+00  0.45593999997E+02  0.45594000000E+02  0.51100000000E-03 0. -1.
         11   -1    0    0    0    0 -0.00000000000E+00 -0.00000000000E+00 -0.45593999997E+02  0.45594000000E+02  0.51100000000E-03 0.  1.
    9900012    2    1    2    0    0 -0.27768200072E+02  0.34036595001E+00 -0.15669455711E+02  0.59301943070E+02  0.49999998254E+02 0.  0.
         12    1    1    2    0    0  0.27768200072E+02 -0.34036595001E+00  0.15669455711E+02  0.31886056930E+02  0.00000000000E+00 0. -1.
         11    1    3    3    0    0 -0.16146202227E+02  0.58577904465E+00  0.73465323516E+01  0.17748648436E+02  0.51100000000E-03 0. -1.
        -11    1    3    3    0    0  0.12106845895E+01 -0.12667534210E+02 -0.39485159192E+00  0.12731382021E+02  0.51100000000E-03 0.  1.
        -12    1    3    3    0    0 -0.12832682435E+02  0.12422121115E+02 -0.22621136470E+02  0.28821912613E+02  0.00000000000E+00 0.  1.
</event>
<event>
 7    1  0.3449603E-013  0.5930195E+02  0.7816164E-02  0.1266605E+00
        -11   -1    0    0    0    0  0.00000000000E+00  0.00000000000E+00  0.45593999997E+02  0.45594000000E+02  0.51100000000E-03 0.  1.
         11   -1    0    0    0    0 -0.00000000000E+00 -0.00000000000E+00 -0.45593999997E+02  0.45594000000E+02  0.51100000000E-03 0. -1.
    9900012    2    1    2    0    0 -0.22190960877E+02 -0.56813512388E+01 -0.22181156068E+02  0.59301950055E+02  0.50000010993E+02 0.  0.
         12    1    1    2    0    0  0.22190960877E+02  0.56813512388E+01  0.22181156068E+02  0.31886049945E+02  0.00000000000E+00 0. -1.
         11    1    3    3    0    0 -0.11692950827E+02  0.12665006657E+02  0.52971067674E+01  0.18032937449E+02  0.51100000000E-03 0. -1.
        -11    1    3    3    0    0 -0.29615092571E+01 -0.70624612053E+00  0.36201588298E+01  0.47302083334E+01  0.51100000000E-03 0.  1.
         12    1    3    3    0    0 -0.75365007928E+01 -0.17640111775E+02 -0.31098421666E+02  0.36538804273E+02  0.00000000000E+00 0. -1.
</event>
<event>
 7    1  0.3449603E-013  0.5930177E+02  0.7816164E-02  0.1266605E+00
        -11   -1    0    0    0    0  0.00000000000E+00  0.00000000000E+00  0.45593999997E+02  0.45594000000E+02  0.51100000000E-03 0. -1.
         11   -1    0    0    0    0 -0.00000000000E+00 -0.00000000000E+00 -0.45593999997E+02  0.45594000000E+02  0.51100000000E-03 0.  1.
    9900012    2    1    2    0    0  0.11293292912E+02 -0.11021934990E+01 -0.29798967066E+02  0.59301768904E+02  0.49999680616E+02 0.  0.
         12    1    1    2    0    0 -0.11293292912E+02  0.11021934990E+01  0.29798967066E+02  0.31886231096E+02  0.00000000000E+00 0. -1.
         11    1    3    3    0    0 -0.18362457633E+01 -0.39429386722E+01  0.58711571349E+01  0.73067811134E+01  0.51100000000E-03 0. -1.
        -11    1    3    3    0    0 -0.64551382786E+01 -0.74268932454E+01  0.21650120789E+00  0.98424807091E+01  0.51100000000E-03 0.  1.
        -12    1    3    3    0    0  0.19584676954E+02  0.10267638419E+02 -0.35886625409E+02  0.42152507082E+02  0.00000000000E+00 0.  1.
</event>
<event>
 7    1  0.3449603E-013  0.5930196E+02  0.7816164E-02  0.1266605E+00
        -11   -1    0    0    0    0  0.00000000000E+00  0.00000000000E+00  0.45593999997E+02  0.45594000000E+02  0.51100000000E-03 0.  1.
         11   -1    0    0    0    0 -0.00000000000E+00 -0.00000000000E+00 -0.45593999997E+02  0.45594000000E+02  0.51100000000E-03 0. -1.
    9900012    2    1    2    0    0 -0.15323468956E+01  0.24668679058E+02 -0.20145168233E+02  0.59301958907E+02  0.50000027136E+02 0.  0.
         12    1    1    2    0    0  0.15323468956E+01 -0.24668679058E+02  0.20145168233E+02  0.31886041093E+02  0.00000000000E+00 0. -1.
         11    1    3    3    0    0 -0.21163119616E+01 -0.15943487663E+00 -0.18329193425E+02  0.18451653793E+02  0.51100000000E-03 0. -1.
        -11    1    3    3    0    0  0.94235678064E+01  0.97776852110E+01 -0.14046485314E+02  0.19537413038E+02  0.51100000000E-03 0.  1.
        -12    1    3    3    0    0 -0.88396027404E+01  0.15050428724E+02  0.12230510507E+02  0.21312892076E+02  0.00000000000E+00 0.  1.
</event>
<event>
 7    1  0.3449603E-013  0.5930208E+02  0.7816164E-02  0.1266604E+00
        -11   -1    0    0    0    0  0.00000000000E+00  0.00000000000E+00  0.45593999997E+02  0.45594000000E+02  0.51100000000E-03 0.  1.
         11   -1    0    0    0    0 -0.00000000000E+00 -0.00000000000E+00 -0.45593999997E+02  0.45594000000E+02  0.51100000000E-03 0. -1.
    9900012    2    1    2    0    0 -0.25821945960E+02  0.10958366638E+02  0.15160908149E+02  0.59302081032E+02  0.50000249862E+02 0.  0.
         12    1    1    2    0    0  0.25821945960E+02 -0.10958366638E+02 -0.15160908149E+02  0.31885918968E+02  0.00000000000E+00 0. -1.
         11    1    3    3    0    0  0.23098759227E+01 -0.56067511561E+01  0.69246343598E+01  0.92044416769E+01  0.51100000000E-03 0. -1.
        -11    1    3    3    0    0  0.33026441096E+00  0.13901878775E+01  0.16691924714E+02  0.16752971314E+02  0.51100000000E-03 0.  1.
        -12    1    3    3    0    0 -0.28462086294E+02  0.15174929917E+02 -0.84556509253E+01  0.33344668041E+02  0.00000000000E+00 0.  1.
</event>
<event>
 7    1  0.3449603E-013  0.5930209E+02  0.7816164E-02  0.1266604E+00
        -11   -1    0    0    0    0  0.00000000000E+00  0.00000000000E+00  0.45593999997E+02  0.45594000000E+02  0.51100000000E-03 0.  1.
         11   -1    0    0    0    0 -0.00000000000E+00 -0.00000000000E+00 -0.45593999997E+02  0.45594000000E+02  0.51100000000E-03 0. -1.
    9900012    2    1    2    0    0  0.26788566435E+02  0.10217181446E+02  0.13953246677E+02  0.59302091182E+02  0.50000268373E+02 0.  0.
         12    1    1    2    0    0 -0.26788566435E+02 -0.10217181446E+02 -0.13953246677E+02  0.31885908818E+02  0.00000000000E+00 0. -1.
         11    1    3    3    0    0 -0.51848788611E+01 -0.95452944755E+01  0.22364695511E+01  0.11090419818E+02  0.51100000000E-03 0. -1.
        -11    1    3    3    0    0 -0.38594524409E+01 -0.22415252533E+01  0.26667380839E+01  0.51991634783E+01  0.51100000000E-03 0.  1.
        -12    1    3    3    0    0  0.35832897737E+02  0.22004001175E+02  0.90500390424E+01  0.43012507885E+02  0.00000000000E+00 0.  1.
</event>
<event>
 7    1  0.3449603E-013  0.5930199E+02  0.7816164E-02  0.1266605E+00
        -11   -1    0    0    0    0  0.00000000000E+00  0.00000000000E+00  0.45593999997E+02  0.45594000000E+02  0.51100000000E-03 0. -1.
         11   -1    0    0    0    0 -0.00000000000E+00 -0.00000000000E+00 -0.45593999997E+02  0.45594000000E+02  0.51100000000E-03 0.  1.
    9900012    2    1    2    0    0 -0.93565850732E+01  0.23171705942E+02 -0.19805144560E+02  0.59301993797E+02  0.50000090768E+02 0.  0.
         12    1    1    2    0    0  0.93565850732E+01 -0.23171705942E+02  0.19805144560E+02  0.31886006203E+02  0.00000000000E+00 0. -1.
         11    1    3    3    0    0  0.11708557994E+02 -0.58283630284E+01 -0.62513840148E+01  0.14496204615E+02  0.51100000000E-03 0. -1.
        -11    1    3    3    0    0 -0.24586567043E+01  0.16935419978E+02  0.26822385462E+01  0.17321889230E+02  0.51100000000E-03 0.  1.
         12    1    3    3    0    0 -0.18606486363E+02  0.12064648993E+02 -0.16235999091E+02  0.27483899952E+02  0.00000000000E+00 0. -1.
</event>
<event>
 7    1  0.3449603E-013  0.5930195E+02  0.7816164E-02  0.1266605E+00
        -11   -1    0    0    0    0  0.00000000000E+00  0.00000000000E+00  0.45593999997E+02  0.45594000000E+02  0.51100000000E-03 0. -1.
         11   -1    0    0    0    0 -0.00000000000E+00 -0.00000000000E+00 -0.45593999997E+02  0.45594000000E+02  0.51100000000E-03 0.  1.
    9900012    2    1    2    0    0 -0.12337827255E+01  0.26185543279E+02 -0.18152553308E+02  0.59301951512E+02  0.50000013649E+02 0.  0.
         12    1    1    2    0    0  0.12337827255E+01 -0.26185543279E+02  0.18152553308E+02  0.31886048488E+02  0.00000000000E+00 0. -1.
         11    1    3    3    0    0 -0.10174875636E+02  0.12181459423E+02 -0.16069471767E+02  0.22586366928E+02  0.51100000000E-03 0. -1.
        -11    1    3    3    0    0  0.51182415424E+01 -0.10533840287E+02 -0.20031347707E+01  0.11881529230E+02  0.51100000000E-03 0.  1.
         12    1    3    3    0    0  0.38228513686E+01  0.24537924143E+02 -0.79946770502E-01  0.24834055354E+02  0.00000000000E+00 0. -1.
</event>
<event>
 7    1  0.3449603E-013  0.5930194E+02  0.7816164E-02  0.1266605E+00
        -11   -1    0    0    0    0  0.00000000000E+00  0.00000000000E+00  0.45593999997E+02  0.45594000000E+02  0.51100000000E-03 0.  1.
         11   -1    0    0    0    0 -0.00000000000E+00 -0.00000000000E+00 -0.45593999997E+02  0.45594000000E+02  0.51100000000E-03 0. -1.
    9900012    2    1    2    0    0 -0.28727770368E+01  0.82792190788E+01  0.30658155343E+02  0.59301940264E+02  0.49999993137E+02 0.  0.
         12    1    1    2    0    0  0.28727770368E+01 -0.82792190788E+01 -0.30658155343E+02  0.31886059736E+02  0.00000000000E+00 0. -1.
         11    1    3    3    0    0 -0.10191982509E+02  0.27958275893E+01  0.18568845479E+01  0.10730385821E+02  0.51100000000E-03 0. -1.
        -11    1    3    3    0    0 -0.14975266213E+02  0.58595354016E+01  0.75351819158E+01  0.17758708288E+02  0.51100000000E-03 0.  1.
         12    1    3    3    0    0  0.22294471686E+02 -0.37614391209E+00  0.21266088879E+02  0.30812846156E+02  0.00000000000E+00 0. -1.
</event>
<event>
 7    1  0.3449603E-013  0.5930195E+02  0.7816164E-02  0.1266605E+00
        -11   -1    0    0    0    0  0.00000000000E+00  0.00000000000E+00  0.45593999997E+02  0.45594000000E+02  0.51100000000E-03 0. -1.
         11   -1    0    0    0    0 -0.00000000000E+00 -0.00000000000E+00 -0.45593999997E+02  0.45594000000E+02  0.51100000000E-03 0.  1.
    9900012    2    1    2    0    0  0.54921594560E+01  0.16906274616E+02 -0.26471380423E+02  0.59301954175E+02  0.50000018505E+02 0.  0.
         12    1    1    2    0    0 -0.54921594560E+01 -0.16906274616E+02  0.26471380423E+02  0.31886045825E+02  0.00000000000E+00 0. -1.
         11    1    3    3    0    0 -0.34212283151E+01 -0.37368668305E+01 -0.46221168978E+01  0.68580567052E+01  0.51100000000E-03 0. -1.
        -11    1    3    3    0    0 -0.24540518817E+01 -0.64500295775E+01  0.79965968221E+01  0.10562708610E+02  0.51100000000E-03 0.  1.
        -12    1    3    3    0    0  0.11367439653E+02  0.27093171024E+02 -0.29845860347E+02  0.41881188859E+02  0.00000000000E+00 0.  1.
</event>
<event>
 7    1  0.3449603E-013  0.5930214E+02  0.7816164E-02  0.1266604E+00
        -11   -1    0    0    0    0  0.00000000000E+00  0.00000000000E+00  0.45593999997E+02  0.45594000000E+02  0.51100000000E-03 0.  1.
         11   -1    0    0    0    0 -0.00000000000E+00 -0.00000000000E+00 -0.45593999997E+02  0.45594000000E+02  0.51100000000E-03 0. -1.
    9900012    2    1    2    0    0 -0.63722218527E+01  0.30520851518E+02  0.66768847735E+01  0.59302135122E+02  0.50000348509E+02 0.  0.
         12    1    1    2    0    0  0.63722218527E+01 -0.30520851518E+02 -0.66768847735E+01  0.31885864878E+02  0.00000000000E+00 0. -1.
         11    1    3    3    0    0  0.77697364773E+01  0.96122158568E+01 -0.95246521904E+01  0.15603925731E+02  0.51100000000E-03 0. -1.
        -11    1    3    3    0    0  0.49171563477E+01 -0.19632691912E+01  0.12652195041E+02  0.13715352423E+02  0.51100000000E-03 0.  1.
        -12    1    3    3    0    0 -0.19059114678E+02  0.22871904853E+02  0.35493419229E+01  0.29982856968E+02  0.00000000000E+00 0.  1.
</event>
<event>
 7    1  0.3449603E-013  0.5930195E+02  0.7816164E-02  0.1266605E+00
        -11   -1    0    0    0    0  0.00000000000E+00  0.00000000000E+00  0.45593999997E+02  0.45594000000E+02  0.51100000000E-03 0. -1.
         11   -1    0    0    0    0 -0.00000000000E+00 -0.00000000000E+00 -0.45593999997E+02  0.45594000000E+02  0.51100000000E-03 0.  1.
    9900012    2    1    2    0    0  0.26642324158E+02  0.13301892076E+02 -0.11400279901E+02  0.59301950524E+02  0.50000011848E+02 0.  0.
         12    1    1    2    0    0 -0.26642324158E+02 -0.13301892076E+02  0.11400279901E+02  0.31886049476E+02  0.00000000000E+00 0. -1.
         11    1    3    3    0    0  0.95539114222E+01 -0.89182840068E+01 -0.69805815931E+01  0.14816933985E+02  0.51100000000E-03 0. -1.
        -11    1    3    3    0    0 -0.28530627034E+01  0.30245663749E+01  0.11725778735E+02  0.12441135629E+02  0.51100000000E-03 0.  1.
        -12    1    3    3    0    0  0.19941475439E+02  0.19195609708E+02 -0.16145477043E+02  0.32043880909E+02  0.00000000000E+00 0.  1.
</event>
<event>
 7    1  0.3449603E-013  0.5930193E+02  0.7816164E-02  0.1266605E+00
        -11   -1    0    0    0    0  0.00000000000E+00  0.00000000000E+00  0.45593999997E+02  0.45594000000E+02  0.51100000000E-03 0.  1.
         11   -1    0    0    0    0 -0.00000000000E+00 -0.00000000000E+00 -0.45593999997E+02  0.45594000000E+02  0.51100000000E-03 0. -1.
    9900012    2    1    2    0    0 -0.77932680589E+01 -0.15391631547E+02  0.26815744697E+02  0.59301929179E+02  0.49999972920E+02 0.  0.
         12    1    1    2    0    0  0.77932680589E+01  0.15391631547E+02 -0.26815744697E+02  0.31886070821E+02  0.00000000000E+00 0. -1.
         11    1    3    3    0    0 -0.23281050331E+01 -0.64066660809E+01  0.14660146214E+02  0.16167415705E+02  0.51100000000E-03 0. -1.
        -11    1    3    3    0    0 -0.30757221496E+01 -0.53399947059E+01  0.26984077585E+02  0.27678801520E+02  0.51100000000E-03 0.  1.
         12    1    3    3    0    0 -0.23894408763E+01 -0.36449707602E+01 -0.14828479102E+02  0.15455711954E+02  0.00000000000E+00 0. -1.
</event>
<event>
 7    1  0.3449603E-013  0.5930188E+02  0.7816164E-02  0.1266605E+00
        -11   -1    0    0    0    0  0.00000000000E+00  0.00000000000E+00  0.45593999997E+02  0.45594000000E+02  0.51100000000E-03 0.  1.
         11   -1    0    0    0    0 -0.00000000000E+00 -0.00000000000E+00 -0.45593999997E+02  0.45594000000E+02  0.51100000000E-03 0. -1.
    9900012    2    1    2    0    0 -0.15458363341E+01  0.11698222385E+02  0.29622397528E+02  0.59301883080E+02  0.49999888845E+02 0.  0.
         12    1    1    2    0    0  0.15458363341E+01 -0.11698222385E+02 -0.29622397528E+02  0.31886116920E+02  0.00000000000E+00 0. -1.
         11    1    3    3    0    0 -0.32259902616E+01 -0.74326803738E+01 -0.62744334436E+01  0.10247939598E+02  0.51100000000E-03 0. -1.
        -11    1    3    3    0    0 -0.15251801252E+01  0.21582440275E+02  0.11845937207E+02  0.24666863019E+02  0.51100000000E-03 0.  1.
         12    1    3    3    0    0  0.32053340527E+01 -0.24515375158E+01  0.24050893765E+02  0.24387080462E+02  0.00000000000E+00 0. -1.
</event>
<event>
 7    1  0.3449603E-013  0.5930196E+02  0.7816164E-02  0.1266605E+00
        -11   -1    0    0    0    0  0.00000000000E+00  0.00000000000E+00  0.45593999997E+02  0.45594000000E+02  0.51100000000E-03 0. -1.
         11   -1    0    0    0    0 -0.00000000000E+00 -0.00000000000E+00 -0.45593999997E+02  0.45594000000E+02  0.51100000000E-03 0.  1.
    9900012    2    1    2    0    0  0.54450089312E+01 -0.11554751479E+02 -0.29215737978E+02  0.59301956822E+02  0.50000023333E+02 0.  0.
         12    1    1    2    0    0 -0.54450089312E+01  0.11554751479E+02  0.29215737978E+02  0.31886043178E+02  0.00000000000E+00 0. -1.
         11    1    3    3    0    0 -0.57569559626E+00  0.33087193833E+01 -0.19506499018E+02  0.19793497760E+02  0.51100000000E-03 0. -1.
        -11    1    3    3    0    0  0.34101919484E+01  0.83049402453E+01 -0.13169008596E+02  0.15938137572E+02  0.51100000000E-03 0.  1.
        -12    1    3    3    0    0  0.26105125790E+01 -0.23168411108E+02  0.34597696364E+01  0.23570321489E+02  0.00000000000E+00 0.  1.
</event>
<event>
 7    1  0.3449603E-013  0.5930194E+02  0.7816164E-02  0.1266605E+00
        -11   -1    0    0    0    0  0.00000000000E+00  0.00000000000E+00  0.45593999997E+02  0.45594000000E+02  0.51100000000E-03 0.  1.
         11   -1    0    0    0    0 -0.00000000000E+00 -0.00000000000E+00 -0.45593999997E+02  0.45594000000E+02  0.51100000000E-03 0. -1.
    9900012    2    1    2    0    0  0.10050962824E+02  0.22157543925E+02  0.20609275520E+02  0.59301939661E+02  0.49999992036E+02 0.  0.
         12    1    1    2    0    0 -0.10050962824E+02 -0.22157543925E+02 -0.20609275520E+02  0.31886060339E+02  0.00000000000E+00 0. -1.
         11    1    3    3    0    0  0.87185304702E+01 -0.28880490978E+01 -0.83604964977E+01  0.12419802861E+02  0.51100000000E-03 0. -1.
        -11    1    3    3    0    0 -0.38506367378E+01 -0.37181311673E+01  0.11868264216E+02  0.13019508379E+02  0.51100000000E-03 0.  1.
        -12    1    3    3    0    0  0.51830690914E+01  0.28763724190E+02  0.17101507801E+02  0.33862628421E+02  0.00000000000E+00 0.  1.
</event>
<event>
 7    1  0.3449603E-013  0.5930194E+02  0.7816164E-02  0.1266605E+00
        -11   -1    0    0    0    0  0.00000000000E+00  0.00000000000E+00  0.45593999997E+02  0.45594000000E+02  0.51100000000E-03 0. -1.
         11   -1    0    0    0    0 -0.00000000000E+00 -0.00000000000E+00 -0.45593999997E+02  0.45594000000E+02  0.51100000000E-03 0.  1.
    9900012    2    1    2    0    0  0.40797873700E+00 -0.31778744205E+02  0.25817998617E+01  0.59301941598E+02  0.49999995569E+02 0.  0.
         12    1    1    2    0    0 -0.40797873700E+00  0.31778744205E+02 -0.25817998617E+01  0.31886058402E+02  0.00000000000E+00 0. -1.
         11    1    3    3    0    0  0.48371766717E+01 -0.11345964492E+01 -0.24246777613E+01  0.55285305247E+01  0.51100000000E-03 0. -1.
        -11    1    3    3    0    0  0.37973859385E+01  0.23559809626E+00 -0.15395957475E+02  0.15859103167E+02  0.51100000000E-03 0.  1.
         12    1    3    3    0    0 -0.82265838732E+01 -0.30879745852E+02  0.20402435098E+02  0.37914307906E+02  0.00000000000E+00 0. -1.
</event>
<event>
 7    1  0.3449603E-013  0.5930196E+02  0.7816164E-02  0.1266605E+00
        -11   -1    0    0    0    0  0.00000000000E+00  0.00000000000E+00  0.45593999997E+02  0.45594000000E+02  0.51100000000E-03 0. -1.
         11   -1    0    0    0    0 -0.00000000000E+00 -0.00000000000E+00 -0.45593999997E+02  0.45594000000E+02  0.51100000000E-03 0.  1.
    9900012    2    1    2    0    0 -0.19415236241E+01  0.31418590100E+02 -0.50815796169E+01  0.59301956513E+02  0.50000022771E+02 0.  0.
         12    1    1    2    0    0  0.19415236241E+01 -0.31418590100E+02  0.50815796169E+01  0.31886043487E+02  0.00000000000E+00 0. -1.
         11    1    3    3    0    0 -0.10560811913E+02  0.26212444638E+02  0.12162361224E+02  0.30765988249E+02  0.51100000000E-03 0. -1.
        -11    1    3    3    0    0  0.31919361448E+00  0.11960737957E+02 -0.10218930133E+02  0.15734918823E+02  0.51100000000E-03 0.  1.
        -12    1    3    3    0    0  0.83000946743E+01 -0.67545924946E+01 -0.70250107075E+01  0.12801049442E+02  0.00000000000E+00 0.  1.
</event>
<event>
 7    1  0.3449603E-013  0.5930195E+02  0.7816164E-02  0.1266605E+00
        -11   -1    0    0    0    0  0.00000000000E+00  0.00000000000E+00  0.45593999997E+02  0.45594000000E+02  0.51100000000E-03 0. -1.
         11   -1    0    0    0    0 -0.00000000000E+00 -0.00000000000E+00 -0.45593999997E+02  0.45594000000E+02  0.51100000000E-03 0.  1.
    9900012    2    1    2    0    0  0.29359410786E+01  0.11875570495E+02 -0.29446070977E+02  0.59301952572E+02  0.50000015583E+02 0.  0.
         12    1    1    2    0    0 -0.29359410786E+01 -0.11875570495E+02  0.29446070977E+02  0.31886047428E+02  0.00000000000E+00 0. -1.
         11    1    3    3    0    0  0.13437779186E+02  0.62519970679E+01  0.79412826812E+00  0.14842237593E+02  0.51100000000E-03 0. -1.
        -11    1    3    3    0    0 -0.12308545779E+02  0.10652672653E+02 -0.28163021239E+01  0.16520026990E+02  0.51100000000E-03 0.  1.
        -12    1    3    3    0    0  0.18067076714E+01 -0.50290992254E+01 -0.27423897121E+02  0.27939687989E+02  0.00000000000E+00 0.  1.
</event>
<event>
 7    1  0.3449603E-013  0.5930196E+02  0.7816164E-02  0.1266605E+00
        -11   -1    0    0    0    0  0.00000000000E+00  0.00000000000E+00  0.45593999997E+02  0.45594000000E+02  0.51100000000E-03 0.  1.
         11   -1    0    0    0    0 -0.00000000000E+00 -0.00000000000E+00 -0.45593999997E+02  0.45594000000E+02  0.51100000000E-03 0. -1.
    9900012    2    1    2    0    0 -0.58363424475E+01 -0.24012527739E+02 -0.20150816565E+02  0.59301956191E+02  0.50000022183E+02 0.  0.
         12    1    1    2    0    0  0.58363424475E+01  0.24012527739E+02  0.20150816565E+02  0.31886043809E+02  0.00000000000E+00 0. -1.
         11    1    3    3    0    0 -0.95793062736E+01  0.82009581696E+01 -0.27184110813E+01  0.12899945064E+02  0.51100000000E-03 0. -1.
        -11    1    3    3    0    0 -0.40292392364E+01 -0.11710752199E+02  0.64643922000E+01  0.13970141469E+02  0.51100000000E-03 0.  1.
        -12    1    3    3    0    0  0.77722030625E+01 -0.20502733710E+02 -0.23896797683E+02  0.32431869658E+02  0.00000000000E+00 0.  1.
</event>
<event>
 7    1  0.3449603E-013  0.5930182E+02  0.7816164E-02  0.1266605E+00
        -11   -1    0    0    0    0  0.00000000000E+00  0.00000000000E+00  0.45593999997E+02  0.45594000000E+02  0.51100000000E-03 0.  1.
         11   -1    0    0    0    0 -0.00000000000E+00 -0.00000000000E+00 -0.45593999997E+02  0.45594000000E+02  0.51100000000E-03 0. -1.
    9900012    2    1    2    0    0 -0.15237077100E+02 -0.77897363284E+00  0.27999164506E+02  0.59301819114E+02  0.49999772187E+02 0.  0.
         12    1    1    2    0    0  0.15237077100E+02  0.77897363284E+00 -0.27999164506E+02  0.31886180886E+02  0.00000000000E+00 0. -1.
         11    1    3    3    0    0 -0.16908088565E+02  0.31856286048E+01  0.68418039128E+01  0.18515992265E+02  0.51100000000E-03 0. -1.
        -11    1    3    3    0    0  0.28368846227E+01 -0.88741980849E+01 -0.73303333633E+01  0.11854665474E+02  0.51100000000E-03 0.  1.
        -12    1    3    3    0    0 -0.11658731579E+01  0.49095958473E+01  0.28487693956E+02  0.28931161376E+02  0.00000000000E+00 0.  1.
</event>
<event>
 7    1  0.3449603E-013  0.5930191E+02  0.7816164E-02  0.1266605E+00
        -11   -1    0    0    0    0  0.00000000000E+00  0.00000000000E+00  0.45593999997E+02  0.45594000000E+02  0.51100000000E-03 0. -1.
         11   -1    0    0    0    0 -0.00000000000E+00 -0.00000000000E+00 -0.45593999997E+02  0.45594000000E+02  0.51100000000E-03 0.  1.
    9900012    2    1    2    0    0  0.85696942748E+01 -0.22645752160E+02 -0.20747365281E+02  0.59301907154E+02  0.49999932752E+02 0.  0.
         12    1    1    2    0    0 -0.85696942748E+01  0.22645752160E+02  0.20747365281E+02  0.31886092846E+02  0.00000000000E+00 0. -1.
         11    1    3    3    0    0 -0.20837944049E+01 -0.11520186232E+02  0.10507494442E+01  0.11754189236E+02  0.51100000000E-03 0. -1.
        -11    1    3    3    0    0  0.73657441936E+01 -0.22937628415E+02 -0.18880374690E+01  0.24165133365E+02  0.51100000000E-03 0.  1.
         12    1    3    3    0    0  0.32877444860E+01  0.11812062487E+02 -0.19910077256E+02  0.23382584553E+02  0.00000000000E+00 0. -1.
</event>
<event>
 7    1  0.3449603E-013  0.5930185E+02  0.7816164E-02  0.1266605E+00
        -11   -1    0    0    0    0  0.00000000000E+00  0.00000000000E+00  0.45593999997E+02  0.45594000000E+02  0.51100000000E-03 0. -1.
         11   -1    0    0    0    0 -0.00000000000E+00 -0.00000000000E+00 -0.45593999997E+02  0.45594000000E+02  0.51100000000E-03 0.  1.
    9900012    2    1    2    0    0  0.10087769270E+02 -0.58989888897E+01 -0.29667579870E+02  0.59301851689E+02  0.49999831597E+02 0.  0.
         12    1    1    2    0    0 -0.10087769270E+02  0.58989888897E+01  0.29667579870E+02  0.31886148311E+02  0.00000000000E+00 0. -1.
         11    1    3    3    0    0  0.62256330553E+01  0.90848504189E+01  0.14315166087E+01  0.11105955796E+02  0.51100000000E-03 0. -1.
        -11    1    3    3    0    0  0.56072218603E+01 -0.14159482860E+02  0.17145678960E+01  0.15325522347E+02  0.51100000000E-03 0.  1.
        -12    1    3    3    0    0 -0.17450856455E+01 -0.82435644830E+00 -0.32813664374E+02  0.32870373547E+02  0.00000000000E+00 0.  1.
</event>
<event>
 7    1  0.3449603E-013  0.5930197E+02  0.7816164E-02  0.1266605E+00
        -11   -1    0    0    0    0  0.00000000000E+00  0.00000000000E+00  0.45593999997E+02  0.45594000000E+02  0.51100000000E-03 0.  1.
         11   -1    0    0    0    0 -0.00000000000E+00 -0.00000000000E+00 -0.45593999997E+02  0.45594000000E+02  0.51100000000E-03 0. -1.
    9900012    2    1    2    0    0  0.24635887161E+02  0.79597642441E+01  0.18612745090E+02  0.59301967590E+02  0.50000042973E+02 0.  0.
         12    1    1    2    0    0 -0.24635887161E+02 -0.79597642441E+01 -0.18612745090E+02  0.31886032410E+02  0.00000000000E+00 0. -1.
         11    1    3    3    0    0 -0.93043171838E+01  0.30037150402E+00 -0.79398182817E+01  0.12235246459E+02  0.51100000000E-03 0. -1.
        -11    1    3    3    0    0 -0.13153379666E+01 -0.14268505706E+01 -0.10448112706E+00  0.19434333238E+01  0.51100000000E-03 0.  1.
        -12    1    3    3    0    0  0.35255542311E+02  0.90862433106E+01  0.26657044499E+02  0.45123287808E+02  0.00000000000E+00 0.  1.
</event>
<event>
 7    1  0.3449603E-013  0.5930196E+02  0.7816164E-02  0.1266605E+00
        -11   -1    0    0    0    0  0.00000000000E+00  0.00000000000E+00  0.45593999997E+02  0.45594000000E+02  0.51100000000E-03 0. -1.
         11   -1    0    0    0    0 -0.00000000000E+00 -0.00000000000E+00 -0.45593999997E+02  0.45594000000E+02  0.51100000000E-03 0.  1.
    9900012    2    1    2    0    0 -0.39153255271E+01  0.65685597412E+01 -0.30955515731E+02  0.59301957517E+02  0.50000024602E+02 0.  0.
         12    1    1    2    0    0  0.39153255271E+01 -0.65685597412E+01  0.30955515731E+02  0.31886042483E+02  0.00000000000E+00 0. -1.
         11    1    3    3    0    0 -0.38082762081E+01  0.11748785928E+02 -0.99436930162E+01  0.15856038897E+02  0.51100000000E-03 0.  1.
        -11    1    3    3    0    0 -0.72696140549E+01  0.14643254663E+02 -0.54038198735E+01  0.17218404836E+02  0.51100000000E-03 0. -1.
        -12    1    3    3    0    0  0.71625647360E+01 -0.19823480849E+02 -0.15608002841E+02  0.26227513783E+02  0.00000000000E+00 0.  1.
</event>
<event>
 7    1  0.3449603E-013  0.5930192E+02  0.7816164E-02  0.1266605E+00
        -11   -1    0    0    0    0  0.00000000000E+00  0.00000000000E+00  0.45593999997E+02  0.45594000000E+02  0.51100000000E-03 0.  1.
         11   -1    0    0    0    0 -0.00000000000E+00 -0.00000000000E+00 -0.45593999997E+02  0.45594000000E+02  0.51100000000E-03 0. -1.
    9900012    2    1    2    0    0 -0.13507661257E+02 -0.12936111611E+02  0.25824841221E+02  0.59301916510E+02  0.49999949814E+02 0.  0.
         12    1    1    2    0    0  0.13507661257E+02  0.12936111611E+02 -0.25824841221E+02  0.31886083490E+02  0.00000000000E+00 0. -1.
         11    1    3    3    0    0 -0.12554830353E+02 -0.92761133106E+01  0.27253273993E+02  0.31407180500E+02  0.51100000000E-03 0. -1.
        -11    1    3    3    0    0 -0.75505891926E+01 -0.74032821014E+01  0.97513763206E+01  0.14384342996E+02  0.51100000000E-03 0.  1.
         12    1    3    3    0    0  0.65977582882E+01  0.37432838005E+01 -0.11179809093E+02  0.13510393014E+02  0.00000000000E+00 0. -1.
</event>
<event>
 7    1  0.3449603E-013  0.5930195E+02  0.7816164E-02  0.1266605E+00
        -11   -1    0    0    0    0  0.00000000000E+00  0.00000000000E+00  0.45593999997E+02  0.45594000000E+02  0.51100000000E-03 0. -1.
         11   -1    0    0    0    0 -0.00000000000E+00 -0.00000000000E+00 -0.45593999997E+02  0.45594000000E+02  0.51100000000E-03 0.  1.
    9900012    2    1    2    0    0 -0.23782113468E+02  0.16607744778E+02 -0.13240616383E+02  0.59301952427E+02  0.50000015319E+02 0.  0.
         12    1    1    2    0    0  0.23782113468E+02 -0.16607744778E+02  0.13240616383E+02  0.31886047573E+02  0.00000000000E+00 0. -1.
         11    1    3    3    0    0 -0.13383541879E+02  0.16751222624E+02 -0.50543866688E+01  0.22028832867E+02  0.51100000000E-03 0. -1.
        -11    1    3    3    0    0 -0.19843677723E+02  0.11281210211E+01 -0.15544736662E+02  0.25232578956E+02  0.51100000000E-03 0.  1.
         12    1    3    3    0    0  0.94451061338E+01 -0.12715988670E+01  0.73585069477E+01  0.12040540605E+02  0.00000000000E+00 0. -1.
</event>
<event>
 7    1  0.3449603E-013  0.5930195E+02  0.7816164E-02  0.1266605E+00
        -11   -1    0    0    0    0  0.00000000000E+00  0.00000000000E+00  0.45593999997E+02  0.45594000000E+02  0.51100000000E-03 0.  1.
         11   -1    0    0    0    0 -0.00000000000E+00 -0.00000000000E+00 -0.45593999997E+02  0.45594000000E+02  0.51100000000E-03 0. -1.
    9900012    2    1    2    0    0  0.83440136667E+01  0.30710683632E+02 -0.19878772415E+01  0.59301948047E+02  0.50000007330E+02 0.  0.
         12    1    1    2    0    0 -0.83440136667E+01 -0.30710683632E+02  0.19878772415E+01  0.31886051953E+02  0.00000000000E+00 0. -1.
         11    1    3    3    0    0  0.14381973003E+02  0.23946481230E+02 -0.13273493926E+02  0.30926699662E+02  0.51100000000E-03 0. -1.
        -11    1    3    3    0    0  0.71608207834E+01  0.75169984599E+01 -0.86710600597E+00  0.10417988924E+02  0.51100000000E-03 0.  1.
         12    1    3    3    0    0 -0.13198780119E+02 -0.75279605719E+00  0.12152722690E+02  0.17957259460E+02  0.00000000000E+00 0. -1.
</event>
<event>
 7    1  0.3449603E-013  0.5930196E+02  0.7816164E-02  0.1266605E+00
        -11   -1    0    0    0    0  0.00000000000E+00  0.00000000000E+00  0.45593999997E+02  0.45594000000E+02  0.51100000000E-03 0.  1.
         11   -1    0    0    0    0 -0.00000000000E+00 -0.00000000000E+00 -0.45593999997E+02  0.45594000000E+02  0.51100000000E-03 0. -1.
    9900012    2    1    2    0    0  0.22836399953E+02  0.13458572657E+02  0.17722455152E+02  0.59301956699E+02  0.50000023110E+02 0.  0.
         12    1    1    2    0    0 -0.22836399953E+02 -0.13458572657E+02 -0.17722455152E+02  0.31886043301E+02  0.00000000000E+00 0. -1.
         11    1    3    3    0    0  0.14481787943E+02  0.85602072022E+01  0.12486361842E+02  0.20950144670E+02  0.51100000000E-03 0. -1.
        -11    1    3    3    0    0  0.14138586580E+02  0.15651872898E+02  0.12128320078E+02  0.24330575494E+02  0.51100000000E-03 0.  1.
         12    1    3    3    0    0 -0.57839745704E+01 -0.10753507443E+02 -0.68922267682E+01  0.14021236535E+02  0.00000000000E+00 0. -1.
</event>
<event>
 7    1  0.3449603E-013  0.5930195E+02  0.7816164E-02  0.1266605E+00
        -11   -1    0    0    0    0  0.00000000000E+00  0.00000000000E+00  0.45593999997E+02  0.45594000000E+02  0.51100000000E-03 0. -1.
         11   -1    0    0    0    0 -0.00000000000E+00 -0.00000000000E+00 -0.45593999997E+02  0.45594000000E+02  0.51100000000E-03 0.  1.
    9900012    2    1    2    0    0  0.19958739050E+02 -0.20489746877E+02 -0.14090387755E+02  0.59301952602E+02  0.50000015638E+02 0.  0.
         12    1    1    2    0    0 -0.19958739050E+02  0.20489746877E+02  0.14090387755E+02  0.31886047398E+02  0.00000000000E+00 0. -1.
         11    1    3    3    0    0  0.18461558462E+02  0.55993109390E+01  0.50056675080E+01  0.19930833683E+02  0.51100000000E-03 0. -1.
        -11    1    3    3    0    0 -0.90542796650E+01 -0.14599010306E+02 -0.39477527067E+01  0.17626566139E+02  0.51100000000E-03 0.  1.
        -12    1    3    3    0    0  0.10551460252E+02 -0.11490047511E+02 -0.15148302557E+02  0.21744552780E+02  0.00000000000E+00 0.  1.
</event>
<event>
 7    1  0.3449603E-013  0.5930193E+02  0.7816164E-02  0.1266605E+00
        -11   -1    0    0    0    0  0.00000000000E+00  0.00000000000E+00  0.45593999997E+02  0.45594000000E+02  0.51100000000E-03 0. -1.
         11   -1    0    0    0    0 -0.00000000000E+00 -0.00000000000E+00 -0.45593999997E+02  0.45594000000E+02  0.51100000000E-03 0.  1.
    9900012    2    1    2    0    0  0.24126517339E+02 -0.12629868968E+02 -0.16586703359E+02  0.59301934746E+02  0.49999983072E+02 0.  0.
         12    1    1    2    0    0 -0.24126517339E+02  0.12629868968E+02  0.16586703359E+02  0.31886065254E+02  0.00000000000E+00 0. -1.
         11    1    3    3    0    0 -0.12715014678E+02 -0.20627522120E+01 -0.32655041397E+01  0.13288719370E+02  0.51100000000E-03 0.  1.
        -11    1    3    3    0    0  0.28234359646E+01  0.54612468529E+01 -0.90602806659E-01  0.61485947146E+01  0.51100000000E-03 0. -1.
        -12    1    3    3    0    0  0.34018096053E+02 -0.16028363609E+02 -0.13230596413E+02  0.39864620661E+02  0.00000000000E+00 0.  1.
</event>
<event>
 7    1  0.3449603E-013  0.5930195E+02  0.7816164E-02  0.1266605E+00
        -11   -1    0    0    0    0  0.00000000000E+00  0.00000000000E+00  0.45593999997E+02  0.45594000000E+02  0.51100000000E-03 0.  1.
         11   -1    0    0    0    0 -0.00000000000E+00 -0.00000000000E+00 -0.45593999997E+02  0.45594000000E+02  0.51100000000E-03 0. -1.
    9900012    2    1    2    0    0 -0.13587253452E+02  0.18315251285E+02  0.22285836175E+02  0.59301946935E+02  0.50000005303E+02 0.  0.
         12    1    1    2    0    0  0.13587253452E+02 -0.18315251285E+02 -0.22285836175E+02  0.31886053065E+02  0.00000000000E+00 0. -1.
         11    1    3    3    0    0 -0.18314466081E+02  0.63824754741E+01  0.41852449742E+01  0.19841167727E+02  0.51100000000E-03 0. -1.
        -11    1    3    3    0    0 -0.10410059807E+02  0.77559330398E+01 -0.28378618279E+01  0.13288239255E+02  0.51100000000E-03 0.  1.
         12    1    3    3    0    0  0.15137272436E+02  0.41768427713E+01  0.20938453029E+02  0.26172539953E+02  0.00000000000E+00 0. -1.
</event>
<event>
 7    1  0.3449603E-013  0.5930195E+02  0.7816164E-02  0.1266605E+00
        -11   -1    0    0    0    0  0.00000000000E+00  0.00000000000E+00  0.45593999997E+02  0.45594000000E+02  0.51100000000E-03 0. -1.
         11   -1    0    0    0    0 -0.00000000000E+00 -0.00000000000E+00 -0.45593999997E+02  0.45594000000E+02  0.51100000000E-03 0.  1.
    9900012    2    1    2    0    0 -0.20824133322E+02  0.23678450948E+02 -0.47335325375E+01  0.59301954492E+02  0.50000019084E+02 0.  0.
         12    1    1    2    0    0  0.20824133322E+02 -0.23678450948E+02  0.47335325375E+01  0.31886045508E+02  0.00000000000E+00 0. -1.
         11    1    3    3    0    0  0.86383913391E+01  0.13574083447E+01 -0.13281860361E+01  0.88446843217E+01  0.51100000000E-03 0. -1.
        -11    1    3    3    0    0 -0.49607462015E+01  0.25124251287E+02 -0.39267937737E+00  0.25612325216E+02  0.51100000000E-03 0.  1.
        -12    1    3    3    0    0 -0.24501778459E+02 -0.28032086839E+01 -0.30126671241E+01  0.24844944955E+02  0.00000000000E+00 0.  1.
</event>
<event>
 7    1  0.3449603E-013  0.5930211E+02  0.7816164E-02  0.1266604E+00
        -11   -1    0    0    0    0  0.00000000000E+00  0.00000000000E+00  0.45593999997E+02  0.45594000000E+02  0.51100000000E-03 0.  1.
         11   -1    0    0    0    0 -0.00000000000E+00 -0.00000000000E+00 -0.45593999997E+02  0.45594000000E+02  0.51100000000E-03 0. -1.
    9900012    2    1    2    0    0  0.28069230628E+02 -0.10019008245E+02  0.11333475748E+02  0.59302111165E+02  0.50000304818E+02 0.  0.
         12    1    1    2    0    0 -0.28069230628E+02  0.10019008245E+02 -0.11333475748E+02  0.31885888835E+02  0.00000000000E+00 0. -1.
         11    1    3    3    0    0  0.98276661102E+01 -0.18673345290E+02 -0.11426436082E+02  0.23996672422E+02  0.51100000000E-03 0. -1.
        -11    1    3    3    0    0  0.13483531593E+02 -0.31858653320E+01  0.89059060866E+01  0.16470292214E+02  0.51100000000E-03 0.  1.
        -12    1    3    3    0    0  0.47580329253E+01  0.11840202378E+02  0.13854005743E+02  0.18835146530E+02  0.00000000000E+00 0.  1.
</event>
<event>
 7    1  0.3449603E-013  0.5930195E+02  0.7816164E-02  0.1266605E+00
        -11   -1    0    0    0    0  0.00000000000E+00  0.00000000000E+00  0.45593999997E+02  0.45594000000E+02  0.51100000000E-03 0. -1.
         11   -1    0    0    0    0 -0.00000000000E+00 -0.00000000000E+00 -0.45593999997E+02  0.45594000000E+02  0.51100000000E-03 0.  1.
    9900012    2    1    2    0    0  0.14121642910E+02  0.22377089450E+02 -0.17792273957E+02  0.59301953784E+02  0.50000017793E+02 0.  0.
         12    1    1    2    0    0 -0.14121642910E+02 -0.22377089450E+02  0.17792273957E+02  0.31886046216E+02  0.00000000000E+00 0. -1.
         11    1    3    3    0    0 -0.67266610318E+01 -0.93147213210E+01  0.46829904168E+01  0.12407352716E+02  0.51100000000E-03 0. -1.
        -11    1    3    3    0    0 -0.20864182866E+01  0.75390537032E+01 -0.49677035379E+01  0.92665285144E+01  0.51100000000E-03 0.  1.
        -12    1    3    3    0    0  0.22934722228E+02  0.24152757068E+02 -0.17507560836E+02  0.37628072553E+02  0.00000000000E+00 0.  1.
</event>
<event>
 7    1  0.4037571E-013  0.5930190E+02  0.7816164E-02  0.1266605E+00
        -11   -1    0    0    0    0  0.00000000000E+00  0.00000000000E+00  0.45593999997E+02  0.45594000000E+02  0.51100000000E-03 0. -1.
         11   -1    0    0    0    0 -0.00000000000E+00 -0.00000000000E+00 -0.45593999997E+02  0.45594000000E+02  0.51100000000E-03 0.  1.
    9900012    2    1    2    0    0  0.48938544918E+01  0.23164382389E+02 -0.21358487528E+02  0.59301899380E+02  0.49999918574E+02 0.  0.
         12    1    1    2    0    0 -0.48938544918E+01 -0.23164382389E+02  0.21358487528E+02  0.31886100620E+02  0.00000000000E+00 0. -1.
         11    1    3    3    0    0  0.15526743215E+02  0.73278325212E+01 -0.15159108936E+02  0.22903612561E+02  0.51100000000E-03 0. -1.
        -11    1    3    3    0    0  0.77411159642E+01  0.12954614118E+02 -0.90283298900E+01  0.17585722737E+02  0.51100000000E-03 0.  1.
         12    1    3    3    0    0 -0.18374004687E+02  0.28819357498E+01  0.28289512982E+01  0.18812564083E+02  0.00000000000E+00 0. -1.
</event>
<event>
 7    1  0.3449603E-013  0.5930195E+02  0.7816164E-02  0.1266605E+00
        -11   -1    0    0    0    0  0.00000000000E+00  0.00000000000E+00  0.45593999997E+02  0.45594000000E+02  0.51100000000E-03 0. -1.
         11   -1    0    0    0    0 -0.00000000000E+00 -0.00000000000E+00 -0.45593999997E+02  0.45594000000E+02  0.51100000000E-03 0.  1.
    9900012    2    1    2    0    0  0.31137828873E+01 -0.58521821854E+01 -0.31189366655E+02  0.59301948622E+02  0.50000008378E+02 0.  0.
         12    1    1    2    0    0 -0.31137828873E+01  0.58521821854E+01  0.31189366655E+02  0.31886051378E+02  0.00000000000E+00 0. -1.
         11    1    3    3    0    0 -0.46454238159E+00  0.79526877703E+01 -0.10490586037E+02  0.13172449964E+02  0.51100000000E-03 0. -1.
        -11    1    3    3    0    0  0.17723923417E+02 -0.70650553811E+01 -0.23438332392E+02  0.30222638773E+02  0.51100000000E-03 0.  1.
         12    1    3    3    0    0 -0.14145598148E+02 -0.67398145745E+01  0.27395517741E+01  0.15906859885E+02  0.00000000000E+00 0. -1.
</event>
<event>
 7    1  0.3449603E-013  0.5930207E+02  0.7816164E-02  0.1266604E+00
        -11   -1    0    0    0    0  0.00000000000E+00  0.00000000000E+00  0.45593999997E+02  0.45594000000E+02  0.51100000000E-03 0.  1.
         11   -1    0    0    0    0 -0.00000000000E+00 -0.00000000000E+00 -0.45593999997E+02  0.45594000000E+02  0.51100000000E-03 0. -1.
    9900012    2    1    2    0    0 -0.19216936539E+02  0.75526708415E+01  0.24297714134E+02  0.59302072086E+02  0.50000233547E+02 0.  0.
         12    1    1    2    0    0  0.19216936539E+02 -0.75526708415E+01 -0.24297714134E+02  0.31885927914E+02  0.00000000000E+00 0. -1.
         11    1    3    3    0    0 -0.14241956498E+01 -0.12434772649E+02 -0.79040893166E+01  0.14802923099E+02  0.51100000000E-03 0. -1.
        -11    1    3    3    0    0 -0.21113182676E+01 -0.16829122272E+01  0.79388239557E+01  0.83853911329E+01  0.51100000000E-03 0.  1.
        -12    1    3    3    0    0 -0.15681422622E+02  0.21670355718E+02  0.24262979495E+02  0.36113757854E+02  0.00000000000E+00 0.  1.
</event>
<event>
 7    1  0.3449603E-013  0.5930197E+02  0.7816164E-02  0.1266605E+00
        -11   -1    0    0    0    0  0.00000000000E+00  0.00000000000E+00  0.45593999997E+02  0.45594000000E+02  0.51100000000E-03 0.  1.
         11   -1    0    0    0    0 -0.00000000000E+00 -0.00000000000E+00 -0.45593999997E+02  0.45594000000E+02  0.51100000000E-03 0. -1.
    9900012    2    1    2    0    0 -0.31824345322E+02 -0.14092773481E+01 -0.13943303338E+01  0.59301965833E+02  0.50000039767E+02 0.  0.
         12    1    1    2    0    0  0.31824345322E+02  0.14092773481E+01  0.13943303338E+01  0.31886034167E+02  0.00000000000E+00 0. -1.
         11    1    3    3    0    0 -0.23792626388E+01  0.88132418175E+01 -0.22374512747E+01  0.93989526281E+01  0.51100000000E-03 0. -1.
        -11    1    3    3    0    0 -0.15238277619E+02  0.14467646457E+02 -0.27501297329E+01  0.21191533984E+02  0.51100000000E-03 0.  1.
        -12    1    3    3    0    0 -0.14206805065E+02 -0.24690165623E+02  0.35932506738E+01  0.28711479221E+02  0.00000000000E+00 0.  1.
</event>
<event>
 7    1  0.3449603E-013  0.5930195E+02  0.7816164E-02  0.1266605E+00
        -11   -1    0    0    0    0  0.00000000000E+00  0.00000000000E+00  0.45593999997E+02  0.45594000000E+02  0.51100000000E-03 0.  1.
         11   -1    0    0    0    0 -0.00000000000E+00 -0.00000000000E+00 -0.45593999997E+02  0.45594000000E+02  0.51100000000E-03 0. -1.
    9900012    2    1    2    0    0  0.25519558424E+02 -0.50495647208E+01  0.18438390556E+02  0.59301949565E+02  0.50000010099E+02 0.  0.
         12    1    1    2    0    0 -0.25519558424E+02  0.50495647208E+01 -0.18438390556E+02  0.31886050435E+02  0.00000000000E+00 0. -1.
         11    1    3    3    0    0 -0.11045566249E+02  0.13444804693E+01  0.10761337278E+02  0.15479616978E+02  0.51100000000E-03 0. -1.
        -11    1    3    3    0    0 -0.20484940857E+01  0.27087021921E+01 -0.89229120563E-01  0.33972573765E+01  0.51100000000E-03 0.  1.
        -12    1    3    3    0    0  0.38613618759E+02 -0.91027473823E+01  0.77662823985E+01  0.40425075211E+02  0.00000000000E+00 0.  1.
</event>
<event>
 7    1  0.3449603E-013  0.5930195E+02  0.7816164E-02  0.1266605E+00
        -11   -1    0    0    0    0  0.00000000000E+00  0.00000000000E+00  0.45593999997E+02  0.45594000000E+02  0.51100000000E-03 0.  1.
         11   -1    0    0    0    0 -0.00000000000E+00 -0.00000000000E+00 -0.45593999997E+02  0.45594000000E+02  0.51100000000E-03 0. -1.
    9900012    2    1    2    0    0 -0.24938165216E+02  0.17342351858E+02  0.96979953309E+01  0.59301947159E+02  0.50000005711E+02 0.  0.
         12    1    1    2    0    0  0.24938165216E+02 -0.17342351858E+02 -0.96979953309E+01  0.31886052841E+02  0.00000000000E+00 0. -1.
         11    1    3    3    0    0  0.11567786172E+01  0.58709704299E+01  0.10726636675E+02  0.12282799566E+02  0.51100000000E-03 0. -1.
        -11    1    3    3    0    0 -0.54232742451E+01  0.12649326656E+02  0.15351868737E+02  0.20617886467E+02  0.51100000000E-03 0.  1.
         12    1    3    3    0    0 -0.20671669588E+02 -0.11779452274E+01 -0.16380510082E+02  0.26401261126E+02  0.00000000000E+00 0. -1.
</event>
<event>
 7    1  0.3449603E-013  0.5930193E+02  0.7816164E-02  0.1266605E+00
        -11   -1    0    0    0    0  0.00000000000E+00  0.00000000000E+00  0.45593999997E+02  0.45594000000E+02  0.51100000000E-03 0.  1.
         11   -1    0    0    0    0 -0.00000000000E+00 -0.00000000000E+00 -0.45593999997E+02  0.45594000000E+02  0.51100000000E-03 0. -1.
    9900012    2    1    2    0    0 -0.20818166836E+01 -0.99121036783E+01  0.30234711483E+02  0.59301928770E+02  0.49999972174E+02 0.  0.
         12    1    1    2    0    0  0.20818166836E+01  0.99121036783E+01 -0.30234711483E+02  0.31886071230E+02  0.00000000000E+00 0. -1.
         11    1    3    3    0    0 -0.14437973539E+01 -0.74363307443E+01 -0.29198224292E+01  0.81184314382E+01  0.51100000000E-03 0. -1.
        -11    1    3    3    0    0 -0.30398872802E+00  0.12526196882E+02 -0.22499614960E+01  0.12730292396E+02  0.51100000000E-03 0.  1.
        -12    1    3    3    0    0 -0.33403060169E+00 -0.15001969816E+02  0.35404495408E+02  0.38453204937E+02  0.00000000000E+00 0.  1.
</event>
<event>
 7    1  0.3449603E-013  0.5930205E+02  0.7816164E-02  0.1266604E+00
        -11   -1    0    0    0    0  0.00000000000E+00  0.00000000000E+00  0.45593999997E+02  0.45594000000E+02  0.51100000000E-03 0. -1.
         11   -1    0    0    0    0 -0.00000000000E+00 -0.00000000000E+00 -0.45593999997E+02  0.45594000000E+02  0.51100000000E-03 0.  1.
    9900012    2    1    2    0    0  0.16902133836E+02  0.26490735520E+02  0.54104457661E+01  0.59302045099E+02  0.50000184329E+02 0.  0.
         12    1    1    2    0    0 -0.16902133836E+02 -0.26490735520E+02 -0.54104457661E+01  0.31885954901E+02  0.00000000000E+00 0. -1.
         11    1    3    3    0    0  0.59782165830E+01  0.52468002891E+01  0.17440827914E+02  0.19168997506E+02  0.51100000000E-03 0. -1.
        -11    1    3    3    0    0  0.63304288254E+01 -0.68667538050E+01 -0.57426002449E+01  0.10963762801E+02  0.51100000000E-03 0.  1.
        -12    1    3    3    0    0  0.45934884274E+01  0.28110689036E+02 -0.62877819029E+01  0.29169284792E+02  0.00000000000E+00 0.  1.
</event>
<event>
 7    1  0.3449603E-013  0.5930190E+02  0.7816164E-02  0.1266605E+00
        -11   -1    0    0    0    0  0.00000000000E+00  0.00000000000E+00  0.45593999997E+02  0.45594000000E+02  0.51100000000E-03 0. -1.
         11   -1    0    0    0    0 -0.00000000000E+00 -0.00000000000E+00 -0.45593999997E+02  0.45594000000E+02  0.51100000000E-03 0.  1.
    9900012    2    1    2    0    0 -0.14418914560E+01  0.14068913693E+02 -0.28578134560E+02  0.59301903369E+02  0.49999925848E+02 0.  0.
         12    1    1    2    0    0  0.14418914560E+01 -0.14068913693E+02  0.28578134560E+02  0.31886096631E+02  0.00000000000E+00 0. -1.
         11    1    3    3    0    0  0.73692135965E+01  0.90766171684E+01 -0.16877887841E+02  0.20531765304E+02  0.51100000000E-03 0. -1.
        -11    1    3    3    0    0  0.12756241056E+02  0.41124264962E+01 -0.10720144954E+02  0.17162611855E+02  0.51100000000E-03 0.  1.
         12    1    3    3    0    0 -0.21567346109E+02  0.87987002883E+00 -0.98010176414E+00  0.21607526210E+02  0.00000000000E+00 0. -1.
</event>
<event>
 7    1  0.3449603E-013  0.5930195E+02  0.7816164E-02  0.1266605E+00
        -11   -1    0    0    0    0  0.00000000000E+00  0.00000000000E+00  0.45593999997E+02  0.45594000000E+02  0.51100000000E-03 0. -1.
         11   -1    0    0    0    0 -0.00000000000E+00 -0.00000000000E+00 -0.45593999997E+02  0.45594000000E+02  0.51100000000E-03 0.  1.
    9900012    2    1    2    0    0 -0.83683897377E+01 -0.21962613726E+02 -0.21548413014E+02  0.59301945809E+02  0.50000003248E+02 0.  0.
         12    1    1    2    0    0  0.83683897377E+01  0.21962613726E+02  0.21548413014E+02  0.31886054191E+02  0.00000000000E+00 0. -1.
         11    1    3    3    0    0  0.81389080382E+01 -0.23572209336E+01 -0.12442459452E+02  0.15053674371E+02  0.51100000000E-03 0. -1.
        -11    1    3    3    0    0  0.39421378504E+01 -0.10400530277E+02 -0.17135206504E+02  0.20428577607E+02  0.51100000000E-03 0.  1.
        -12    1    3    3    0    0 -0.20449435626E+02 -0.92048625151E+01  0.80292529422E+01  0.23819693830E+02  0.00000000000E+00 0.  1.
</event>
<event>
 7    1  0.3449603E-013  0.5930177E+02  0.7816164E-02  0.1266605E+00
        -11   -1    0    0    0    0  0.00000000000E+00  0.00000000000E+00  0.45593999997E+02  0.45594000000E+02  0.51100000000E-03 0. -1.
         11   -1    0    0    0    0 -0.00000000000E+00 -0.00000000000E+00 -0.45593999997E+02  0.45594000000E+02  0.51100000000E-03 0.  1.
    9900012    2    1    2    0    0 -0.24033167395E+02  0.20386302027E+02  0.48515336847E+01  0.59301767478E+02  0.49999678015E+02 0.  0.
         12    1    1    2    0    0  0.24033167395E+02 -0.20386302027E+02 -0.48515336847E+01  0.31886232522E+02  0.00000000000E+00 0. -1.
         11    1    3    3    0    0 -0.33205940470E+01 -0.78237859243E+01 -0.59489135516E+01  0.10374369558E+02  0.51100000000E-03 0. -1.
        -11    1    3    3    0    0 -0.18299743982E+02  0.19200503604E+02 -0.81984869597E+01  0.27762477504E+02  0.51100000000E-03 0.  1.
         12    1    3    3    0    0 -0.24128293657E+01  0.90095843466E+01  0.18998934196E+02  0.21164920416E+02  0.00000000000E+00 0. -1.
</event>
<event>
 7    1  0.3449603E-013  0.5930196E+02  0.7816164E-02  0.1266605E+00
        -11   -1    0    0    0    0  0.00000000000E+00  0.00000000000E+00  0.45593999997E+02  0.45594000000E+02  0.51100000000E-03 0. -1.
         11   -1    0    0    0    0 -0.00000000000E+00 -0.00000000000E+00 -0.45593999997E+02  0.45594000000E+02  0.51100000000E-03 0.  1.
    9900012    2    1    2    0    0  0.16468645610E+02 -0.19948272469E+02 -0.18643219993E+02  0.59301960508E+02  0.50000030056E+02 0.  0.
         12    1    1    2    0    0 -0.16468645610E+02  0.19948272469E+02  0.18643219993E+02  0.31886039492E+02  0.00000000000E+00 0. -1.
         11    1    3    3    0    0 -0.55634015086E+00 -0.10885296753E+02 -0.16641177689E+02  0.19892913183E+02  0.51100000000E-03 0. -1.
        -11    1    3    3    0    0 -0.21971648571E+01 -0.17553598030E+02 -0.44816114226E+01  0.18249415838E+02  0.51100000000E-03 0.  1.
         12    1    3    3    0    0  0.19222150618E+02  0.84906223143E+01  0.24795691180E+01  0.21159631487E+02  0.00000000000E+00 0. -1.
</event>
<event>
 7    1  0.3449603E-013  0.5930200E+02  0.7816164E-02  0.1266605E+00
        -11   -1    0    0    0    0  0.00000000000E+00  0.00000000000E+00  0.45593999997E+02  0.45594000000E+02  0.51100000000E-03 0.  1.
         11   -1    0    0    0    0 -0.00000000000E+00 -0.00000000000E+00 -0.45593999997E+02  0.45594000000E+02  0.51100000000E-03 0. -1.
    9900012    2    1    2    0    0  0.24636939768E+02  0.17898839342E+02 -0.94535693210E+01  0.59301996427E+02  0.50000095564E+02 0.  0.
         12    1    1    2    0    0 -0.24636939768E+02 -0.17898839342E+02  0.94535693210E+01  0.31886003573E+02  0.00000000000E+00 0. -1.
         11    1    3    3    0    0 -0.79963405506E+01 -0.25998902264E+01 -0.50936115361E+01  0.98308580568E+01  0.51100000000E-03 0. -1.
        -11    1    3    3    0    0  0.59847433864E+01 -0.75998132444E+01 -0.46759414978E+01  0.10744242361E+02  0.51100000000E-03 0.  1.
        -12    1    3    3    0    0  0.26648536933E+02  0.28098542813E+02  0.31598371287E+00  0.38726896010E+02  0.00000000000E+00 0.  1.
</event>
<event>
 7    1  0.3449603E-013  0.5930166E+02  0.7816164E-02  0.1266606E+00
        -11   -1    0    0    0    0  0.00000000000E+00  0.00000000000E+00  0.45593999997E+02  0.45594000000E+02  0.51100000000E-03 0.  1.
         11   -1    0    0    0    0 -0.00000000000E+00 -0.00000000000E+00 -0.45593999997E+02  0.45594000000E+02  0.51100000000E-03 0. -1.
    9900012    2    1    2    0    0  0.12969120739E+02 -0.16036140804E+02  0.24318365001E+02  0.59301658395E+02  0.49999479072E+02 0.  0.
         12    1    1    2    0    0 -0.12969120739E+02  0.16036140804E+02 -0.24318365001E+02  0.31886341605E+02  0.00000000000E+00 0. -1.
         11    1    3    3    0    0 -0.79775080490E+01 -0.11771572118E+02  0.28437609838E+02  0.31794782565E+02  0.51100000000E-03 0. -1.
        -11    1    3    3    0    0  0.58456074364E+01 -0.78582729037E+01 -0.65675887021E+01  0.11792234773E+02  0.51100000000E-03 0.  1.
        -12    1    3    3    0    0  0.15101021352E+02  0.35937042174E+01  0.24483438655E+01  0.15714641057E+02  0.00000000000E+00 0.  1.
</event>
<event>
 7    1  0.3449603E-013  0.5930195E+02  0.7816164E-02  0.1266605E+00
        -11   -1    0    0    0    0  0.00000000000E+00  0.00000000000E+00  0.45593999997E+02  0.45594000000E+02  0.51100000000E-03 0.  1.
         11   -1    0    0    0    0 -0.00000000000E+00 -0.00000000000E+00 -0.45593999997E+02  0.45594000000E+02  0.51100000000E-03 0. -1.
    9900012    2    1    2    0    0  0.11013634218E+02 -0.22185162153E+02  0.20080807961E+02  0.59301946515E+02  0.50000004537E+02 0.  0.
         12    1    1    2    0    0 -0.11013634218E+02  0.22185162153E+02 -0.20080807961E+02  0.31886053485E+02  0.00000000000E+00 0. -1.
         11    1    3    3    0    0  0.40782700701E+01 -0.21180233931E+01  0.24759563176E+01  0.52200258434E+01  0.51100000000E-03 0. -1.
        -11    1    3    3    0    0  0.17880165493E+02 -0.25246936945E+02  0.25102261262E+02  0.39840076103E+02  0.51100000000E-03 0.  1.
         12    1    3    3    0    0 -0.10944801345E+02  0.51797981849E+01 -0.74974096185E+01  0.14241844568E+02  0.00000000000E+00 0. -1.
</event>
<event>
 7    1  0.3505463E-013  0.5930195E+02  0.7816164E-02  0.1266605E+00
        -11   -1    0    0    0    0  0.00000000000E+00  0.00000000000E+00  0.45593999997E+02  0.45594000000E+02  0.51100000000E-03 0.  1.
         11   -1    0    0    0    0 -0.00000000000E+00 -0.00000000000E+00 -0.45593999997E+02  0.45594000000E+02  0.51100000000E-03 0. -1.
    9900012    2    1    2    0    0 -0.23845011771E+02 -0.20333996169E+02  0.58876450059E+01  0.59301947402E+02  0.50000006155E+02 0.  0.
         12    1    1    2    0    0  0.23845011771E+02  0.20333996169E+02 -0.58876450059E+01  0.31886052598E+02  0.00000000000E+00 0. -1.
         11    1    3    3    0    0  0.21612137150E+01 -0.17283211476E+02 -0.65906281753E+01  0.18623013281E+02  0.51100000000E-03 0. -1.
        -11    1    3    3    0    0 -0.10145139328E+02 -0.14904205757E+02  0.10285487181E+02  0.20756937347E+02  0.51100000000E-03 0.  1.
         12    1    3    3    0    0 -0.15861086158E+02  0.11853421064E+02  0.21927860001E+01  0.19921996775E+02  0.00000000000E+00 0. -1.
</event>
<event>
 7    1  0.3449603E-013  0.5930196E+02  0.7816164E-02  0.1266605E+00
        -11   -1    0    0    0    0  0.00000000000E+00  0.00000000000E+00  0.45593999997E+02  0.45594000000E+02  0.51100000000E-03 0. -1.
         11   -1    0    0    0    0 -0.00000000000E+00 -0.00000000000E+00 -0.45593999997E+02  0.45594000000E+02  0.51100000000E-03 0.  1.
    9900012    2    1    2    0    0  0.64497200111E+01 -0.29796655962E+02 -0.93423766784E+01  0.59301959219E+02  0.50000027704E+02 0.  0.
         12    1    1    2    0    0 -0.64497200111E+01  0.29796655962E+02  0.93423766784E+01  0.31886040781E+02  0.00000000000E+00 0. -1.
         11    1    3    3    0    0  0.56537257227E+01 -0.25817543817E+02  0.78484924589E+01  0.27570074672E+02  0.51100000000E-03 0. -1.
        -11    1    3    3    0    0 -0.33886702140E+01 -0.86574905388E+01  0.36336831672E+01  0.99819277632E+01  0.51100000000E-03 0.  1.
         12    1    3    3    0    0  0.41846645024E+01  0.46783783940E+01 -0.20824552305E+02  0.21749956783E+02  0.00000000000E+00 0. -1.
</event>
<event>
 7    1  0.3449603E-013  0.5930186E+02  0.7816164E-02  0.1266605E+00
        -11   -1    0    0    0    0  0.00000000000E+00  0.00000000000E+00  0.45593999997E+02  0.45594000000E+02  0.51100000000E-03 0.  1.
         11   -1    0    0    0    0 -0.00000000000E+00 -0.00000000000E+00 -0.45593999997E+02  0.45594000000E+02  0.51100000000E-03 0. -1.
    9900012    2    1    2    0    0 -0.89792897988E+01 -0.38606712305E+00  0.30593289397E+02  0.59301858038E+02  0.49999843174E+02 0.  0.
         12    1    1    2    0    0  0.89792897988E+01  0.38606712305E+00 -0.30593289397E+02  0.31886141962E+02  0.00000000000E+00 0. -1.
         11    1    3    3    0    0  0.19945543824E+01 -0.98918996822E+01  0.48247800086E-01  0.10091097791E+02  0.51100000000E-03 0. -1.
        -11    1    3    3    0    0 -0.60572277723E+01 -0.86981887856E+00 -0.73793027689E+01  0.95864854239E+01  0.51100000000E-03 0.  1.
        -12    1    3    3    0    0 -0.49166164089E+01  0.10375651438E+02  0.37924344366E+02  0.39624274823E+02  0.00000000000E+00 0.  1.
</event>
<event>
 7    1  0.3449603E-013  0.5930199E+02  0.7816164E-02  0.1266605E+00
        -11   -1    0    0    0    0  0.00000000000E+00  0.00000000000E+00  0.45593999997E+02  0.45594000000E+02  0.51100000000E-03 0.  1.
         11   -1    0    0    0    0 -0.00000000000E+00 -0.00000000000E+00 -0.45593999997E+02  0.45594000000E+02  0.51100000000E-03 0. -1.
    9900012    2    1    2    0    0  0.72809205798E+01  0.21462734305E+02  0.22428936006E+02  0.59301985218E+02  0.50000075120E+02 0.  0.
         12    1    1    2    0    0 -0.72809205798E+01 -0.21462734305E+02 -0.22428936006E+02  0.31886014782E+02  0.00000000000E+00 0. -1.
         11    1    3    3    0    0  0.12339719217E+01  0.18712842237E+02  0.42308161358E+01  0.19224800564E+02  0.51100000000E-03 0. -1.
        -11    1    3    3    0    0  0.20314390795E+02  0.50457414389E+01  0.80842759303E+01  0.22438571649E+02  0.51100000000E-03 0.  1.
         12    1    3    3    0    0 -0.14267442137E+02 -0.22958493714E+01  0.10113843940E+02  0.17638613005E+02  0.00000000000E+00 0. -1.
</event>
<event>
 7    1  0.3449603E-013  0.5930195E+02  0.7816164E-02  0.1266605E+00
        -11   -1    0    0    0    0  0.00000000000E+00  0.00000000000E+00  0.45593999997E+02  0.45594000000E+02  0.51100000000E-03 0.  1.
         11   -1    0    0    0    0 -0.00000000000E+00 -0.00000000000E+00 -0.45593999997E+02  0.45594000000E+02  0.51100000000E-03 0. -1.
    9900012    2    1    2    0    0 -0.12855700511E+02 -0.74385454645E+00  0.29170157576E+02  0.59301945866E+02  0.50000003352E+02 0.  0.
         12    1    1    2    0    0  0.12855700511E+02  0.74385454645E+00 -0.29170157576E+02  0.31886054134E+02  0.00000000000E+00 0. -1.
         11    1    3    3    0    0  0.16651562797E+01 -0.52694630890E+01 -0.75109655535E+01  0.93249445301E+01  0.51100000000E-03 0. -1.
        -11    1    3    3    0    0  0.84560120050E+01  0.10794132961E+01  0.29543565531E+01  0.90220560293E+01  0.51100000000E-03 0.  1.
        -12    1    3    3    0    0 -0.22976868796E+02  0.34461952464E+01  0.33726766577E+02  0.40954945306E+02  0.00000000000E+00 0.  1.
</event>
<event>
 7    1  0.3449603E-013  0.5930192E+02  0.7816164E-02  0.1266605E+00
        -11   -1    0    0    0    0  0.00000000000E+00  0.00000000000E+00  0.45593999997E+02  0.45594000000E+02  0.51100000000E-03 0.  1.
         11   -1    0    0    0    0 -0.00000000000E+00 -0.00000000000E+00 -0.45593999997E+02  0.45594000000E+02  0.51100000000E-03 0. -1.
    9900012    2    1    2    0    0  0.29550119532E+02 -0.10253977031E+02  0.61942265100E+01  0.59301920728E+02  0.49999957507E+02 0.  0.
         12    1    1    2    0    0 -0.29550119532E+02  0.10253977031E+02 -0.61942265100E+01  0.31886079272E+02  0.00000000000E+00 0. -1.
         11    1    3    3    0    0  0.22434576065E+02 -0.81754466653E+01 -0.11171863388E+01  0.23903895853E+02  0.51100000000E-03 0. -1.
        -11    1    3    3    0    0  0.17291730638E+02 -0.11498327460E+02  0.41877623310E+01  0.21183787112E+02  0.51100000000E-03 0.  1.
         12    1    3    3    0    0 -0.10176187170E+02  0.94197970938E+01  0.31236505178E+01  0.14214237763E+02  0.00000000000E+00 0. -1.
</event>
<event>
 7    1  0.3449603E-013  0.5930184E+02  0.7816164E-02  0.1266605E+00
        -11   -1    0    0    0    0  0.00000000000E+00  0.00000000000E+00  0.45593999997E+02  0.45594000000E+02  0.51100000000E-03 0.  1.
         11   -1    0    0    0    0 -0.00000000000E+00 -0.00000000000E+00 -0.45593999997E+02  0.45594000000E+02  0.51100000000E-03 0. -1.
    9900012    2    1    2    0    0  0.16652680648E+02 -0.84725929776E+01  0.25838551452E+02  0.59301837708E+02  0.49999806099E+02 0.  0.
         12    1    1    2    0    0 -0.16652680648E+02  0.84725929776E+01 -0.25838551452E+02  0.31886162292E+02  0.00000000000E+00 0. -1.
         11    1    3    3    0    0 -0.54794034690E+01 -0.85569249309E+01  0.42308574570E+01  0.11006588106E+02  0.51100000000E-03 0. -1.
        -11    1    3    3    0    0 -0.59391350197E-01 -0.14571116979E+02  0.91654366299E+00  0.14600035270E+02  0.51100000000E-03 0.  1.
         12    1    3    3    0    0  0.22191475467E+02  0.14655448932E+02  0.20691150332E+02  0.33695214332E+02  0.00000000000E+00 0. -1.
</event>
<event>
 7    1  0.3449603E-013  0.5930206E+02  0.7816164E-02  0.1266604E+00
        -11   -1    0    0    0    0  0.00000000000E+00  0.00000000000E+00  0.45593999997E+02  0.45594000000E+02  0.51100000000E-03 0.  1.
         11   -1    0    0    0    0 -0.00000000000E+00 -0.00000000000E+00 -0.45593999997E+02  0.45594000000E+02  0.51100000000E-03 0. -1.
    9900012    2    1    2    0    0  0.27807025168E+02  0.10250597733E+02  0.11764695820E+02  0.59302055286E+02  0.50000202907E+02 0.  0.
         12    1    1    2    0    0 -0.27807025168E+02 -0.10250597733E+02 -0.11764695820E+02  0.31885944714E+02  0.00000000000E+00 0. -1.
         11    1    3    3    0    0 -0.74512826106E+01  0.16849289734E+02  0.95393264765E+01  0.20746540120E+02  0.51100000000E-03 0. -1.
        -11    1    3    3    0    0  0.51728437084E+01  0.21919016334E+01 -0.36039007487E+01  0.66746419881E+01  0.51100000000E-03 0.  1.
        -12    1    3    3    0    0  0.30085464070E+02 -0.87905936335E+01  0.58292700924E+01  0.31880873178E+02  0.00000000000E+00 0.  1.
</event>
<event>
 7    1  0.3449603E-013  0.5930204E+02  0.7816164E-02  0.1266604E+00
        -11   -1    0    0    0    0  0.00000000000E+00  0.00000000000E+00  0.45593999997E+02  0.45594000000E+02  0.51100000000E-03 0. -1.
         11   -1    0    0    0    0 -0.00000000000E+00 -0.00000000000E+00 -0.45593999997E+02  0.45594000000E+02  0.51100000000E-03 0.  1.
    9900012    2    1    2    0    0 -0.17022777310E+02 -0.10713241062E+02 -0.24741989031E+02  0.59302039099E+02  0.50000173386E+02 0.  0.
         12    1    1    2    0    0  0.17022777310E+02  0.10713241062E+02  0.24741989031E+02  0.31885960901E+02  0.00000000000E+00 0. -1.
         11    1    3    3    0    0 -0.13457443057E+02 -0.16572126086E+02  0.27405445201E+01  0.21523213542E+02  0.51100000000E-03 0. -1.
        -11    1    3    3    0    0 -0.78639043452E+01  0.62946211311E+01 -0.11624480714E+00  0.10073567385E+02  0.51100000000E-03 0.  1.
        -12    1    3    3    0    0  0.42985700921E+01 -0.43573610675E+00 -0.27366288744E+02  0.27705258172E+02  0.00000000000E+00 0.  1.
</event>
<event>
 7    1  0.3449603E-013  0.5930193E+02  0.7816164E-02  0.1266605E+00
        -11   -1    0    0    0    0  0.00000000000E+00  0.00000000000E+00  0.45593999997E+02  0.45594000000E+02  0.51100000000E-03 0.  1.
         11   -1    0    0    0    0 -0.00000000000E+00 -0.00000000000E+00 -0.45593999997E+02  0.45594000000E+02  0.51100000000E-03 0. -1.
    9900012    2    1    2    0    0  0.23601763782E+02  0.13139556473E+02  0.16941966124E+02  0.59301930721E+02  0.49999975732E+02 0.  0.
         12    1    1    2    0    0 -0.23601763782E+02 -0.13139556473E+02 -0.16941966124E+02  0.31886069279E+02  0.00000000000E+00 0. -1.
         11    1    3    3    0    0 -0.15707287784E+01  0.18907868100E+02  0.18510049966E+01  0.19063076476E+02  0.51100000000E-03 0. -1.
        -11    1    3    3    0    0 -0.25695629680E+01  0.62275634800E+01  0.73077357167E+00  0.67763729988E+01  0.51100000000E-03 0.  1.
        -12    1    3    3    0    0  0.27742055528E+02 -0.11995875107E+02  0.14360187556E+02  0.33462481246E+02  0.00000000000E+00 0.  1.
</event>
<event>
 7    1  0.3449603E-013  0.5930193E+02  0.7816164E-02  0.1266605E+00
        -11   -1    0    0    0    0  0.00000000000E+00  0.00000000000E+00  0.45593999997E+02  0.45594000000E+02  0.51100000000E-03 0.  1.
         11   -1    0    0    0    0 -0.00000000000E+00 -0.00000000000E+00 -0.45593999997E+02  0.45594000000E+02  0.51100000000E-03 0. -1.
    9900012    2    1    2    0    0  0.12398931002E+02 -0.30839483708E+01  0.29214330129E+02  0.59301932314E+02  0.49999978637E+02 0.  0.
         12    1    1    2    0    0 -0.12398931002E+02  0.30839483708E+01 -0.29214330129E+02  0.31886067686E+02  0.00000000000E+00 0. -1.
         11    1    3    3    0    0 -0.40938583809E+01 -0.15555297663E+02  0.11579697437E+02  0.19819595224E+02  0.51100000000E-03 0. -1.
        -11    1    3    3    0    0  0.26775688108E+01 -0.85027625831E+01  0.96294121837E+01  0.13122192101E+02  0.51100000000E-03 0.  1.
         12    1    3    3    0    0  0.13815220573E+02  0.20974111876E+02  0.80052205091E+01  0.26360144989E+02  0.00000000000E+00 0. -1.
</event>
<event>
 7    1  0.3449603E-013  0.5930194E+02  0.7816164E-02  0.1266605E+00
        -11   -1    0    0    0    0  0.00000000000E+00  0.00000000000E+00  0.45593999997E+02  0.45594000000E+02  0.51100000000E-03 0. -1.
         11   -1    0    0    0    0 -0.00000000000E+00 -0.00000000000E+00 -0.45593999997E+02  0.45594000000E+02  0.51100000000E-03 0.  1.
    9900012    2    1    2    0    0  0.41257058535E+01 -0.19146424104E+02 -0.25161752329E+02  0.59301940585E+02  0.49999993721E+02 0.  0.
         12    1    1    2    0    0 -0.41257058535E+01  0.19146424104E+02  0.25161752329E+02  0.31886059415E+02  0.00000000000E+00 0. -1.
         11    1    3    3    0    0 -0.47000414650E+00 -0.53206936245E+01  0.86168501695E+00  0.54104700233E+01  0.51100000000E-03 0. -1.
        -11    1    3    3    0    0 -0.23701828927E+01 -0.38765115259E+01  0.12604867221E+02  0.13398797949E+02  0.51100000000E-03 0.  1.
        -12    1    3    3    0    0  0.69658928927E+01 -0.99492189538E+01 -0.38628304567E+02  0.40492672613E+02  0.00000000000E+00 0.  1.
</event>
<event>
 7    1  0.3449603E-013  0.5930195E+02  0.7816164E-02  0.1266605E+00
        -11   -1    0    0    0    0  0.00000000000E+00  0.00000000000E+00  0.45593999997E+02  0.45594000000E+02  0.51100000000E-03 0.  1.
         11   -1    0    0    0    0 -0.00000000000E+00 -0.00000000000E+00 -0.45593999997E+02  0.45594000000E+02  0.51100000000E-03 0. -1.
    9900012    2    1    2    0    0  0.10073868780E+02 -0.23595303569E+01  0.30160736091E+02  0.59301949488E+02  0.50000009958E+02 0.  0.
         12    1    1    2    0    0 -0.10073868780E+02  0.23595303569E+01 -0.30160736091E+02  0.31886050512E+02  0.00000000000E+00 0. -1.
         11    1    3    3    0    0  0.84633006884E+01 -0.73056971298E+01  0.12920773468E+02  0.17086458274E+02  0.51100000000E-03 0. -1.
        -11    1    3    3    0    0  0.94169691913E+01 -0.56871348094E+01 -0.80907430699E+01  0.13655875467E+02  0.51100000000E-03 0.  1.
        -12    1    3    3    0    0 -0.78064010993E+01  0.10633301582E+02  0.25330705693E+02  0.28559615746E+02  0.00000000000E+00 0.  1.
</event>
<event>
 7    1  0.3449603E-013  0.5930195E+02  0.7816164E-02  0.1266605E+00
        -11   -1    0    0    0    0  0.00000000000E+00  0.00000000000E+00  0.45593999997E+02  0.45594000000E+02  0.51100000000E-03 0.  1.
         11   -1    0    0    0    0 -0.00000000000E+00 -0.00000000000E+00 -0.45593999997E+02  0.45594000000E+02  0.51100000000E-03 0. -1.
    9900012    2    1    2    0    0  0.11887919611E+02 -0.22174464655E+02  0.19588023727E+02  0.59301949932E+02  0.50000010768E+02 0.  0.
         12    1    1    2    0    0 -0.11887919611E+02  0.22174464655E+02 -0.19588023727E+02  0.31886050068E+02  0.00000000000E+00 0. -1.
         11    1    3    3    0    0  0.14729501837E+02  0.13595152971E+01  0.13757994113E+02  0.20201210569E+02  0.51100000000E-03 0. -1.
        -11    1    3    3    0    0 -0.87046536318E+01 -0.13885076746E+01  0.12450363301E+02  0.15254851523E+02  0.51100000000E-03 0.  1.
         12    1    3    3    0    0  0.58630714062E+01 -0.22145472278E+02 -0.66203336871E+01  0.23845887839E+02  0.00000000000E+00 0. -1.
</event>
<event>
 7    1  0.3449603E-013  0.5930196E+02  0.7816164E-02  0.1266605E+00
        -11   -1    0    0    0    0  0.00000000000E+00  0.00000000000E+00  0.45593999997E+02  0.45594000000E+02  0.51100000000E-03 0.  1.
         11   -1    0    0    0    0 -0.00000000000E+00 -0.00000000000E+00 -0.45593999997E+02  0.45594000000E+02  0.51100000000E-03 0. -1.
    9900012    2    1    2    0    0 -0.28575935060E+02  0.13922858861E+02 -0.25079377673E+01  0.59301955791E+02  0.50000021454E+02 0.  0.
         12    1    1    2    0    0  0.28575935060E+02 -0.13922858861E+02  0.25079377673E+01  0.31886044209E+02  0.00000000000E+00 0. -1.
         11    1    3    3    0    0  0.48847065654E+01  0.42349491011E+00  0.11064989225E-01  0.49030428169E+01  0.51100000000E-03 0. -1.
        -11    1    3    3    0    0 -0.10576277725E+02 -0.51488981507E+01  0.15768788458E+02  0.19672912656E+02  0.51100000000E-03 0.  1.
         12    1    3    3    0    0 -0.22884363901E+02  0.18648262102E+02 -0.18287791215E+02  0.34726000318E+02  0.00000000000E+00 0. -1.
</event>
<event>
 7    1  0.3449603E-013  0.5930193E+02  0.7816164E-02  0.1266605E+00
        -11   -1    0    0    0    0  0.00000000000E+00  0.00000000000E+00  0.45593999997E+02  0.45594000000E+02  0.51100000000E-03 0. -1.
         11   -1    0    0    0    0 -0.00000000000E+00 -0.00000000000E+00 -0.45593999997E+02  0.45594000000E+02  0.51100000000E-03 0.  1.
    9900012    2    1    2    0    0  0.80040359259E+01 -0.30526464314E+02 -0.45598004996E+01  0.59301931017E+02  0.49999976271E+02 0.  0.
         12    1    1    2    0    0 -0.80040359259E+01  0.30526464314E+02  0.45598004996E+01  0.31886068983E+02  0.00000000000E+00 0. -1.
         11    1    3    3    0    0  0.53316916178E+01  0.46545796671E+00  0.75138717057E+01  0.92250666608E+01  0.51100000000E-03 0. -1.
        -11    1    3    3    0    0  0.13986408617E+02 -0.14587661933E+01  0.39728563929E+01  0.14612707243E+02  0.51100000000E-03 0.  1.
        -12    1    3    3    0    0 -0.11314064308E+02 -0.29533156087E+02 -0.16046528598E+02  0.35464157113E+02  0.00000000000E+00 0.  1.
</event>
<event>
 7    1  0.3449603E-013  0.5930195E+02  0.7816164E-02  0.1266605E+00
        -11   -1    0    0    0    0  0.00000000000E+00  0.00000000000E+00  0.45593999997E+02  0.45594000000E+02  0.51100000000E-03 0.  1.
         11   -1    0    0    0    0 -0.00000000000E+00 -0.00000000000E+00 -0.45593999997E+02  0.45594000000E+02  0.51100000000E-03 0. -1.
    9900012    2    1    2    0    0 -0.14991585041E+02 -0.26989003820E+02 -0.79728461163E+01  0.59301949375E+02  0.50000009752E+02 0.  0.
         12    1    1    2    0    0  0.14991585041E+02  0.26989003820E+02  0.79728461163E+01  0.31886050625E+02  0.00000000000E+00 0. -1.
         11    1    3    3    0    0 -0.11852437268E+02  0.65567772491E+01 -0.10142333660E+02  0.16921540397E+02  0.51100000000E-03 0. -1.
        -11    1    3    3    0    0 -0.85968005189E+01 -0.26077072237E+01 -0.48222250093E+01  0.10196027188E+02  0.51100000000E-03 0.  1.
        -12    1    3    3    0    0  0.54576527451E+01 -0.30938073846E+02  0.69917125526E+01  0.32184381790E+02  0.00000000000E+00 0.  1.
</event>
<event>
 7    1  0.3449603E-013  0.5930194E+02  0.7816164E-02  0.1266605E+00
        -11   -1    0    0    0    0  0.00000000000E+00  0.00000000000E+00  0.45593999997E+02  0.45594000000E+02  0.51100000000E-03 0. -1.
         11   -1    0    0    0    0 -0.00000000000E+00 -0.00000000000E+00 -0.45593999997E+02  0.45594000000E+02  0.51100000000E-03 0.  1.
    9900012    2    1    2    0    0  0.28756545288E+02 -0.12052070814E+02  0.66730226302E+01  0.59301944446E+02  0.50000000763E+02 0.  0.
         12    1    1    2    0    0 -0.28756545288E+02  0.12052070814E+02 -0.66730226302E+01  0.31886055554E+02  0.00000000000E+00 0. -1.
         11    1    3    3    0    0  0.23315985812E+02  0.13808662992E+02  0.11969183877E+02  0.29623904722E+02  0.51100000000E-03 0. -1.
        -11    1    3    3    0    0  0.73367884041E+00 -0.25511053375E+00 -0.34959780573E+01  0.35812328692E+01  0.51100000000E-03 0.  1.
        -12    1    3    3    0    0  0.47068806350E+01 -0.25605623273E+02 -0.18001831897E+01  0.26096806855E+02  0.00000000000E+00 0.  1.
</event>
<event>
 7    1  0.3449603E-013  0.5930196E+02  0.7816164E-02  0.1266605E+00
        -11   -1    0    0    0    0  0.00000000000E+00  0.00000000000E+00  0.45593999997E+02  0.45594000000E+02  0.51100000000E-03 0.  1.
         11   -1    0    0    0    0 -0.00000000000E+00 -0.00000000000E+00 -0.45593999997E+02  0.45594000000E+02  0.51100000000E-03 0. -1.
    9900012    2    1    2    0    0 -0.15557850460E+02  0.26830460994E+02  0.74026411199E+01  0.59301961619E+02  0.50000032081E+02 0.  0.
         12    1    1    2    0    0  0.15557850460E+02 -0.26830460994E+02 -0.74026411199E+01  0.31886038381E+02  0.00000000000E+00 0. -1.
         11    1    3    3    0    0 -0.64800382602E+01 -0.10001097424E+02 -0.70548955417E+01  0.13848624369E+02  0.51100000000E-03 0. -1.
        -11    1    3    3    0    0  0.17320643428E+01 -0.20749923642E+01  0.11414439392E+01  0.29340304576E+01  0.51100000000E-03 0.  1.
        -12    1    3    3    0    0 -0.10809876543E+02  0.38906550783E+02  0.13316092722E+02  0.42519306792E+02  0.00000000000E+00 0.  1.
</event>
<event>
 7    1  0.3449603E-013  0.5930193E+02  0.7816164E-02  0.1266605E+00
        -11   -1    0    0    0    0  0.00000000000E+00  0.00000000000E+00  0.45593999997E+02  0.45594000000E+02  0.51100000000E-03 0.  1.
         11   -1    0    0    0    0 -0.00000000000E+00 -0.00000000000E+00 -0.45593999997E+02  0.45594000000E+02  0.51100000000E-03 0. -1.
    9900012    2    1    2    0    0  0.92388491669E+01 -0.13944953489E+02  0.27145969833E+02  0.59301925612E+02  0.49999966414E+02 0.  0.
         12    1    1    2    0    0 -0.92388491669E+01  0.13944953489E+02 -0.27145969833E+02  0.31886074388E+02  0.00000000000E+00 0. -1.
         11    1    3    3    0    0  0.21011583577E+01  0.10678532846E+01 -0.11651644123E+01  0.26292176499E+01  0.51100000000E-03 0. -1.
        -11    1    3    3    0    0  0.24476565054E+02  0.10776246015E+01  0.88779420166E+01  0.26059189672E+02  0.51100000000E-03 0.  1.
        -12    1    3    3    0    0 -0.17338874245E+02 -0.16090431375E+02  0.19433192228E+02  0.30613518290E+02  0.00000000000E+00 0.  1.
</event>
<event>
 7    1  0.3449603E-013  0.5930195E+02  0.7816164E-02  0.1266605E+00
        -11   -1    0    0    0    0  0.00000000000E+00  0.00000000000E+00  0.45593999997E+02  0.45594000000E+02  0.51100000000E-03 0. -1.
         11   -1    0    0    0    0 -0.00000000000E+00 -0.00000000000E+00 -0.45593999997E+02  0.45594000000E+02  0.51100000000E-03 0.  1.
    9900012    2    1    2    0    0 -0.22632355450E+02 -0.21748087451E+02  0.56140359202E+01  0.59301949440E+02  0.50000009871E+02 0.  0.
         12    1    1    2    0    0  0.22632355450E+02  0.21748087451E+02 -0.56140359202E+01  0.31886050560E+02  0.00000000000E+00 0. -1.
         11    1    3    3    0    0  0.11304678646E+01 -0.21421992450E+02  0.68669252666E+01  0.22524084465E+02  0.51100000000E-03 0.  1.
        -11    1    3    3    0    0 -0.16230444787E+02 -0.57537049728E+01  0.11716385368E+02  0.20828013473E+02  0.51100000000E-03 0. -1.
        -12    1    3    3    0    0 -0.75323785282E+01  0.54276099720E+01 -0.12969274715E+02  0.15949851502E+02  0.00000000000E+00 0.  1.
</event>
<event>
 7    1  0.3449603E-013  0.5930201E+02  0.7816164E-02  0.1266605E+00
        -11   -1    0    0    0    0  0.00000000000E+00  0.00000000000E+00  0.45593999997E+02  0.45594000000E+02  0.51100000000E-03 0.  1.
         11   -1    0    0    0    0 -0.00000000000E+00 -0.00000000000E+00 -0.45593999997E+02  0.45594000000E+02  0.51100000000E-03 0. -1.
    9900012    2    1    2    0    0 -0.83387737082E+01 -0.39759687698E+01  0.30518401165E+02  0.59302011161E+02  0.50000122434E+02 0.  0.
         12    1    1    2    0    0  0.83387737082E+01  0.39759687698E+01 -0.30518401165E+02  0.31885988839E+02  0.00000000000E+00 0. -1.
         11    1    3    3    0    0 -0.20109478827E+02 -0.83133537909E+01  0.85076528339E+01  0.23364142332E+02  0.51100000000E-03 0. -1.
        -11    1    3    3    0    0  0.15533237299E+01  0.33674603893E+01  0.24979919911E+02  0.25253692861E+02  0.51100000000E-03 0.  1.
         12    1    3    3    0    0  0.10217381388E+02  0.96992463181E+00 -0.29691715805E+01  0.10684175967E+02  0.00000000000E+00 0. -1.
</event>
<event>
 7    1  0.3449603E-013  0.5930181E+02  0.7816164E-02  0.1266605E+00
        -11   -1    0    0    0    0  0.00000000000E+00  0.00000000000E+00  0.45593999997E+02  0.45594000000E+02  0.51100000000E-03 0.  1.
         11   -1    0    0    0    0 -0.00000000000E+00 -0.00000000000E+00 -0.45593999997E+02  0.45594000000E+02  0.51100000000E-03 0. -1.
    9900012    2    1    2    0    0 -0.37995430657E+01  0.16633106598E+02  0.26937568246E+02  0.59301806348E+02  0.49999748905E+02 0.  0.
         12    1    1    2    0    0  0.37995430657E+01 -0.16633106598E+02 -0.26937568246E+02  0.31886193652E+02  0.00000000000E+00 0. -1.
         11    1    3    3    0    0  0.47084800227E+01  0.84284038662E+01 -0.16981421146E+01  0.98026252992E+01  0.51100000000E-03 0. -1.
        -11    1    3    3    0    0  0.10646548718E+02  0.79888646640E+01 -0.19069505146E+01  0.13446464917E+02  0.51100000000E-03 0.  1.
        -12    1    3    3    0    0 -0.19154571806E+02  0.21583806766E+00  0.30542660875E+02  0.36052716132E+02  0.00000000000E+00 0.  1.
</event>
<event>
 7    1  0.3449603E-013  0.5930193E+02  0.7816164E-02  0.1266605E+00
        -11   -1    0    0    0    0  0.00000000000E+00  0.00000000000E+00  0.45593999997E+02  0.45594000000E+02  0.51100000000E-03 0.  1.
         11   -1    0    0    0    0 -0.00000000000E+00 -0.00000000000E+00 -0.45593999997E+02  0.45594000000E+02  0.51100000000E-03 0. -1.
    9900012    2    1    2    0    0  0.23098624907E+02 -0.82652262583E+01  0.20368132419E+02  0.59301933200E+02  0.49999980253E+02 0.  0.
         12    1    1    2    0    0 -0.23098624907E+02  0.82652262583E+01 -0.20368132419E+02  0.31886066800E+02  0.00000000000E+00 0. -1.
         11    1    3    3    0    0 -0.33326657550E+01 -0.58589455817E+01  0.17056449614E+02  0.18340021212E+02  0.51100000000E-03 0. -1.
        -11    1    3    3    0    0  0.18112588465E+01 -0.88475154991E+01  0.11135880187E+02  0.14337608480E+02  0.51100000000E-03 0.  1.
         12    1    3    3    0    0  0.24620031816E+02  0.64412348225E+01 -0.78241973818E+01  0.26624303509E+02  0.00000000000E+00 0. -1.
</event>
<event>
 7    1  0.3449603E-013  0.5930194E+02  0.7816164E-02  0.1266605E+00
        -11   -1    0    0    0    0  0.00000000000E+00  0.00000000000E+00  0.45593999997E+02  0.45594000000E+02  0.51100000000E-03 0.  1.
         11   -1    0    0    0    0 -0.00000000000E+00 -0.00000000000E+00 -0.45593999997E+02  0.45594000000E+02  0.51100000000E-03 0. -1.
    9900012    2    1    2    0    0  0.16854685066E+02 -0.71280865282E+00  0.27057947266E+02  0.59301936977E+02  0.49999987141E+02 0.  0.
         12    1    1    2    0    0 -0.16854685066E+02  0.71280865282E+00 -0.27057947266E+02  0.31886063023E+02  0.00000000000E+00 0. -1.
         11    1    3    3    0    0 -0.91683056525E+01 -0.10277494858E+02  0.73406871119E+01  0.15606742666E+02  0.51100000000E-03 0. -1.
        -11    1    3    3    0    0  0.55765667021E+01 -0.94542263835E+01  0.42274637598E+01  0.11762310266E+02  0.51100000000E-03 0.  1.
        -12    1    3    3    0    0  0.20446424017E+02  0.19018912589E+02  0.15489796394E+02  0.31932884045E+02  0.00000000000E+00 0.  1.
</event>
<event>
 7    1  0.3449603E-013  0.5930194E+02  0.7816164E-02  0.1266605E+00
        -11   -1    0    0    0    0  0.00000000000E+00  0.00000000000E+00  0.45593999997E+02  0.45594000000E+02  0.51100000000E-03 0. -1.
         11   -1    0    0    0    0 -0.00000000000E+00 -0.00000000000E+00 -0.45593999997E+02  0.45594000000E+02  0.51100000000E-03 0.  1.
    9900012    2    1    2    0    0 -0.26157717461E+02 -0.17191760378E+02  0.60776489793E+01  0.59301943098E+02  0.49999998305E+02 0.  0.
         12    1    1    2    0    0  0.26157717461E+02  0.17191760378E+02 -0.60776489793E+01  0.31886056902E+02  0.00000000000E+00 0. -1.
         11    1    3    3    0    0  0.82920135251E+01  0.10784732690E+01  0.86498501129E+01  0.12030814608E+02  0.51100000000E-03 0. -1.
        -11    1    3    3    0    0  0.17678562161E+00  0.41090134924E+01  0.37433256544E+01  0.55612707408E+01  0.51100000000E-03 0.  1.
        -12    1    3    3    0    0 -0.34626516607E+02 -0.22379247139E+02 -0.63155267880E+01  0.41709857749E+02  0.00000000000E+00 0.  1.
</event>
<event>
 7    1  0.3449603E-013  0.5930195E+02  0.7816164E-02  0.1266605E+00
        -11   -1    0    0    0    0  0.00000000000E+00  0.00000000000E+00  0.45593999997E+02  0.45594000000E+02  0.51100000000E-03 0.  1.
         11   -1    0    0    0    0 -0.00000000000E+00 -0.00000000000E+00 -0.45593999997E+02  0.45594000000E+02  0.51100000000E-03 0. -1.
    9900012    2    1    2    0    0 -0.20768972467E+02 -0.17292107400E+02  0.16921976835E+02  0.59301945122E+02  0.50000001995E+02 0.  0.
         12    1    1    2    0    0  0.20768972467E+02  0.17292107400E+02 -0.16921976835E+02  0.31886054878E+02  0.00000000000E+00 0. -1.
         11    1    3    3    0    0  0.73796335704E+01 -0.40416854318E+01  0.68799039672E+01  0.10868637984E+02  0.51100000000E-03 0. -1.
        -11    1    3    3    0    0 -0.24166259266E+01  0.91325046544E+01 -0.55249092576E+01  0.10943826785E+02  0.51100000000E-03 0.  1.
        -12    1    3    3    0    0 -0.25731980111E+02 -0.22382926623E+02  0.15566982126E+02  0.37489480353E+02  0.00000000000E+00 0.  1.
</event>
<event>
 7    1  0.3449603E-013  0.5930198E+02  0.7816164E-02  0.1266605E+00
        -11   -1    0    0    0    0  0.00000000000E+00  0.00000000000E+00  0.45593999997E+02  0.45594000000E+02  0.51100000000E-03 0. -1.
         11   -1    0    0    0    0 -0.00000000000E+00 -0.00000000000E+00 -0.45593999997E+02  0.45594000000E+02  0.51100000000E-03 0.  1.
    9900012    2    1    2    0    0  0.23245350952E+02 -0.21795544351E+02  0.11517241048E+01  0.59301975430E+02  0.50000057271E+02 0.  0.
         12    1    1    2    0    0 -0.23245350952E+02  0.21795544351E+02 -0.11517241048E+01  0.31886024570E+02  0.00000000000E+00 0. -1.
         11    1    3    3    0    0 -0.12730028612E+01  0.32990271156E+01 -0.65254146483E+01  0.74219372665E+01  0.51100000000E-03 0. -1.
        -11    1    3    3    0    0 -0.58101970620E+00 -0.15811523970E+02 -0.10978675474E+02  0.19258068168E+02  0.51100000000E-03 0.  1.
         12    1    3    3    0    0  0.25099373520E+02 -0.92830474970E+01  0.18655814228E+02  0.32621969996E+02  0.00000000000E+00 0. -1.
</event>
<event>
 7    1  0.3449603E-013  0.5930195E+02  0.7816164E-02  0.1266605E+00
        -11   -1    0    0    0    0  0.00000000000E+00  0.00000000000E+00  0.45593999997E+02  0.45594000000E+02  0.51100000000E-03 0.  1.
         11   -1    0    0    0    0 -0.00000000000E+00 -0.00000000000E+00 -0.45593999997E+02  0.45594000000E+02  0.51100000000E-03 0. -1.
    9900012    2    1    2    0    0  0.86271141160E+01 -0.13185903147E+02  0.27720477257E+02  0.59301952908E+02  0.50000016196E+02 0.  0.
         12    1    1    2    0    0 -0.86271141160E+01  0.13185903147E+02 -0.27720477257E+02  0.31886047092E+02  0.00000000000E+00 0. -1.
         11    1    3    3    0    0  0.14581583822E+02 -0.18180545472E+02 -0.39730365754E+01  0.23641908559E+02  0.51100000000E-03 0. -1.
        -11    1    3    3    0    0 -0.36102721182E+01 -0.42579355252E+01  0.57398534385E+01  0.80068718899E+01  0.51100000000E-03 0.  1.
        -12    1    3    3    0    0 -0.23441975881E+01  0.92525778498E+01  0.25953660394E+02  0.27653172459E+02  0.00000000000E+00 0.  1.
</event>
<event>
 7    1  0.3449603E-013  0.5930194E+02  0.7816164E-02  0.1266605E+00
        -11   -1    0    0    0    0  0.00000000000E+00  0.00000000000E+00  0.45593999997E+02  0.45594000000E+02  0.51100000000E-03 0.  1.
         11   -1    0    0    0    0 -0.00000000000E+00 -0.00000000000E+00 -0.45593999997E+02  0.45594000000E+02  0.51100000000E-03 0. -1.
    9900012    2    1    2    0    0  0.14990131863E+02  0.28138996967E+02 -0.46238005598E+00  0.59301937232E+02  0.49999987606E+02 0.  0.
         12    1    1    2    0    0 -0.14990131863E+02 -0.28138996967E+02  0.46238005598E+00  0.31886062768E+02  0.00000000000E+00 0. -1.
         11    1    3    3    0    0  0.49358172493E+01 -0.75802962383E+01 -0.14212307374E+02  0.16846746396E+02  0.51100000000E-03 0. -1.
        -11    1    3    3    0    0  0.37217537193E+01  0.17946580676E+02 -0.12222915018E+01  0.18369137309E+02  0.51100000000E-03 0.  1.
        -12    1    3    3    0    0  0.63325608940E+01  0.17772712529E+02  0.14972218819E+02  0.24086053527E+02  0.00000000000E+00 0.  1.
</event>
<event>
 7    1  0.3449603E-013  0.5930194E+02  0.7816164E-02  0.1266605E+00
        -11   -1    0    0    0    0  0.00000000000E+00  0.00000000000E+00  0.45593999997E+02  0.45594000000E+02  0.51100000000E-03 0. -1.
         11   -1    0    0    0    0 -0.00000000000E+00 -0.00000000000E+00 -0.45593999997E+02  0.45594000000E+02  0.51100000000E-03 0.  1.
    9900012    2    1    2    0    0  0.30279149735E+02  0.89795381110E+01 -0.43888631080E+01  0.59301935133E+02  0.49999983778E+02 0.  0.
         12    1    1    2    0    0 -0.30279149735E+02 -0.89795381110E+01  0.43888631080E+01  0.31886064867E+02  0.00000000000E+00 0. -1.
         11    1    3    3    0    0  0.20883411062E+02 -0.89744121214E+01 -0.54871205439E+00  0.22736710750E+02  0.51100000000E-03 0. -1.
        -11    1    3    3    0    0  0.77326978607E+01 -0.39900592623E+01  0.77857124921E+01  0.11676151266E+02  0.51100000000E-03 0.  1.
         12    1    3    3    0    0  0.16630408114E+01  0.21944009495E+02 -0.11625863546E+02  0.24889073117E+02  0.00000000000E+00 0. -1.
</event>
<event>
 7    1  0.3449603E-013  0.5930195E+02  0.7816164E-02  0.1266605E+00
        -11   -1    0    0    0    0  0.00000000000E+00  0.00000000000E+00  0.45593999997E+02  0.45594000000E+02  0.51100000000E-03 0.  1.
         11   -1    0    0    0    0 -0.00000000000E+00 -0.00000000000E+00 -0.45593999997E+02  0.45594000000E+02  0.51100000000E-03 0. -1.
    9900012    2    1    2    0    0 -0.13231292711E+02 -0.55649010569E+01  0.28472533477E+02  0.59301946729E+02  0.50000004927E+02 0.  0.
         12    1    1    2    0    0  0.13231292711E+02  0.55649010569E+01 -0.28472533477E+02  0.31886053271E+02  0.00000000000E+00 0. -1.
         11    1    3    3    0    0 -0.10566200980E+02 -0.71920567229E+01  0.14135189930E+01  0.12859561394E+02  0.51100000000E-03 0. -1.
        -11    1    3    3    0    0 -0.11662000992E+02 -0.25595584019E+01  0.32850282667E+02  0.34952749218E+02  0.51100000000E-03 0.  1.
         12    1    3    3    0    0  0.89969092605E+01  0.41867140679E+01 -0.57912681831E+01  0.11489636117E+02  0.00000000000E+00 0. -1.
</event>
<event>
 7    1  0.3449603E-013  0.5930193E+02  0.7816164E-02  0.1266605E+00
        -11   -1    0    0    0    0  0.00000000000E+00  0.00000000000E+00  0.45593999997E+02  0.45594000000E+02  0.51100000000E-03 0. -1.
         11   -1    0    0    0    0 -0.00000000000E+00 -0.00000000000E+00 -0.45593999997E+02  0.45594000000E+02  0.51100000000E-03 0.  1.
    9900012    2    1    2    0    0  0.21188203653E+02  0.15048601641E+02 -0.18474872557E+02  0.59301932487E+02  0.49999978953E+02 0.  0.
         12    1    1    2    0    0 -0.21188203653E+02 -0.15048601641E+02  0.18474872557E+02  0.31886067513E+02  0.00000000000E+00 0. -1.
         11    1    3    3    0    0 -0.22237356645E+01  0.20509939693E+00 -0.26267877035E+02  0.26362633220E+02  0.51100000000E-03 0. -1.
        -11    1    3    3    0    0 -0.17943443673E+01  0.19624652068E+00 -0.14936314205E+01  0.23428869983E+01  0.51100000000E-03 0.  1.
        -12    1    3    3    0    0  0.25206283685E+02  0.14647255723E+02  0.92866358984E+01  0.30596412269E+02  0.00000000000E+00 0.  1.
</event>
<event>
 7    1  0.3449603E-013  0.5930196E+02  0.7816164E-02  0.1266605E+00
        -11   -1    0    0    0    0  0.00000000000E+00  0.00000000000E+00  0.45593999997E+02  0.45594000000E+02  0.51100000000E-03 0. -1.
         11   -1    0    0    0    0 -0.00000000000E+00 -0.00000000000E+00 -0.45593999997E+02  0.45594000000E+02  0.51100000000E-03 0.  1.
    9900012    2    1    2    0    0  0.23782956346E+02  0.15734508520E+02 -0.14265896902E+02  0.59301959397E+02  0.50000028030E+02 0.  0.
         12    1    1    2    0    0 -0.23782956346E+02 -0.15734508520E+02  0.14265896902E+02  0.31886040603E+02  0.00000000000E+00 0. -1.
         11    1    3    3    0    0 -0.10542116540E+02  0.10819160517E+02 -0.62769590624E+00  0.15119009817E+02  0.51100000000E-03 0. -1.
        -11    1    3    3    0    0  0.12779638795E+02  0.13575836888E+02 -0.41658381038E+01  0.19104363960E+02  0.51100000000E-03 0.  1.
         12    1    3    3    0    0  0.21545434092E+02 -0.86604888849E+01 -0.94723628917E+01  0.25078585620E+02  0.00000000000E+00 0. -1.
</event>
<event>
 7    1  0.4959329E-013  0.5930194E+02  0.7816164E-02  0.1266605E+00
        -11   -1    0    0    0    0  0.00000000000E+00  0.00000000000E+00  0.45593999997E+02  0.45594000000E+02  0.51100000000E-03 0. -1.
         11   -1    0    0    0    0 -0.00000000000E+00 -0.00000000000E+00 -0.45593999997E+02  0.45594000000E+02  0.51100000000E-03 0.  1.
    9900012    2    1    2    0    0 -0.25378503206E+02  0.97324743569E+01 -0.16671268149E+02  0.59301942486E+02  0.49999997188E+02 0.  0.
         12    1    1    2    0    0  0.25378503206E+02 -0.97324743569E+01  0.16671268149E+02  0.31886057514E+02  0.00000000000E+00 0. -1.
         11    1    3    3    0    0 -0.17496040876E+02  0.12088878854E+02 -0.41106575281E+01  0.21659869433E+02  0.51100000000E-03 0.  1.
        -11    1    3    3    0    0 -0.15541861947E+02 -0.81175911151E+01 -0.19185579604E+02  0.25990983500E+02  0.51100000000E-03 0. -1.
         12    1    3    3    0    0  0.76593996167E+01  0.57611866179E+01  0.66249689834E+01  0.11651089553E+02  0.00000000000E+00 0. -1.
</event>
<event>
 7    1  0.3449603E-013  0.5930196E+02  0.7816164E-02  0.1266605E+00
        -11   -1    0    0    0    0  0.00000000000E+00  0.00000000000E+00  0.45593999997E+02  0.45594000000E+02  0.51100000000E-03 0. -1.
         11   -1    0    0    0    0 -0.00000000000E+00 -0.00000000000E+00 -0.45593999997E+02  0.45594000000E+02  0.51100000000E-03 0.  1.
    9900012    2    1    2    0    0  0.36038022155E+01  0.31590113371E+02  0.24077124844E+01  0.59301957088E+02  0.50000023818E+02 0.  0.
         12    1    1    2    0    0 -0.36038022155E+01 -0.31590113371E+02 -0.24077124844E+01  0.31886042912E+02  0.00000000000E+00 0. -1.
         11    1    3    3    0    0 -0.73551670627E+01  0.33076066547E+01 -0.52259600815E+01  0.96098596939E+01  0.51100000000E-03 0. -1.
        -11    1    3    3    0    0  0.65640139833E+01  0.20075975344E+02 -0.14540614799E+02  0.25642943368E+02  0.51100000000E-03 0.  1.
         12    1    3    3    0    0  0.43949552950E+01  0.82065313725E+01  0.22174287365E+02  0.24049154026E+02  0.00000000000E+00 0. -1.
</event>
<event>
 7    1  0.3449603E-013  0.5930196E+02  0.7816164E-02  0.1266605E+00
        -11   -1    0    0    0    0  0.00000000000E+00  0.00000000000E+00  0.45593999997E+02  0.45594000000E+02  0.51100000000E-03 0.  1.
         11   -1    0    0    0    0 -0.00000000000E+00 -0.00000000000E+00 -0.45593999997E+02  0.45594000000E+02  0.51100000000E-03 0. -1.
    9900012    2    1    2    0    0 -0.12711713256E+02 -0.16310830198E+02  0.24271153216E+02  0.59301957378E+02  0.50000024348E+02 0.  0.
         12    1    1    2    0    0  0.12711713256E+02  0.16310830198E+02 -0.24271153216E+02  0.31886042622E+02  0.00000000000E+00 0. -1.
         11    1    3    3    0    0  0.10441760484E+02 -0.12736208290E+02 -0.21637919315E+01  0.16610940954E+02  0.51100000000E-03 0. -1.
        -11    1    3    3    0    0  0.20437629689E+01 -0.68370358449E+01  0.10515378183E+02  0.12708076361E+02  0.51100000000E-03 0.  1.
        -12    1    3    3    0    0 -0.25197236709E+02  0.32624139367E+01  0.15919566965E+02  0.29982940063E+02  0.00000000000E+00 0.  1.
</event>
<event>
 7    1  0.3449603E-013  0.5930192E+02  0.7816164E-02  0.1266605E+00
        -11   -1    0    0    0    0  0.00000000000E+00  0.00000000000E+00  0.45593999997E+02  0.45594000000E+02  0.51100000000E-03 0.  1.
         11   -1    0    0    0    0 -0.00000000000E+00 -0.00000000000E+00 -0.45593999997E+02  0.45594000000E+02  0.51100000000E-03 0. -1.
    9900012    2    1    2    0    0 -0.30018813659E+02 -0.16698578864E+01  0.10620936687E+02  0.59301923180E+02  0.49999961979E+02 0.  0.
         12    1    1    2    0    0  0.30018813659E+02  0.16698578864E+01 -0.10620936687E+02  0.31886076820E+02  0.00000000000E+00 0. -1.
         11    1    3    3    0    0  0.22907773775E+01  0.13133071258E+01 -0.33750718591E+01  0.42852709267E+01  0.51100000000E-03 0. -1.
        -11    1    3    3    0    0 -0.27579216031E+02 -0.85109276816E+01 -0.95269400741E+01  0.30394269761E+02  0.51100000000E-03 0.  1.
        -12    1    3    3    0    0 -0.47303750058E+01  0.55277626694E+01  0.23522948620E+02  0.24622382493E+02  0.00000000000E+00 0.  1.
</event>
<event>
 7    1  0.3449603E-013  0.5930189E+02  0.7816164E-02  0.1266605E+00
        -11   -1    0    0    0    0  0.00000000000E+00  0.00000000000E+00  0.45593999997E+02  0.45594000000E+02  0.51100000000E-03 0.  1.
         11   -1    0    0    0    0 -0.00000000000E+00 -0.00000000000E+00 -0.45593999997E+02  0.45594000000E+02  0.51100000000E-03 0. -1.
    9900012    2    1    2    0    0  0.50279801857E+01  0.28607409408E+02 -0.13155221040E+02  0.59301885492E+02  0.49999893246E+02 0.  0.
         12    1    1    2    0    0 -0.50279801857E+01 -0.28607409408E+02  0.13155221040E+02  0.31886114508E+02  0.00000000000E+00 0. -1.
         11    1    3    3    0    0  0.13913711041E+02 -0.49699789461E+01 -0.95052271704E+01  0.17568192550E+02  0.51100000000E-03 0. -1.
        -11    1    3    3    0    0  0.37378838538E+01  0.13796872294E+00 -0.46613659585E+01  0.59765495006E+01  0.51100000000E-03 0.  1.
        -12    1    3    3    0    0 -0.12623614709E+02  0.33439419631E+02  0.10113720886E+01  0.35757143441E+02  0.00000000000E+00 0.  1.
</event>
<event>
 7    1  0.3449603E-013  0.5930191E+02  0.7816164E-02  0.1266605E+00
        -11   -1    0    0    0    0  0.00000000000E+00  0.00000000000E+00  0.45593999997E+02  0.45594000000E+02  0.51100000000E-03 0. -1.
         11   -1    0    0    0    0 -0.00000000000E+00 -0.00000000000E+00 -0.45593999997E+02  0.45594000000E+02  0.51100000000E-03 0.  1.
    9900012    2    1    2    0    0 -0.30824080118E+02 -0.36836386763E+01  0.72821273106E+01  0.59301913894E+02  0.49999945043E+02 0.  0.
         12    1    1    2    0    0  0.30824080118E+02  0.36836386763E+01 -0.72821273106E+01  0.31886086106E+02  0.00000000000E+00 0. -1.
         11    1    3    3    0    0  0.14151421972E+01 -0.15636003340E+01  0.84852517608E+01  0.87433958590E+01  0.51100000000E-03 0. -1.
        -11    1    3    3    0    0 -0.37867030850E+02 -0.11113148059E+02  0.18857388062E+01  0.39509114092E+02  0.51100000000E-03 0.  1.
         12    1    3    3    0    0  0.56278085354E+01  0.89931097165E+01 -0.30888632565E+01  0.11049403943E+02  0.00000000000E+00 0. -1.
</event>
<event>
 7    1  0.3449603E-013  0.5930194E+02  0.7816164E-02  0.1266605E+00
        -11   -1    0    0    0    0  0.00000000000E+00  0.00000000000E+00  0.45593999997E+02  0.45594000000E+02  0.51100000000E-03 0. -1.
         11   -1    0    0    0    0 -0.00000000000E+00 -0.00000000000E+00 -0.45593999997E+02  0.45594000000E+02  0.51100000000E-03 0.  1.
    9900012    2    1    2    0    0 -0.30265013705E+01  0.11228208487E+02 -0.29689866489E+02  0.59301944293E+02  0.50000000484E+02 0.  0.
         12    1    1    2    0    0  0.30265013705E+01 -0.11228208487E+02  0.29689866489E+02  0.31886055707E+02  0.00000000000E+00 0. -1.
         11    1    3    3    0    0 -0.13808836769E+02  0.68318048361E+01 -0.15205570411E+02  0.21646406215E+02  0.51100000000E-03 0. -1.
        -11    1    3    3    0    0  0.59123901003E+00 -0.64014125520E+01 -0.20613426397E+02  0.21592614347E+02  0.51100000000E-03 0.  1.
        -12    1    3    3    0    0  0.10191096388E+02  0.10797816203E+02  0.61291303189E+01  0.16062923732E+02  0.00000000000E+00 0.  1.
</event>
<event>
 7    1  0.3449603E-013  0.5930197E+02  0.7816164E-02  0.1266605E+00
        -11   -1    0    0    0    0  0.00000000000E+00  0.00000000000E+00  0.45593999997E+02  0.45594000000E+02  0.51100000000E-03 0.  1.
         11   -1    0    0    0    0 -0.00000000000E+00 -0.00000000000E+00 -0.45593999997E+02  0.45594000000E+02  0.51100000000E-03 0. -1.
    9900012    2    1    2    0    0 -0.24868703159E+02  0.19373227401E+02  0.47900332183E+01  0.59301972418E+02  0.50000051776E+02 0.  0.
         12    1    1    2    0    0  0.24868703159E+02 -0.19373227401E+02 -0.47900332183E+01  0.31886027582E+02  0.00000000000E+00 0. -1.
         11    1    3    3    0    0  0.30753576560E+01 -0.71883711476E+01  0.45818595929E+01  0.90622261094E+01  0.51100000000E-03 0. -1.
        -11    1    3    3    0    0 -0.96988482328E+01  0.78073282613E+00  0.12936684301E+02  0.16187495228E+02  0.51100000000E-03 0.  1.
         12    1    3    3    0    0 -0.18245212582E+02  0.25780865723E+02 -0.12728510676E+02  0.34052251080E+02  0.00000000000E+00 0. -1.
</event>
<event>
 7    1  0.3449603E-013  0.5930198E+02  0.7816164E-02  0.1266605E+00
        -11   -1    0    0    0    0  0.00000000000E+00  0.00000000000E+00  0.45593999997E+02  0.45594000000E+02  0.51100000000E-03 0. -1.
         11   -1    0    0    0    0 -0.00000000000E+00 -0.00000000000E+00 -0.45593999997E+02  0.45594000000E+02  0.51100000000E-03 0.  1.
    9900012    2    1    2    0    0 -0.28898347299E+02 -0.12782274279E+02 -0.42681656811E+01  0.59301980326E+02  0.50000066199E+02 0.  0.
         12    1    1    2    0    0  0.28898347299E+02  0.12782274279E+02  0.42681656811E+01  0.31886019674E+02  0.00000000000E+00 0. -1.
         11    1    3    3    0    0 -0.11238857225E+02 -0.53851286735E+01 -0.21513236142E+01  0.12646727486E+02  0.51100000000E-03 0. -1.
        -11    1    3    3    0    0 -0.25135423277E+02 -0.78699053474E+01 -0.16044641305E+02  0.30840807842E+02  0.51100000000E-03 0.  1.
         12    1    3    3    0    0  0.74759332018E+01  0.47275974231E+00  0.13927799238E+02  0.15814444999E+02  0.00000000000E+00 0. -1.
</event>
<event>
 7    1  0.3449603E-013  0.5930200E+02  0.7816164E-02  0.1266605E+00
        -11   -1    0    0    0    0  0.00000000000E+00  0.00000000000E+00  0.45593999997E+02  0.45594000000E+02  0.51100000000E-03 0.  1.
         11   -1    0    0    0    0 -0.00000000000E+00 -0.00000000000E+00 -0.45593999997E+02  0.45594000000E+02  0.51100000000E-03 0. -1.
    9900012    2    1    2    0    0  0.15575316531E+01  0.92555680594E+01  0.30473361054E+02  0.59301997133E+02  0.50000096850E+02 0.  0.
         12    1    1    2    0    0 -0.15575316531E+01 -0.92555680594E+01 -0.30473361054E+02  0.31886002867E+02  0.00000000000E+00 0. -1.
         11    1    3    3    0    0 -0.96935652281E+01  0.14635306184E+02  0.94280322422E+01  0.19925992727E+02  0.51100000000E-03 0. -1.
        -11    1    3    3    0    0 -0.95563847455E+01 -0.76605231153E+01  0.92587404357E+01  0.15353578688E+02  0.51100000000E-03 0.  1.
        -12    1    3    3    0    0  0.20807481627E+02  0.22807849903E+01  0.11786588376E+02  0.24022425718E+02  0.00000000000E+00 0.  1.
</event>
<event>
 7    1  0.3449603E-013  0.5930196E+02  0.7816164E-02  0.1266605E+00
        -11   -1    0    0    0    0  0.00000000000E+00  0.00000000000E+00  0.45593999997E+02  0.45594000000E+02  0.51100000000E-03 0.  1.
         11   -1    0    0    0    0 -0.00000000000E+00 -0.00000000000E+00 -0.45593999997E+02  0.45594000000E+02  0.51100000000E-03 0. -1.
    9900012    2    1    2    0    0  0.32076128418E+01  0.31942327351E+01  0.31563073418E+02  0.59301960633E+02  0.50000030284E+02 0.  0.
         12    1    1    2    0    0 -0.32076128418E+01 -0.31942327351E+01 -0.31563073418E+02  0.31886039367E+02  0.00000000000E+00 0. -1.
         11    1    3    3    0    0 -0.31669988693E+01  0.38759399172E-01 -0.88993890691E+01  0.94461902476E+01  0.51100000000E-03 0. -1.
        -11    1    3    3    0    0  0.10009629667E+02 -0.47189896350E+01  0.30891543820E+01  0.11489317834E+02  0.51100000000E-03 0.  1.
         12    1    3    3    0    0 -0.36350179557E+01  0.78744629709E+01  0.37373308105E+02  0.38366452551E+02  0.00000000000E+00 0. -1.
</event>
<event>
 7    1  0.3449603E-013  0.5930194E+02  0.7816164E-02  0.1266605E+00
        -11   -1    0    0    0    0  0.00000000000E+00  0.00000000000E+00  0.45593999997E+02  0.45594000000E+02  0.51100000000E-03 0. -1.
         11   -1    0    0    0    0 -0.00000000000E+00 -0.00000000000E+00 -0.45593999997E+02  0.45594000000E+02  0.51100000000E-03 0.  1.
    9900012    2    1    2    0    0  0.31433731225E+02 -0.43971992218E+01 -0.30505297608E+01  0.59301944246E+02  0.50000000398E+02 0.  0.
         12    1    1    2    0    0 -0.31433731225E+02  0.43971992218E+01  0.30505297608E+01  0.31886055754E+02  0.00000000000E+00 0. -1.
         11    1    3    3    0    0  0.31619291027E+02 -0.84566964906E+01  0.46248800485E+01  0.33055783099E+02  0.51100000000E-03 0.  1.
        -11    1    3    3    0    0  0.18796177893E+00 -0.46150283022E+01 -0.14490222679E+02  0.15208562372E+02  0.51100000000E-03 0. -1.
         12    1    3    3    0    0 -0.37352158111E+00  0.86745255710E+01  0.68148128702E+01  0.11037598775E+02  0.00000000000E+00 0. -1.
</event>
<event>
 7    1  0.3449603E-013  0.5930195E+02  0.7816164E-02  0.1266605E+00
        -11   -1    0    0    0    0  0.00000000000E+00  0.00000000000E+00  0.45593999997E+02  0.45594000000E+02  0.51100000000E-03 0. -1.
         11   -1    0    0    0    0 -0.00000000000E+00 -0.00000000000E+00 -0.45593999997E+02  0.45594000000E+02  0.51100000000E-03 0.  1.
    9900012    2    1    2    0    0 -0.29381943917E+02  0.10902665649E+02 -0.58782259302E+01  0.59301948399E+02  0.50000007973E+02 0.  0.
         12    1    1    2    0    0  0.29381943917E+02 -0.10902665649E+02  0.58782259302E+01  0.31886051601E+02  0.00000000000E+00 0. -1.
         11    1    3    3    0    0 -0.39099022433E+01  0.96135378226E+01  0.97716572163E+01  0.14254568742E+02  0.51100000000E-03 0. -1.
        -11    1    3    3    0    0 -0.76176080336E+01  0.71275843157E+01  0.91910969876E+01  0.13903477063E+02  0.51100000000E-03 0.  1.
        -12    1    3    3    0    0 -0.17854433640E+02 -0.58384564897E+01 -0.24840980134E+02  0.31143902594E+02  0.00000000000E+00 0.  1.
</event>
<event>
 7    1  0.3449603E-013  0.5930197E+02  0.7816164E-02  0.1266605E+00
        -11   -1    0    0    0    0  0.00000000000E+00  0.00000000000E+00  0.45593999997E+02  0.45594000000E+02  0.51100000000E-03 0. -1.
         11   -1    0    0    0    0 -0.00000000000E+00 -0.00000000000E+00 -0.45593999997E+02  0.45594000000E+02  0.51100000000E-03 0.  1.
    9900012    2    1    2    0    0 -0.30150438207E+02  0.45622096360E+01  0.93196819599E+01  0.59301966182E+02  0.50000040403E+02 0.  0.
         12    1    1    2    0    0  0.30150438207E+02 -0.45622096360E+01 -0.93196819599E+01  0.31886033818E+02  0.00000000000E+00 0. -1.
         11    1    3    3    0    0  0.65977279192E+01  0.36619273301E+00 -0.32016939612E+01  0.73426803891E+01  0.51100000000E-03 0. -1.
        -11    1    3    3    0    0 -0.11777403026E+02  0.16162549386E+02 -0.29900076043E+01  0.20220666913E+02  0.51100000000E-03 0.  1.
        -12    1    3    3    0    0 -0.24970763100E+02 -0.11966532483E+02  0.15511383525E+02  0.31738618879E+02  0.00000000000E+00 0.  1.
</event>
<event>
 7    1  0.3449603E-013  0.5930195E+02  0.7816164E-02  0.1266605E+00
        -11   -1    0    0    0    0  0.00000000000E+00  0.00000000000E+00  0.45593999997E+02  0.45594000000E+02  0.51100000000E-03 0.  1.
         11   -1    0    0    0    0 -0.00000000000E+00 -0.00000000000E+00 -0.45593999997E+02  0.45594000000E+02  0.51100000000E-03 0. -1.
    9900012    2    1    2    0    0  0.81150479505E+00  0.61705846868E+01  0.31272761489E+02  0.59301948715E+02  0.50000008548E+02 0.  0.
         12    1    1    2    0    0 -0.81150479505E+00 -0.61705846868E+01 -0.31272761489E+02  0.31886051285E+02  0.00000000000E+00 0. -1.
         11    1    3    3    0    0  0.16326757442E+01  0.12667234926E+02  0.36007205588E+02  0.38205278761E+02  0.51100000000E-03 0.  1.
        -11    1    3    3    0    0  0.65791368165E+01 -0.98777803435E+01 -0.39314802378E+00  0.11874769530E+02  0.51100000000E-03 0. -1.
        -12    1    3    3    0    0 -0.74003077657E+01  0.33811301042E+01 -0.43412960748E+01  0.92219004233E+01  0.00000000000E+00 0.  1.
</event>
<event>
 7    1  0.3449603E-013  0.5930195E+02  0.7816164E-02  0.1266605E+00
        -11   -1    0    0    0    0  0.00000000000E+00  0.00000000000E+00  0.45593999997E+02  0.45594000000E+02  0.51100000000E-03 0. -1.
         11   -1    0    0    0    0 -0.00000000000E+00 -0.00000000000E+00 -0.45593999997E+02  0.45594000000E+02  0.51100000000E-03 0.  1.
    9900012    2    1    2    0    0  0.37610097238E+01  0.30849975306E+02  0.71311882933E+01  0.59301952628E+02  0.50000015686E+02 0.  0.
         12    1    1    2    0    0 -0.37610097238E+01 -0.30849975306E+02 -0.71311882933E+01  0.31886047372E+02  0.00000000000E+00 0. -1.
         11    1    3    3    0    0 -0.13979528114E+01 -0.26332802048E+01  0.11242850251E+02  0.11631428061E+02  0.51100000000E-03 0. -1.
        -11    1    3    3    0    0  0.11013252708E+01 -0.65486600650E+01 -0.33232817503E+01  0.74257705225E+01  0.51100000000E-03 0.  1.
        -12    1    3    3    0    0  0.40576372645E+01  0.40031915576E+02 -0.78838020757E+00  0.40244754045E+02  0.00000000000E+00 0.  1.
</event>
<event>
 7    1  0.3449603E-013  0.5930195E+02  0.7816164E-02  0.1266605E+00
        -11   -1    0    0    0    0  0.00000000000E+00  0.00000000000E+00  0.45593999997E+02  0.45594000000E+02  0.51100000000E-03 0. -1.
         11   -1    0    0    0    0 -0.00000000000E+00 -0.00000000000E+00 -0.45593999997E+02  0.45594000000E+02  0.51100000000E-03 0.  1.
    9900012    2    1    2    0    0 -0.23731041156E+02  0.17305080978E+02 -0.12413390481E+02  0.59301946540E+02  0.50000004582E+02 0.  0.
         12    1    1    2    0    0  0.23731041156E+02 -0.17305080978E+02  0.12413390481E+02  0.31886053460E+02  0.00000000000E+00 0. -1.
         11    1    3    3    0    0  0.40325992973E+01  0.13354197028E+02 -0.23656850782E+02  0.27463485295E+02  0.51100000000E-03 0.  1.
        -11    1    3    3    0    0 -0.10446893696E+02  0.62002250763E+01  0.63280313505E+01  0.13697604168E+02  0.51100000000E-03 0. -1.
        -12    1    3    3    0    0 -0.17316746757E+02 -0.22493411259E+01  0.49154289507E+01  0.18140857078E+02  0.00000000000E+00 0.  1.
</event>
<event>
 7    1  0.3449603E-013  0.5930192E+02  0.7816164E-02  0.1266605E+00
        -11   -1    0    0    0    0  0.00000000000E+00  0.00000000000E+00  0.45593999997E+02  0.45594000000E+02  0.51100000000E-03 0.  1.
         11   -1    0    0    0    0 -0.00000000000E+00 -0.00000000000E+00 -0.45593999997E+02  0.45594000000E+02  0.51100000000E-03 0. -1.
    9900012    2    1    2    0    0  0.49938402165E+01  0.17918393071E+02  0.25898157035E+02  0.59301924855E+02  0.49999965033E+02 0.  0.
         12    1    1    2    0    0 -0.49938402165E+01 -0.17918393071E+02 -0.25898157035E+02  0.31886075145E+02  0.00000000000E+00 0. -1.
         11    1    3    3    0    0 -0.90954027004E+01  0.91675630771E+01 -0.34359267444E+01  0.13363238975E+02  0.51100000000E-03 0. -1.
        -11    1    3    3    0    0 -0.81514220043E+01  0.61975299744E+01  0.17089765675E+01  0.10381505654E+02  0.51100000000E-03 0.  1.
        -12    1    3    3    0    0  0.22240664921E+02  0.25533000191E+01  0.27625107212E+02  0.35557180226E+02  0.00000000000E+00 0.  1.
</event>
<event>
 7    1  0.3449603E-013  0.5930203E+02  0.7816164E-02  0.1266604E+00
        -11   -1    0    0    0    0  0.00000000000E+00  0.00000000000E+00  0.45593999997E+02  0.45594000000E+02  0.51100000000E-03 0.  1.
         11   -1    0    0    0    0 -0.00000000000E+00 -0.00000000000E+00 -0.45593999997E+02  0.45594000000E+02  0.51100000000E-03 0. -1.
    9900012    2    1    2    0    0  0.88291146383E+01  0.15986594175E+02  0.26137914638E+02  0.59302030668E+02  0.50000158011E+02 0.  0.
         12    1    1    2    0    0 -0.88291146383E+01 -0.15986594175E+02 -0.26137914638E+02  0.31885969332E+02  0.00000000000E+00 0. -1.
         11    1    3    3    0    0  0.12038684025E+02  0.16211002882E+02  0.19851528792E+02  0.28316244863E+02  0.51100000000E-03 0. -1.
        -11    1    3    3    0    0  0.33490071171E+01 -0.55362961623E+01  0.16507617998E+02  0.17730422332E+02  0.51100000000E-03 0.  1.
        -12    1    3    3    0    0 -0.65585765036E+01  0.53118874556E+01 -0.10221232152E+02  0.13255363473E+02  0.00000000000E+00 0.  1.
</event>
<event>
 7    1  0.3449603E-013  0.5930194E+02  0.7816164E-02  0.1266605E+00
        -11   -1    0    0    0    0  0.00000000000E+00  0.00000000000E+00  0.45593999997E+02  0.45594000000E+02  0.51100000000E-03 0.  1.
         11   -1    0    0    0    0 -0.00000000000E+00 -0.00000000000E+00 -0.45593999997E+02  0.45594000000E+02  0.51100000000E-03 0. -1.
    9900012    2    1    2    0    0  0.68535426615E+01  0.16897798643E+02  0.26157489815E+02  0.59301938477E+02  0.49999989877E+02 0.  0.
         12    1    1    2    0    0 -0.68535426615E+01 -0.16897798643E+02 -0.26157489815E+02  0.31886061523E+02  0.00000000000E+00 0. -1.
         11    1    3    3    0    0  0.57687899310E+01  0.84671486018E+01 -0.50495437149E+01  0.11422321774E+02  0.51100000000E-03 0. -1.
        -11    1    3    3    0    0 -0.11549348707E+02  0.14060929304E+02  0.28456748698E+02  0.33776970485E+02  0.51100000000E-03 0.  1.
         12    1    3    3    0    0  0.12634101437E+02 -0.56302792626E+01  0.27502848324E+01  0.14102646219E+02  0.00000000000E+00 0. -1.
</event>
<event>
 7    1  0.3449603E-013  0.5930195E+02  0.7816164E-02  0.1266605E+00
        -11   -1    0    0    0    0  0.00000000000E+00  0.00000000000E+00  0.45593999997E+02  0.45594000000E+02  0.51100000000E-03 0. -1.
         11   -1    0    0    0    0 -0.00000000000E+00 -0.00000000000E+00 -0.45593999997E+02  0.45594000000E+02  0.51100000000E-03 0.  1.
    9900012    2    1    2    0    0  0.96758581669E+01 -0.22117784280E+02 -0.20830304928E+02  0.59301949506E+02  0.50000009990E+02 0.  0.
         12    1    1    2    0    0 -0.96758581669E+01  0.22117784280E+02  0.20830304928E+02  0.31886050494E+02  0.00000000000E+00 0. -1.
         11    1    3    3    0    0  0.94643816986E+01  0.17227624276E+01 -0.15189446871E+02  0.17979480744E+02  0.51100000000E-03 0. -1.
        -11    1    3    3    0    0 -0.83586528718E+01 -0.20177141195E+02 -0.16234142788E+02  0.27212708373E+02  0.51100000000E-03 0.  1.
        -12    1    3    3    0    0  0.85701293401E+01 -0.36634055122E+01  0.10593284730E+02  0.14109760389E+02  0.00000000000E+00 0.  1.
</event>
<event>
 7    1  0.3449603E-013  0.5930194E+02  0.7816164E-02  0.1266605E+00
        -11   -1    0    0    0    0  0.00000000000E+00  0.00000000000E+00  0.45593999997E+02  0.45594000000E+02  0.51100000000E-03 0. -1.
         11   -1    0    0    0    0 -0.00000000000E+00 -0.00000000000E+00 -0.45593999997E+02  0.45594000000E+02  0.51100000000E-03 0.  1.
    9900012    2    1    2    0    0 -0.13102490950E+02 -0.28501311533E+02  0.57202216513E+01  0.59301937780E+02  0.49999988606E+02 0.  0.
         12    1    1    2    0    0  0.13102490950E+02  0.28501311533E+02 -0.57202216513E+01  0.31886062220E+02  0.00000000000E+00 0. -1.
         11    1    3    3    0    0  0.79712804452E+01  0.41669067021E+01  0.89195547084E+01  0.12667394359E+02  0.51100000000E-03 0. -1.
        -11    1    3    3    0    0  0.23340158542E+01  0.17795832274E+01 -0.40209418699E+01  0.49782045210E+01  0.51100000000E-03 0.  1.
        -12    1    3    3    0    0 -0.23407787249E+02 -0.34447801462E+02  0.82160881277E+00  0.41656338899E+02  0.00000000000E+00 0.  1.
</event>
<event>
 7    1  0.3449603E-013  0.5930196E+02  0.7816164E-02  0.1266605E+00
        -11   -1    0    0    0    0  0.00000000000E+00  0.00000000000E+00  0.45593999997E+02  0.45594000000E+02  0.51100000000E-03 0.  1.
         11   -1    0    0    0    0 -0.00000000000E+00 -0.00000000000E+00 -0.45593999997E+02  0.45594000000E+02  0.51100000000E-03 0. -1.
    9900012    2    1    2    0    0  0.18184991113E+02  0.11831593711E+02  0.23367484145E+02  0.59301955610E+02  0.50000021124E+02 0.  0.
         12    1    1    2    0    0 -0.18184991113E+02 -0.11831593711E+02 -0.23367484145E+02  0.31886044390E+02  0.00000000000E+00 0. -1.
         11    1    3    3    0    0 -0.17041915594E+01  0.20331256499E+01 -0.69583899880E+01  0.74469497290E+01  0.51100000000E-03 0. -1.
        -11    1    3    3    0    0  0.23544796721E+02 -0.61707669915E+01  0.24316341114E+02  0.34405235987E+02  0.51100000000E-03 0.  1.
         12    1    3    3    0    0 -0.36556140484E+01  0.15969235053E+02  0.60095330191E+01  0.17449769894E+02  0.00000000000E+00 0. -1.
</event>
<event>
 7    1  0.3449603E-013  0.5930200E+02  0.7816164E-02  0.1266605E+00
        -11   -1    0    0    0    0  0.00000000000E+00  0.00000000000E+00  0.45593999997E+02  0.45594000000E+02  0.51100000000E-03 0. -1.
         11   -1    0    0    0    0 -0.00000000000E+00 -0.00000000000E+00 -0.45593999997E+02  0.45594000000E+02  0.51100000000E-03 0.  1.
    9900012    2    1    2    0    0 -0.74811327557E+01  0.22691032487E+02  0.21115560353E+02  0.59301996932E+02  0.50000096485E+02 0.  0.
         12    1    1    2    0    0  0.74811327557E+01 -0.22691032487E+02 -0.21115560353E+02  0.31886003068E+02  0.00000000000E+00 0. -1.
         11    1    3    3    0    0 -0.44910400472E+01 -0.63570858493E+01 -0.43647710790E+01  0.89237440592E+01  0.51100000000E-03 0. -1.
        -11    1    3    3    0    0  0.12674431162E+02  0.23297717522E+02  0.12975715573E+02  0.29526158604E+02  0.51100000000E-03 0.  1.
         12    1    3    3    0    0 -0.15664523870E+02  0.57504008134E+01  0.12504615859E+02  0.20852094269E+02  0.00000000000E+00 0. -1.
</event>
<event>
 7    1  0.3449603E-013  0.5930194E+02  0.7816164E-02  0.1266605E+00
        -11   -1    0    0    0    0  0.00000000000E+00  0.00000000000E+00  0.45593999997E+02  0.45594000000E+02  0.51100000000E-03 0. -1.
         11   -1    0    0    0    0 -0.00000000000E+00 -0.00000000000E+00 -0.45593999997E+02  0.45594000000E+02  0.51100000000E-03 0.  1.
    9900012    2    1    2    0    0 -0.19201516221E+02  0.15665545768E+02 -0.20065229879E+02  0.59301937222E+02  0.49999987588E+02 0.  0.
         12    1    1    2    0    0  0.19201516221E+02 -0.15665545768E+02  0.20065229879E+02  0.31886062778E+02  0.00000000000E+00 0. -1.
         11    1    3    3    0    0  0.89447155371E+01  0.88226070995E+01 -0.83711824818E+01  0.15097119874E+02  0.51100000000E-03 0. -1.
        -11    1    3    3    0    0  0.46343790965E+01 -0.88408783448E-01 -0.95684572924E+01  0.10632058170E+02  0.51100000000E-03 0.  1.
        -12    1    3    3    0    0 -0.32780610855E+02  0.69313474518E+01 -0.21255901047E+01  0.33572759178E+02  0.00000000000E+00 0.  1.
</event>
<event>
 7    1  0.3449603E-013  0.5930194E+02  0.7816164E-02  0.1266605E+00
        -11   -1    0    0    0    0  0.00000000000E+00  0.00000000000E+00  0.45593999997E+02  0.45594000000E+02  0.51100000000E-03 0.  1.
         11   -1    0    0    0    0 -0.00000000000E+00 -0.00000000000E+00 -0.45593999997E+02  0.45594000000E+02  0.51100000000E-03 0. -1.
    9900012    2    1    2    0    0  0.21373837801E+02  0.18401739532E+02  0.14874676871E+02  0.59301937650E+02  0.49999988369E+02 0.  0.
         12    1    1    2    0    0 -0.21373837801E+02 -0.18401739532E+02 -0.14874676871E+02  0.31886062350E+02  0.00000000000E+00 0. -1.
         11    1    3    3    0    0  0.47416990421E+00 -0.94584244305E+01 -0.11229411075E+01  0.95366465174E+01  0.51100000000E-03 0. -1.
        -11    1    3    3    0    0  0.46639065534E+01 -0.14161563968E+01  0.15538715834E+02  0.16285245264E+02  0.51100000000E-03 0.  1.
         12    1    3    3    0    0  0.16235761344E+02  0.29276320359E+02  0.45890214430E+00  0.33480045869E+02  0.00000000000E+00 0. -1.
</event>
<event>
 7    1  0.3449603E-013  0.5930193E+02  0.7816164E-02  0.1266605E+00
        -11   -1    0    0    0    0  0.00000000000E+00  0.00000000000E+00  0.45593999997E+02  0.45594000000E+02  0.51100000000E-03 0.  1.
         11   -1    0    0    0    0 -0.00000000000E+00 -0.00000000000E+00 -0.45593999997E+02  0.45594000000E+02  0.51100000000E-03 0. -1.
    9900012    2    1    2    0    0 -0.23363346173E+02 -0.18347753846E+02  0.11585988339E+02  0.59301934997E+02  0.49999983531E+02 0.  0.
         12    1    1    2    0    0  0.23363346173E+02  0.18347753846E+02 -0.11585988339E+02  0.31886065003E+02  0.00000000000E+00 0. -1.
         11    1    3    3    0    0 -0.15255759490E+02 -0.84939952041E+01 -0.10485074561E+02  0.20367202580E+02  0.51100000000E-03 0. -1.
        -11    1    3    3    0    0 -0.70038510380E+01 -0.36212024829E+01 -0.61582303149E+01  0.10004540852E+02  0.51100000000E-03 0.  1.
        -12    1    3    3    0    0 -0.11037356451E+01 -0.62325561589E+01  0.28229293214E+02  0.28930191566E+02  0.00000000000E+00 0.  1.
</event>
<event>
 7    1  0.3449603E-013  0.5930193E+02  0.7816164E-02  0.1266605E+00
        -11   -1    0    0    0    0  0.00000000000E+00  0.00000000000E+00  0.45593999997E+02  0.45594000000E+02  0.51100000000E-03 0. -1.
         11   -1    0    0    0    0 -0.00000000000E+00 -0.00000000000E+00 -0.45593999997E+02  0.45594000000E+02  0.51100000000E-03 0.  1.
    9900012    2    1    2    0    0  0.10542479537E+02  0.80549736329E-01 -0.30092711151E+02  0.59301927375E+02  0.49999969629E+02 0.  0.
         12    1    1    2    0    0 -0.10542479537E+02 -0.80549736329E-01  0.30092711151E+02  0.31886072625E+02  0.00000000000E+00 0. -1.
         11    1    3    3    0    0 -0.21530360547E+01  0.52115107477E+01 -0.35450465476E+02  0.35896112760E+02  0.51100000000E-03 0. -1.
        -11    1    3    3    0    0 -0.28135254133E+01  0.55375775785E+00 -0.36101088888E+01  0.46103643409E+01  0.51100000000E-03 0.  1.
         12    1    3    3    0    0  0.15509041005E+02 -0.56847187692E+01  0.89678632140E+01  0.18795450274E+02  0.00000000000E+00 0. -1.
</event>
<event>
 7    1  0.3449603E-013  0.5930193E+02  0.7816164E-02  0.1266605E+00
        -11   -1    0    0    0    0  0.00000000000E+00  0.00000000000E+00  0.45593999997E+02  0.45594000000E+02  0.51100000000E-03 0. -1.
         11   -1    0    0    0    0 -0.00000000000E+00 -0.00000000000E+00 -0.45593999997E+02  0.45594000000E+02  0.51100000000E-03 0.  1.
    9900012    2    1    2    0    0 -0.27741641257E+01  0.24122824169E+02  0.20666757113E+02  0.59301929654E+02  0.49999973787E+02 0.  0.
         12    1    1    2    0    0  0.27741641257E+01 -0.24122824169E+02 -0.20666757113E+02  0.31886070346E+02  0.00000000000E+00 0. -1.
         11    1    3    3    0    0  0.18977364637E+01  0.27244008072E+02 -0.35729063059E+01  0.27542749304E+02  0.51100000000E-03 0. -1.
        -11    1    3    3    0    0 -0.10908771319E+01  0.31497401208E+01 -0.24326509893E+01  0.41265805266E+01  0.51100000000E-03 0.  1.
         12    1    3    3    0    0 -0.35810234575E+01 -0.62709240233E+01  0.26672314409E+02  0.27632599824E+02  0.00000000000E+00 0. -1.
</event>
<event>
 7    1  0.3449603E-013  0.5930201E+02  0.7816164E-02  0.1266605E+00
        -11   -1    0    0    0    0  0.00000000000E+00  0.00000000000E+00  0.45593999997E+02  0.45594000000E+02  0.51100000000E-03 0.  1.
         11   -1    0    0    0    0 -0.00000000000E+00 -0.00000000000E+00 -0.45593999997E+02  0.45594000000E+02  0.51100000000E-03 0. -1.
    9900012    2    1    2    0    0 -0.22317055490E+02  0.73471297569E+01  0.21556549662E+02  0.59302013819E+02  0.50000127282E+02 0.  0.
         12    1    1    2    0    0  0.22317055490E+02 -0.73471297569E+01 -0.21556549662E+02  0.31885986181E+02  0.00000000000E+00 0. -1.
         11    1    3    3    0    0  0.52366226528E+01 -0.10300199630E+02  0.16536700047E+02  0.20173715025E+02  0.51100000000E-03 0. -1.
        -11    1    3    3    0    0 -0.11270252605E+01  0.42029754585E+00  0.73959470232E+01  0.74931214187E+01  0.51100000000E-03 0.  1.
        -12    1    3    3    0    0 -0.26426652883E+02  0.17227031841E+02 -0.23760974075E+01  0.31635177375E+02  0.00000000000E+00 0.  1.
</event>
<event>
 7    1  0.3449603E-013  0.5930196E+02  0.7816164E-02  0.1266605E+00
        -11   -1    0    0    0    0  0.00000000000E+00  0.00000000000E+00  0.45593999997E+02  0.45594000000E+02  0.51100000000E-03 0.  1.
         11   -1    0    0    0    0 -0.00000000000E+00 -0.00000000000E+00 -0.45593999997E+02  0.45594000000E+02  0.51100000000E-03 0. -1.
    9900012    2    1    2    0    0  0.38561622457E+01  0.20991068412E+02  0.23690184210E+02  0.59301956529E+02  0.50000022799E+02 0.  0.
         12    1    1    2    0    0 -0.38561622457E+01 -0.20991068412E+02 -0.23690184210E+02  0.31886043471E+02  0.00000000000E+00 0. -1.
         11    1    3    3    0    0 -0.13944776840E+02  0.14674604031E+02  0.92018806986E+01  0.22236803126E+02  0.51100000000E-03 0. -1.
        -11    1    3    3    0    0 -0.57080575753E+01  0.86427398783E+01  0.59548326912E+01  0.11947338889E+02  0.51100000000E-03 0.  1.
         12    1    3    3    0    0  0.23508996661E+02 -0.23262754979E+01  0.85334708207E+01  0.25117814514E+02  0.00000000000E+00 0. -1.
</event>
<event>
 7    1  0.3449603E-013  0.5930200E+02  0.7816164E-02  0.1266605E+00
        -11   -1    0    0    0    0  0.00000000000E+00  0.00000000000E+00  0.45593999997E+02  0.45594000000E+02  0.51100000000E-03 0. -1.
         11   -1    0    0    0    0 -0.00000000000E+00 -0.00000000000E+00 -0.45593999997E+02  0.45594000000E+02  0.51100000000E-03 0.  1.
    9900012    2    1    2    0    0 -0.29420843108E+02  0.11566718670E+02 -0.41643601033E+01  0.59302001740E+02  0.50000105253E+02 0.  0.
         12    1    1    2    0    0  0.29420843108E+02 -0.11566718670E+02  0.41643601033E+01  0.31885998260E+02  0.00000000000E+00 0. -1.
         11    1    3    3    0    0 -0.20912438715E+01  0.14314316803E+02 -0.16910985464E+02  0.22254311854E+02  0.51100000000E-03 0. -1.
        -11    1    3    3    0    0 -0.93863399683E+01  0.33634099634E+01 -0.49355226932E+01  0.11125434333E+02  0.51100000000E-03 0.  1.
         12    1    3    3    0    0 -0.17943259268E+02 -0.61110080969E+01  0.17682148054E+02  0.25922255553E+02  0.00000000000E+00 0. -1.
</event>
<event>
 7    1  0.3449603E-013  0.5930196E+02  0.7816164E-02  0.1266605E+00
        -11   -1    0    0    0    0  0.00000000000E+00  0.00000000000E+00  0.45593999997E+02  0.45594000000E+02  0.51100000000E-03 0.  1.
         11   -1    0    0    0    0 -0.00000000000E+00 -0.00000000000E+00 -0.45593999997E+02  0.45594000000E+02  0.51100000000E-03 0. -1.
    9900012    2    1    2    0    0 -0.51382549358E+01  0.29977976932E+02 -0.95728029388E+01  0.59301963545E+02  0.50000035594E+02 0.  0.
         12    1    1    2    0    0  0.51382549358E+01 -0.29977976932E+02  0.95728029388E+01  0.31886036455E+02  0.00000000000E+00 0. -1.
         11    1    3    3    0    0 -0.16410940231E+01  0.36424269056E+02 -0.63768803757E+01  0.37014661547E+02  0.51100000000E-03 0.  1.
        -11    1    3    3    0    0 -0.53605361848E+01 -0.96509161899E+00 -0.11173554495E+02  0.12430409098E+02  0.51100000000E-03 0. -1.
        -12    1    3    3    0    0  0.18633752721E+01 -0.54812005051E+01  0.79776319322E+01  0.98568928992E+01  0.00000000000E+00 0.  1.
</event>
<event>
 7    1  0.3449603E-013  0.5930196E+02  0.7816164E-02  0.1266605E+00
        -11   -1    0    0    0    0  0.00000000000E+00  0.00000000000E+00  0.45593999997E+02  0.45594000000E+02  0.51100000000E-03 0.  1.
         11   -1    0    0    0    0 -0.00000000000E+00 -0.00000000000E+00 -0.45593999997E+02  0.45594000000E+02  0.51100000000E-03 0. -1.
    9900012    2    1    2    0    0 -0.26871919609E+02 -0.74701799295E+00  0.17148226628E+02  0.59301956410E+02  0.50000022582E+02 0.  0.
         12    1    1    2    0    0  0.26871919609E+02  0.74701799295E+00 -0.17148226628E+02  0.31886043590E+02  0.00000000000E+00 0. -1.
         11    1    3    3    0    0 -0.32082665553E+01  0.61677339787E+01 -0.48399037884E+01  0.84710439536E+01  0.51100000000E-03 0. -1.
        -11    1    3    3    0    0 -0.33628240886E+01  0.42484466546E+01 -0.99767615315E+01  0.11353134182E+02  0.51100000000E-03 0.  1.
        -12    1    3    3    0    0 -0.20300828965E+02 -0.11163198626E+02  0.31964891948E+02  0.39477778274E+02  0.00000000000E+00 0.  1.
</event>
<event>
 7    1  0.3449603E-013  0.5930195E+02  0.7816164E-02  0.1266605E+00
        -11   -1    0    0    0    0  0.00000000000E+00  0.00000000000E+00  0.45593999997E+02  0.45594000000E+02  0.51100000000E-03 0. -1.
         11   -1    0    0    0    0 -0.00000000000E+00 -0.00000000000E+00 -0.45593999997E+02  0.45594000000E+02  0.51100000000E-03 0.  1.
    9900012    2    1    2    0    0 -0.91737311323E+01 -0.14117680073E+02 -0.27078659844E+02  0.59301952072E+02  0.50000014670E+02 0.  0.
         12    1    1    2    0    0  0.91737311323E+01  0.14117680073E+02  0.27078659844E+02  0.31886047928E+02  0.00000000000E+00 0. -1.
         11    1    3    3    0    0 -0.14432111864E+02  0.44607949346E+01 -0.11177980568E+02  0.18791801248E+02  0.51100000000E-03 0. -1.
        -11    1    3    3    0    0 -0.82778767872E+01  0.51547005800E+01 -0.59996372729E+01  0.11449446705E+02  0.51100000000E-03 0.  1.
        -12    1    3    3    0    0  0.13536257519E+02 -0.23733175588E+02 -0.99010420031E+01  0.29060704119E+02  0.00000000000E+00 0.  1.
</event>
<event>
 7    1  0.3449603E-013  0.5930196E+02  0.7816164E-02  0.1266605E+00
        -11   -1    0    0    0    0  0.00000000000E+00  0.00000000000E+00  0.45593999997E+02  0.45594000000E+02  0.51100000000E-03 0.  1.
         11   -1    0    0    0    0 -0.00000000000E+00 -0.00000000000E+00 -0.45593999997E+02  0.45594000000E+02  0.51100000000E-03 0. -1.
    9900012    2    1    2    0    0 -0.20781172737E+02  0.22603356977E+02  0.85994594839E+01  0.59301959318E+02  0.50000027886E+02 0.  0.
         12    1    1    2    0    0  0.20781172737E+02 -0.22603356977E+02 -0.85994594839E+01  0.31886040682E+02  0.00000000000E+00 0. -1.
         11    1    3    3    0    0 -0.30606886732E+02  0.96106311397E+01  0.37877648902E+01  0.32303140860E+02  0.51100000000E-03 0. -1.
        -11    1    3    3    0    0  0.19667092027E+01  0.49213934325E+00  0.10856096081E+02  0.11043775106E+02  0.51100000000E-03 0.  1.
        -12    1    3    3    0    0  0.78590047921E+01  0.12500586494E+02 -0.60444014871E+01  0.15955043352E+02  0.00000000000E+00 0.  1.
</event>
<event>
 7    1  0.3449603E-013  0.5930190E+02  0.7816164E-02  0.1266605E+00
        -11   -1    0    0    0    0  0.00000000000E+00  0.00000000000E+00  0.45593999997E+02  0.45594000000E+02  0.51100000000E-03 0. -1.
         11   -1    0    0    0    0 -0.00000000000E+00 -0.00000000000E+00 -0.45593999997E+02  0.45594000000E+02  0.51100000000E-03 0.  1.
    9900012    2    1    2    0    0  0.57249390086E+01 -0.65645707945E+01 -0.30673352438E+02  0.59301904815E+02  0.49999928486E+02 0.  0.
         12    1    1    2    0    0 -0.57249390086E+01  0.65645707945E+01  0.30673352438E+02  0.31886095185E+02  0.00000000000E+00 0. -1.
         11    1    3    3    0    0  0.17640689096E+02  0.29101489428E+01  0.16369988650E+01  0.17953903314E+02  0.51100000000E-03 0. -1.
        -11    1    3    3    0    0  0.43770471808E+01  0.68618084008E+00 -0.14486915474E+02  0.15149260919E+02  0.51100000000E-03 0.  1.
         12    1    3    3    0    0 -0.16292797268E+02 -0.10160900577E+02 -0.17823435828E+02  0.26198740582E+02  0.00000000000E+00 0. -1.
</event>
<event>
 7    1  0.3449603E-013  0.5930193E+02  0.7816164E-02  0.1266605E+00
        -11   -1    0    0    0    0  0.00000000000E+00  0.00000000000E+00  0.45593999997E+02  0.45594000000E+02  0.51100000000E-03 0. -1.
         11   -1    0    0    0    0 -0.00000000000E+00 -0.00000000000E+00 -0.45593999997E+02  0.45594000000E+02  0.51100000000E-03 0.  1.
    9900012    2    1    2    0    0 -0.21607908594E+02 -0.67669856984E+01 -0.22450556227E+02  0.59301932758E+02  0.49999979447E+02 0.  0.
         12    1    1    2    0    0  0.21607908594E+02  0.67669856984E+01  0.22450556227E+02  0.31886067242E+02  0.00000000000E+00 0. -1.
         11    1    3    3    0    0 -0.83730971180E+01 -0.62462491970E+01 -0.10970447696E+02  0.15148435803E+02  0.51100000000E-03 0. -1.
        -11    1    3    3    0    0 -0.12283351331E+02 -0.14205022405E+02 -0.20449435460E+02  0.27764055761E+02  0.51100000000E-03 0.  1.
        -12    1    3    3    0    0 -0.95146014501E+00  0.13684285903E+02  0.89693269281E+01  0.16389441193E+02  0.00000000000E+00 0.  1.
</event>
<event>
 7    1  0.3449603E-013  0.5930195E+02  0.7816164E-02  0.1266605E+00
        -11   -1    0    0    0    0  0.00000000000E+00  0.00000000000E+00  0.45593999997E+02  0.45594000000E+02  0.51100000000E-03 0.  1.
         11   -1    0    0    0    0 -0.00000000000E+00 -0.00000000000E+00 -0.45593999997E+02  0.45594000000E+02  0.51100000000E-03 0. -1.
    9900012    2    1    2    0    0 -0.57932557184E+01  0.16580242422E+01  0.31311486042E+02  0.59301952669E+02  0.50000015760E+02 0.  0.
         12    1    1    2    0    0  0.57932557184E+01 -0.16580242422E+01 -0.31311486042E+02  0.31886047331E+02  0.00000000000E+00 0. -1.
         11    1    3    3    0    0  0.32424480540E+00  0.12891886969E+00  0.69306461484E+01  0.69394244044E+01  0.51100000000E-03 0. -1.
        -11    1    3    3    0    0 -0.16964678570E+02  0.18338456043E+02  0.72178615828E+01  0.26003784630E+02  0.51100000000E-03 0.  1.
         12    1    3    3    0    0  0.10847178046E+02 -0.16809350670E+02  0.17162978311E+02  0.26358743635E+02  0.00000000000E+00 0. -1.
</event>
<event>
 7    1  0.3449603E-013  0.5930193E+02  0.7816164E-02  0.1266605E+00
        -11   -1    0    0    0    0  0.00000000000E+00  0.00000000000E+00  0.45593999997E+02  0.45594000000E+02  0.51100000000E-03 0.  1.
         11   -1    0    0    0    0 -0.00000000000E+00 -0.00000000000E+00 -0.45593999997E+02  0.45594000000E+02  0.51100000000E-03 0. -1.
    9900012    2    1    2    0    0  0.12208371405E+01 -0.90452841881E+01  0.30551827320E+02  0.59301925266E+02  0.49999965782E+02 0.  0.
         12    1    1    2    0    0 -0.12208371405E+01  0.90452841881E+01 -0.30551827320E+02  0.31886074734E+02  0.00000000000E+00 0. -1.
         11    1    3    3    0    0 -0.91745296719E+00 -0.11766633754E+02  0.59635138791E+01  0.13223421943E+02  0.51100000000E-03 0. -1.
        -11    1    3    3    0    0 -0.15353268020E+02  0.11615002995E+02  0.13787263810E+02  0.23679522315E+02  0.51100000000E-03 0.  1.
         12    1    3    3    0    0  0.17491558127E+02 -0.88936534289E+01  0.10801049631E+02  0.22398981007E+02  0.00000000000E+00 0. -1.
</event>
<event>
 7    1  0.3449603E-013  0.5930195E+02  0.7816164E-02  0.1266605E+00
        -11   -1    0    0    0    0  0.00000000000E+00  0.00000000000E+00  0.45593999997E+02  0.45594000000E+02  0.51100000000E-03 0. -1.
         11   -1    0    0    0    0 -0.00000000000E+00 -0.00000000000E+00 -0.45593999997E+02  0.45594000000E+02  0.51100000000E-03 0.  1.
    9900012    2    1    2    0    0  0.17472784871E+02 -0.14468028983E+02 -0.22407547564E+02  0.59301948792E+02  0.50000008689E+02 0.  0.
         12    1    1    2    0    0 -0.17472784871E+02  0.14468028983E+02  0.22407547564E+02  0.31886051208E+02  0.00000000000E+00 0. -1.
         11    1    3    3    0    0  0.77540652080E+01 -0.12891117027E+02  0.44473870697E+00  0.15050057084E+02  0.51100000000E-03 0. -1.
        -11    1    3    3    0    0 -0.13498730368E+02 -0.18237131440E+01 -0.13627161916E+02  0.19267620333E+02  0.51100000000E-03 0.  1.
         12    1    3    3    0    0  0.23217450031E+02  0.24680118802E+00 -0.92251243554E+01  0.24984271375E+02  0.00000000000E+00 0. -1.
</event>
<event>
 7    1  0.3449603E-013  0.5930194E+02  0.7816164E-02  0.1266605E+00
        -11   -1    0    0    0    0  0.00000000000E+00  0.00000000000E+00  0.45593999997E+02  0.45594000000E+02  0.51100000000E-03 0. -1.
         11   -1    0    0    0    0 -0.00000000000E+00 -0.00000000000E+00 -0.45593999997E+02  0.45594000000E+02  0.51100000000E-03 0.  1.
    9900012    2    1    2    0    0  0.10379010642E+02  0.25218025879E+02 -0.16524170979E+02  0.59301938505E+02  0.49999989928E+02 0.  0.
         12    1    1    2    0    0 -0.10379010642E+02 -0.25218025879E+02  0.16524170979E+02  0.31886061495E+02  0.00000000000E+00 0. -1.
         11    1    3    3    0    0 -0.14945058013E+01  0.14355706482E+02  0.10322590879E+02  0.17744738344E+02  0.51100000000E-03 0. -1.
        -11    1    3    3    0    0  0.11838451344E+02  0.33355698572E+01  0.13498732742E+01  0.12373241880E+02  0.51100000000E-03 0.  1.
         12    1    3    3    0    0  0.35065099532E-01  0.75267495393E+01 -0.28196635132E+02  0.29183958281E+02  0.00000000000E+00 0. -1.
</event>
<event>
 7    1  0.3449603E-013  0.5930194E+02  0.7816164E-02  0.1266605E+00
        -11   -1    0    0    0    0  0.00000000000E+00  0.00000000000E+00  0.45593999997E+02  0.45594000000E+02  0.51100000000E-03 0. -1.
         11   -1    0    0    0    0 -0.00000000000E+00 -0.00000000000E+00 -0.45593999997E+02  0.45594000000E+02  0.51100000000E-03 0.  1.
    9900012    2    1    2    0    0 -0.17630001605E+00  0.31045192780E+02  0.72722772129E+01  0.59301935767E+02  0.49999984934E+02 0.  0.
         12    1    1    2    0    0  0.17630001605E+00 -0.31045192780E+02 -0.72722772129E+01  0.31886064233E+02  0.00000000000E+00 0. -1.
         11    1    3    3    0    0  0.45827658602E+01  0.12751961300E+02  0.15329731032E+02  0.20460080980E+02  0.51100000000E-03 0. -1.
        -11    1    3    3    0    0  0.15170635965E+01 -0.91571319021E+01  0.81698275456E+00  0.93178327797E+01  0.51100000000E-03 0.  1.
         12    1    3    3    0    0 -0.62761294727E+01  0.27450363382E+02 -0.88744365739E+01  0.29524022007E+02  0.00000000000E+00 0. -1.
</event>
<event>
 7    1  0.3449603E-013  0.5930195E+02  0.7816164E-02  0.1266605E+00
        -11   -1    0    0    0    0  0.00000000000E+00  0.00000000000E+00  0.45593999997E+02  0.45594000000E+02  0.51100000000E-03 0.  1.
         11   -1    0    0    0    0 -0.00000000000E+00 -0.00000000000E+00 -0.45593999997E+02  0.45594000000E+02  0.51100000000E-03 0. -1.
    9900012    2    1    2    0    0  0.15972813215E+02  0.36372675087E+01  0.27356164947E+02  0.59301949170E+02  0.50000009378E+02 0.  0.
         12    1    1    2    0    0 -0.15972813215E+02 -0.36372675087E+01 -0.27356164947E+02  0.31886050830E+02  0.00000000000E+00 0. -1.
         11    1    3    3    0    0  0.85893510193E+01 -0.45515433100E+01  0.11442032287E+02  0.15013780356E+02  0.51100000000E-03 0. -1.
        -11    1    3    3    0    0  0.18288469793E+02  0.39760402028E+01  0.23732467818E+02  0.30224279182E+02  0.51100000000E-03 0.  1.
         12    1    3    3    0    0 -0.10905007597E+02  0.42127706159E+01 -0.78183351579E+01  0.14063889633E+02  0.00000000000E+00 0. -1.
</event>
<event>
 7    1  0.3449603E-013  0.5930193E+02  0.7816164E-02  0.1266605E+00
        -11   -1    0    0    0    0  0.00000000000E+00  0.00000000000E+00  0.45593999997E+02  0.45594000000E+02  0.51100000000E-03 0.  1.
         11   -1    0    0    0    0 -0.00000000000E+00 -0.00000000000E+00 -0.45593999997E+02  0.45594000000E+02  0.51100000000E-03 0. -1.
    9900012    2    1    2    0    0  0.14175075212E+02 -0.53332878331E+01  0.28059667662E+02  0.59301926775E+02  0.49999968536E+02 0.  0.
         12    1    1    2    0    0 -0.14175075212E+02  0.53332878331E+01 -0.28059667662E+02  0.31886073225E+02  0.00000000000E+00 0. -1.
         11    1    3    3    0    0 -0.27205791503E+01 -0.15781932350E+01  0.99934352819E+01  0.10476688112E+02  0.51100000000E-03 0. -1.
        -11    1    3    3    0    0 -0.93651086985E+00  0.75085338647E+01  0.25393692021E+02  0.26497070180E+02  0.51100000000E-03 0.  1.
        -12    1    3    3    0    0  0.17832165233E+02 -0.11263628463E+02 -0.73274596412E+01  0.22328168483E+02  0.00000000000E+00 0.  1.
</event>
<event>
 7    1  0.3449603E-013  0.5930194E+02  0.7816164E-02  0.1266605E+00
        -11   -1    0    0    0    0  0.00000000000E+00  0.00000000000E+00  0.45593999997E+02  0.45594000000E+02  0.51100000000E-03 0.  1.
         11   -1    0    0    0    0 -0.00000000000E+00 -0.00000000000E+00 -0.45593999997E+02  0.45594000000E+02  0.51100000000E-03 0. -1.
    9900012    2    1    2    0    0 -0.10944468640E+02 -0.25431314255E+02  0.15817316739E+02  0.59301942744E+02  0.49999997658E+02 0.  0.
         12    1    1    2    0    0  0.10944468640E+02  0.25431314255E+02 -0.15817316739E+02  0.31886057256E+02  0.00000000000E+00 0. -1.
         11    1    3    3    0    0  0.25815712978E+01  0.21551642679E+01 -0.83085066626E+01  0.89632877122E+01  0.51100000000E-03 0. -1.
        -11    1    3    3    0    0 -0.15374975218E+02 -0.13306150229E+02  0.28751011798E+02  0.35214544957E+02  0.51100000000E-03 0.  1.
         12    1    3    3    0    0  0.18489352801E+01 -0.14280328293E+02 -0.46251883966E+01  0.15124110074E+02  0.00000000000E+00 0. -1.
</event>
<event>
 7    1  0.4178681E-013  0.5930194E+02  0.7816164E-02  0.1266605E+00
        -11   -1    0    0    0    0  0.00000000000E+00  0.00000000000E+00  0.45593999997E+02  0.45594000000E+02  0.51100000000E-03 0.  1.
         11   -1    0    0    0    0 -0.00000000000E+00 -0.00000000000E+00 -0.45593999997E+02  0.45594000000E+02  0.51100000000E-03 0. -1.
    9900012    2    1    2    0    0 -0.25132630199E+02  0.19622596725E+02  0.15893543852E+00  0.59301942492E+02  0.49999997199E+02 0.  0.
         12    1    1    2    0    0  0.25132630199E+02 -0.19622596725E+02 -0.15893543852E+00  0.31886057508E+02  0.00000000000E+00 0. -1.
         11    1    3    3    0    0 -0.13134463575E+02 -0.59701918614E+01 -0.56225324133E+01  0.15484514693E+02  0.51100000000E-03 0. -1.
        -11    1    3    3    0    0 -0.22656111313E+02  0.20228999178E+02  0.85811416384E+01  0.31561808878E+02  0.51100000000E-03 0.  1.
         12    1    3    3    0    0  0.10657944690E+02  0.53637894082E+01 -0.27996737866E+01  0.12255618921E+02  0.00000000000E+00 0. -1.
</event>
<event>
 7    1  0.3449603E-013  0.5930196E+02  0.7816164E-02  0.1266605E+00
        -11   -1    0    0    0    0  0.00000000000E+00  0.00000000000E+00  0.45593999997E+02  0.45594000000E+02  0.51100000000E-03 0.  1.
         11   -1    0    0    0    0 -0.00000000000E+00 -0.00000000000E+00 -0.45593999997E+02  0.45594000000E+02  0.51100000000E-03 0. -1.
    9900012    2    1    2    0    0  0.12402233970E+02 -0.25609284471E+02  0.14389884979E+02  0.59301958410E+02  0.50000026230E+02 0.  0.
         12    1    1    2    0    0 -0.12402233970E+02  0.25609284471E+02 -0.14389884979E+02  0.31886041590E+02  0.00000000000E+00 0. -1.
         11    1    3    3    0    0  0.19091466186E+02 -0.16696269992E+02 -0.44531050835E+01  0.25750333162E+02  0.51100000000E-03 0. -1.
        -11    1    3    3    0    0  0.88917251264E+01 -0.25932365325E+01  0.12552065887E+02  0.15599423378E+02  0.51100000000E-03 0.  1.
         12    1    3    3    0    0 -0.15580957343E+02 -0.63197779458E+01  0.62909241750E+01  0.17952201870E+02  0.00000000000E+00 0. -1.
</event>
<event>
 7    1  0.3449603E-013  0.5930195E+02  0.7816164E-02  0.1266605E+00
        -11   -1    0    0    0    0  0.00000000000E+00  0.00000000000E+00  0.45593999997E+02  0.45594000000E+02  0.51100000000E-03 0. -1.
         11   -1    0    0    0    0 -0.00000000000E+00 -0.00000000000E+00 -0.45593999997E+02  0.45594000000E+02  0.51100000000E-03 0.  1.
    9900012    2    1    2    0    0  0.16626077979E+01  0.31523532367E+02  0.44969503675E+01  0.59301954146E+02  0.50000018453E+02 0.  0.
         12    1    1    2    0    0 -0.16626077979E+01 -0.31523532367E+02 -0.44969503675E+01  0.31886045854E+02  0.00000000000E+00 0. -1.
         11    1    3    3    0    0 -0.13133099061E+02 -0.19690732341E+01 -0.10757496302E+02  0.17090326717E+02  0.51100000000E-03 0. -1.
        -11    1    3    3    0    0  0.10444219732E+02  0.10174646326E+02  0.11771468097E+01  0.14628425361E+02  0.51100000000E-03 0.  1.
        -12    1    3    3    0    0  0.43514871274E+01  0.23317959276E+02  0.14077299859E+02  0.27583202068E+02  0.00000000000E+00 0.  1.
</event>
<event>
 7    1  0.3449603E-013  0.5930195E+02  0.7816164E-02  0.1266605E+00
        -11   -1    0    0    0    0  0.00000000000E+00  0.00000000000E+00  0.45593999997E+02  0.45594000000E+02  0.51100000000E-03 0.  1.
         11   -1    0    0    0    0 -0.00000000000E+00 -0.00000000000E+00 -0.45593999997E+02  0.45594000000E+02  0.51100000000E-03 0. -1.
    9900012    2    1    2    0    0  0.34875129537E+01  0.44863573391E+01  0.31375627710E+02  0.59301950339E+02  0.50000011511E+02 0.  0.
         12    1    1    2    0    0 -0.34875129537E+01 -0.44863573391E+01 -0.31375627710E+02  0.31886049661E+02  0.00000000000E+00 0. -1.
         11    1    3    3    0    0 -0.14506976939E+02 -0.44578111167E+00  0.12429537446E+02  0.19108754593E+02  0.51100000000E-03 0. -1.
        -11    1    3    3    0    0  0.66753514979E+01 -0.12097333885E+02  0.12817020725E+02  0.18846268206E+02  0.51100000000E-03 0.  1.
         12    1    3    3    0    0  0.11319138394E+02  0.17029472336E+02  0.61290695384E+01  0.21346927541E+02  0.00000000000E+00 0. -1.
</event>
<event>
 7    1  0.3449603E-013  0.5930200E+02  0.7816164E-02  0.1266605E+00
        -11   -1    0    0    0    0  0.00000000000E+00  0.00000000000E+00  0.45593999997E+02  0.45594000000E+02  0.51100000000E-03 0.  1.
         11   -1    0    0    0    0 -0.00000000000E+00 -0.00000000000E+00 -0.45593999997E+02  0.45594000000E+02  0.51100000000E-03 0. -1.
    9900012    2    1    2    0    0  0.28827259207E+02  0.13319063669E+02  0.28824788172E+01  0.59301999709E+02  0.50000101549E+02 0.  0.
         12    1    1    2    0    0 -0.28827259207E+02 -0.13319063669E+02 -0.28824788172E+01  0.31886000291E+02  0.00000000000E+00 0. -1.
         11    1    3    3    0    0 -0.12655094274E+02  0.77809464198E+01  0.15488849641E+01  0.14936317591E+02  0.51100000000E-03 0.  1.
        -11    1    3    3    0    0  0.23759247278E+02  0.71204369112E+01 -0.53224567935E+01  0.25367912795E+02  0.51100000000E-03 0. -1.
        -12    1    3    3    0    0  0.17723106204E+02 -0.15823196616E+01  0.66560506466E+01  0.18997769323E+02  0.00000000000E+00 0.  1.
</event>
<event>
 7    1  0.3449603E-013  0.5930200E+02  0.7816164E-02  0.1266605E+00
        -11   -1    0    0    0    0  0.00000000000E+00  0.00000000000E+00  0.45593999997E+02  0.45594000000E+02  0.51100000000E-03 0. -1.
         11   -1    0    0    0    0 -0.00000000000E+00 -0.00000000000E+00 -0.45593999997E+02  0.45594000000E+02  0.51100000000E-03 0.  1.
    9900012    2    1    2    0    0 -0.18558014387E+02  0.20361988711E+02 -0.16053238327E+02  0.59302000831E+02  0.50000103595E+02 0.  0.
         12    1    1    2    0    0  0.18558014387E+02 -0.20361988711E+02  0.16053238327E+02  0.31885999169E+02  0.00000000000E+00 0. -1.
         11    1    3    3    0    0 -0.11542490048E+01  0.65118157095E+01 -0.90413629882E+00  0.66748406204E+01  0.51100000000E-03 0. -1.
        -11    1    3    3    0    0 -0.17584947090E+02  0.62375116828E+01 -0.30349394003E+02  0.35626150967E+02  0.51100000000E-03 0.  1.
         12    1    3    3    0    0  0.18118170823E+00  0.76126613187E+01  0.15200291975E+02  0.17001009243E+02  0.00000000000E+00 0. -1.
</event>
<event>
 7    1  0.3449603E-013  0.5930195E+02  0.7816164E-02  0.1266605E+00
        -11   -1    0    0    0    0  0.00000000000E+00  0.00000000000E+00  0.45593999997E+02  0.45594000000E+02  0.51100000000E-03 0.  1.
         11   -1    0    0    0    0 -0.00000000000E+00 -0.00000000000E+00 -0.45593999997E+02  0.45594000000E+02  0.51100000000E-03 0. -1.
    9900012    2    1    2    0    0 -0.21077627901E+02 -0.16617901050E+02  0.17213351182E+02  0.59301945177E+02  0.50000002096E+02 0.  0.
         12    1    1    2    0    0  0.21077627901E+02  0.16617901050E+02 -0.17213351182E+02  0.31886054823E+02  0.00000000000E+00 0. -1.
         11    1    3    3    0    0 -0.87178312563E+01 -0.14099267765E+02 -0.24814220956E+01  0.16761485292E+02  0.51100000000E-03 0. -1.
        -11    1    3    3    0    0 -0.56068409201E+01 -0.84649382829E+01 -0.83132675478E+01  0.13122585981E+02  0.51100000000E-03 0.  1.
        -12    1    3    3    0    0 -0.67529557250E+01  0.59463049974E+01  0.28008040826E+02  0.29417873904E+02  0.00000000000E+00 0.  1.
</event>
<event>
 7    1  0.3449603E-013  0.5930195E+02  0.7816164E-02  0.1266605E+00
        -11   -1    0    0    0    0  0.00000000000E+00  0.00000000000E+00  0.45593999997E+02  0.45594000000E+02  0.51100000000E-03 0. -1.
         11   -1    0    0    0    0 -0.00000000000E+00 -0.00000000000E+00 -0.45593999997E+02  0.45594000000E+02  0.51100000000E-03 0.  1.
    9900012    2    1    2    0    0  0.99404968393E+01 -0.17129482385E+02 -0.24989752386E+02  0.59301947116E+02  0.50000005632E+02 0.  0.
         12    1    1    2    0    0 -0.99404968393E+01  0.17129482385E+02  0.24989752386E+02  0.31886052884E+02  0.00000000000E+00 0. -1.
         11    1    3    3    0    0 -0.14079836586E+02 -0.36700108359E+01 -0.20169117591E+02  0.24869742309E+02  0.51100000000E-03 0. -1.
        -11    1    3    3    0    0 -0.15155187934E+01 -0.56051518504E+01  0.30790360851E+01  0.65722893998E+01  0.51100000000E-03 0.  1.
        -12    1    3    3    0    0  0.25535852219E+02 -0.78543196990E+01 -0.78996708806E+01  0.27859915407E+02  0.00000000000E+00 0.  1.
</event>
<event>
 7    1  0.3449603E-013  0.5930195E+02  0.7816164E-02  0.1266605E+00
        -11   -1    0    0    0    0  0.00000000000E+00  0.00000000000E+00  0.45593999997E+02  0.45594000000E+02  0.51100000000E-03 0.  1.
         11   -1    0    0    0    0 -0.00000000000E+00 -0.00000000000E+00 -0.45593999997E+02  0.45594000000E+02  0.51100000000E-03 0. -1.
    9900012    2    1    2    0    0  0.16909660878E+01 -0.29242105046E+01  0.31706624780E+02  0.59301946178E+02  0.50000003922E+02 0.  0.
         12    1    1    2    0    0 -0.16909660878E+01  0.29242105046E+01 -0.31706624780E+02  0.31886053822E+02  0.00000000000E+00 0. -1.
         11    1    3    3    0    0  0.14649604348E+02  0.87458552897E+01  0.11284964467E+02  0.20456082606E+02  0.51100000000E-03 0. -1.
        -11    1    3    3    0    0  0.60681914371E+01 -0.49251720281E+01  0.16533837564E+02  0.18287920922E+02  0.51100000000E-03 0.  1.
         12    1    3    3    0    0 -0.19026829698E+02 -0.67448937662E+01  0.38878227499E+01  0.20557942650E+02  0.00000000000E+00 0. -1.
</event>
<event>
 7    1  0.3449603E-013  0.5930177E+02  0.7816164E-02  0.1266605E+00
        -11   -1    0    0    0    0  0.00000000000E+00  0.00000000000E+00  0.45593999997E+02  0.45594000000E+02  0.51100000000E-03 0.  1.
         11   -1    0    0    0    0 -0.00000000000E+00 -0.00000000000E+00 -0.45593999997E+02  0.45594000000E+02  0.51100000000E-03 0. -1.
    9900012    2    1    2    0    0  0.13856919051E+02  0.10795063682E+02  0.26611724117E+02  0.59301773099E+02  0.49999688267E+02 0.  0.
         12    1    1    2    0    0 -0.13856919051E+02 -0.10795063682E+02 -0.26611724117E+02  0.31886226901E+02  0.00000000000E+00 0. -1.
         11    1    3    3    0    0  0.17900482206E+02  0.19754903073E+02  0.25906072817E+02  0.37172679049E+02  0.51100000000E-03 0. -1.
        -11    1    3    3    0    0  0.24575831321E+01  0.53782976252E+01  0.22134684524E+01  0.63138928600E+01  0.51100000000E-03 0.  1.
         12    1    3    3    0    0 -0.65011462871E+01 -0.14338137016E+02 -0.15078171524E+01  0.15815201191E+02  0.00000000000E+00 0. -1.
</event>
<event>
 7    1  0.3449603E-013  0.5930194E+02  0.7816164E-02  0.1266605E+00
        -11   -1    0    0    0    0  0.00000000000E+00  0.00000000000E+00  0.45593999997E+02  0.45594000000E+02  0.51100000000E-03 0.  1.
         11   -1    0    0    0    0 -0.00000000000E+00 -0.00000000000E+00 -0.45593999997E+02  0.45594000000E+02  0.51100000000E-03 0. -1.
    9900012    2    1    2    0    0 -0.31069393034E+02  0.68855709871E+01  0.20006832492E+01  0.59301937139E+02  0.49999987437E+02 0.  0.
         12    1    1    2    0    0  0.31069393034E+02 -0.68855709871E+01 -0.20006832492E+01  0.31886062861E+02  0.00000000000E+00 0. -1.
         11    1    3    3    0    0 -0.62094736591E+01  0.82081830822E+01  0.16838903854E+02  0.19735260726E+02  0.51100000000E-03 0. -1.
        -11    1    3    3    0    0 -0.18325512540E+01  0.94614397530E+01 -0.96048404681E+01  0.13606250291E+02  0.51100000000E-03 0.  1.
        -12    1    3    3    0    0 -0.23027368120E+02 -0.10784051848E+02 -0.52333801370E+01  0.25960426123E+02  0.00000000000E+00 0.  1.
</event>
<event>
 7    1  0.3449603E-013  0.5930195E+02  0.7816164E-02  0.1266605E+00
        -11   -1    0    0    0    0  0.00000000000E+00  0.00000000000E+00  0.45593999997E+02  0.45594000000E+02  0.51100000000E-03 0.  1.
         11   -1    0    0    0    0 -0.00000000000E+00 -0.00000000000E+00 -0.45593999997E+02  0.45594000000E+02  0.51100000000E-03 0. -1.
    9900012    2    1    2    0    0  0.10027020689E+02 -0.14354428510E+01  0.30234392065E+02  0.59301951270E+02  0.50000013209E+02 0.  0.
         12    1    1    2    0    0 -0.10027020689E+02  0.14354428510E+01 -0.30234392065E+02  0.31886048730E+02  0.00000000000E+00 0. -1.
         11    1    3    3    0    0 -0.29523291662E+01 -0.15527562755E+02  0.22378638351E+02  0.27397534695E+02  0.51100000000E-03 0. -1.
        -11    1    3    3    0    0 -0.13325612633E+01 -0.18978578874E+01  0.10067605549E+02  0.10331227702E+02  0.51100000000E-03 0.  1.
         12    1    3    3    0    0  0.14311911118E+02  0.15989977792E+02 -0.22118518354E+01  0.21573188874E+02  0.00000000000E+00 0. -1.
</event>
<event>
 7    1  0.3449603E-013  0.5930195E+02  0.7816164E-02  0.1266605E+00
        -11   -1    0    0    0    0  0.00000000000E+00  0.00000000000E+00  0.45593999997E+02  0.45594000000E+02  0.51100000000E-03 0. -1.
         11   -1    0    0    0    0 -0.00000000000E+00 -0.00000000000E+00 -0.45593999997E+02  0.45594000000E+02  0.51100000000E-03 0.  1.
    9900012    2    1    2    0    0  0.95748873213E+00  0.16697781573E+02 -0.27147510943E+02  0.59301952196E+02  0.50000014898E+02 0.  0.
         12    1    1    2    0    0 -0.95748873213E+00 -0.16697781573E+02  0.27147510943E+02  0.31886047804E+02  0.00000000000E+00 0. -1.
         11    1    3    3    0    0 -0.23390815273E+01 -0.13227062915E+01  0.13625503077E+01  0.30128720396E+01  0.51100000000E-03 0. -1.
        -11    1    3    3    0    0  0.56878204007E+01  0.71625252295E+01  0.11539687583E+02  0.14724722692E+02  0.51100000000E-03 0.  1.
        -12    1    3    3    0    0 -0.23912501413E+01  0.10857962636E+02 -0.40049748834E+02  0.41564357465E+02  0.00000000000E+00 0.  1.
</event>
<event>
 7    1  0.3449603E-013  0.5930194E+02  0.7816164E-02  0.1266605E+00
        -11   -1    0    0    0    0  0.00000000000E+00  0.00000000000E+00  0.45593999997E+02  0.45594000000E+02  0.51100000000E-03 0. -1.
         11   -1    0    0    0    0 -0.00000000000E+00 -0.00000000000E+00 -0.45593999997E+02  0.45594000000E+02  0.51100000000E-03 0.  1.
    9900012    2    1    2    0    0  0.26106898603E+01  0.24822428299E+02 -0.19843181649E+02  0.59301944957E+02  0.50000001695E+02 0.  0.
         12    1    1    2    0    0 -0.26106898603E+01 -0.24822428299E+02  0.19843181649E+02  0.31886055043E+02  0.00000000000E+00 0. -1.
         11    1    3    3    0    0 -0.52119079151E+01 -0.22077265323E+01 -0.19151881894E+01  0.59754486542E+01  0.51100000000E-03 0. -1.
        -11    1    3    3    0    0  0.37342044340E+01  0.71944573931E+01  0.13612738704E+02  0.15843331569E+02  0.51100000000E-03 0.  1.
        -12    1    3    3    0    0  0.40883933415E+01  0.19835697439E+02 -0.31540732164E+02  0.37483164733E+02  0.00000000000E+00 0.  1.
</event>
<event>
 7    1  0.3449603E-013  0.5930194E+02  0.7816164E-02  0.1266605E+00
        -11   -1    0    0    0    0  0.00000000000E+00  0.00000000000E+00  0.45593999997E+02  0.45594000000E+02  0.51100000000E-03 0.  1.
         11   -1    0    0    0    0 -0.00000000000E+00 -0.00000000000E+00 -0.45593999997E+02  0.45594000000E+02  0.51100000000E-03 0. -1.
    9900012    2    1    2    0    0  0.67262819350E+01  0.28932732987E+02  0.11592024707E+02  0.59301938099E+02  0.49999989187E+02 0.  0.
         12    1    1    2    0    0 -0.67262819350E+01 -0.28932732987E+02 -0.11592024707E+02  0.31886061901E+02  0.00000000000E+00 0. -1.
         11    1    3    3    0    0  0.24526748463E+02  0.87514365363E+01  0.12268715761E+02  0.28786636106E+02  0.51100000000E-03 0. -1.
        -11    1    3    3    0    0 -0.39936227263E+01  0.10164896413E+02  0.56822914909E+01  0.12311075437E+02  0.51100000000E-03 0.  1.
        -12    1    3    3    0    0 -0.13806843802E+02  0.10016400038E+02 -0.63589825445E+01  0.18204226556E+02  0.00000000000E+00 0.  1.
</event>
<event>
 7    1  0.3449603E-013  0.5930193E+02  0.7816164E-02  0.1266605E+00
        -11   -1    0    0    0    0  0.00000000000E+00  0.00000000000E+00  0.45593999997E+02  0.45594000000E+02  0.51100000000E-03 0.  1.
         11   -1    0    0    0    0 -0.00000000000E+00 -0.00000000000E+00 -0.45593999997E+02  0.45594000000E+02  0.51100000000E-03 0. -1.
    9900012    2    1    2    0    0 -0.16076323707E+02  0.26668273453E+02  0.68612356352E+01  0.59301928631E+02  0.49999971921E+02 0.  0.
         12    1    1    2    0    0  0.16076323707E+02 -0.26668273453E+02 -0.68612356352E+01  0.31886071369E+02  0.00000000000E+00 0. -1.
         11    1    3    3    0    0 -0.10588656738E+02  0.12982735820E+02  0.42085555709E+01  0.17273766849E+02  0.51100000000E-03 0. -1.
        -11    1    3    3    0    0 -0.13484325116E+02  0.20189825507E+02  0.12900308066E+02  0.27493163265E+02  0.51100000000E-03 0.  1.
         12    1    3    3    0    0  0.79966581470E+01 -0.65042878741E+01 -0.10247628002E+02  0.14534998518E+02  0.00000000000E+00 0. -1.
</event>
<event>
 7    1  0.3449603E-013  0.5930195E+02  0.7816164E-02  0.1266605E+00
        -11   -1    0    0    0    0  0.00000000000E+00  0.00000000000E+00  0.45593999997E+02  0.45594000000E+02  0.51100000000E-03 0.  1.
         11   -1    0    0    0    0 -0.00000000000E+00 -0.00000000000E+00 -0.45593999997E+02  0.45594000000E+02  0.51100000000E-03 0. -1.
    9900012    2    1    2    0    0 -0.44933594760E+01  0.31564004557E+02  0.49350996996E+00  0.59301949521E+02  0.50000010018E+02 0.  0.
         12    1    1    2    0    0  0.44933594760E+01 -0.31564004557E+02 -0.49350996996E+00  0.31886050479E+02  0.00000000000E+00 0. -1.
         11    1    3    3    0    0  0.17230323953E+01  0.15468248295E+02  0.88737336815E+01  0.17915878311E+02  0.51100000000E-03 0. -1.
        -11    1    3    3    0    0 -0.53058358737E+01  0.19821543805E+02  0.98469116897E+01  0.22759770719E+02  0.51100000000E-03 0.  1.
         12    1    3    3    0    0 -0.91055599759E+00 -0.37257875420E+01 -0.18227135401E+02  0.18626300491E+02  0.00000000000E+00 0. -1.
</event>
<event>
 7    1  0.3449603E-013  0.5930194E+02  0.7816164E-02  0.1266605E+00
        -11   -1    0    0    0    0  0.00000000000E+00  0.00000000000E+00  0.45593999997E+02  0.45594000000E+02  0.51100000000E-03 0.  1.
         11   -1    0    0    0    0 -0.00000000000E+00 -0.00000000000E+00 -0.45593999997E+02  0.45594000000E+02  0.51100000000E-03 0. -1.
    9900012    2    1    2    0    0 -0.18495414582E+02  0.20291367086E+02  0.16214226315E+02  0.59301936058E+02  0.49999985464E+02 0.  0.
         12    1    1    2    0    0  0.18495414582E+02 -0.20291367086E+02 -0.16214226315E+02  0.31886063942E+02  0.00000000000E+00 0. -1.
         11    1    3    3    0    0 -0.57010431598E+01  0.16561563388E+02  0.14128970866E+02  0.22503668433E+02  0.51100000000E-03 0. -1.
        -11    1    3    3    0    0  0.86535874175E+01  0.11957328483E+01  0.10465397909E+02  0.13632274421E+02  0.51100000000E-03 0.  1.
         12    1    3    3    0    0 -0.21447958839E+02  0.25340708499E+01 -0.83801424603E+01  0.23165993203E+02  0.00000000000E+00 0. -1.
</event>
<event>
 7    1  0.3449603E-013  0.5930197E+02  0.7816164E-02  0.1266605E+00
        -11   -1    0    0    0    0  0.00000000000E+00  0.00000000000E+00  0.45593999997E+02  0.45594000000E+02  0.51100000000E-03 0. -1.
         11   -1    0    0    0    0 -0.00000000000E+00 -0.00000000000E+00 -0.45593999997E+02  0.45594000000E+02  0.51100000000E-03 0.  1.
    9900012    2    1    2    0    0  0.26626775359E+02 -0.11176770519E+02  0.13520852686E+02  0.59301971357E+02  0.50000049842E+02 0.  0.
         12    1    1    2    0    0 -0.26626775359E+02  0.11176770519E+02 -0.13520852686E+02  0.31886028643E+02  0.00000000000E+00 0. -1.
         11    1    3    3    0    0  0.92487467052E+01 -0.15077651037E+02  0.29443500778E+01  0.17931650065E+02  0.51100000000E-03 0. -1.
        -11    1    3    3    0    0  0.52961595822E+01 -0.75769358739E+01  0.20137273201E+02  0.22157821098E+02  0.51100000000E-03 0.  1.
        -12    1    3    3    0    0  0.12081869071E+02  0.11477816392E+02 -0.95607705929E+01  0.19212500194E+02  0.00000000000E+00 0.  1.
</event>
<event>
 7    1  0.3449603E-013  0.5930195E+02  0.7816164E-02  0.1266605E+00
        -11   -1    0    0    0    0  0.00000000000E+00  0.00000000000E+00  0.45593999997E+02  0.45594000000E+02  0.51100000000E-03 0.  1.
         11   -1    0    0    0    0 -0.00000000000E+00 -0.00000000000E+00 -0.45593999997E+02  0.45594000000E+02  0.51100000000E-03 0. -1.
    9900012    2    1    2    0    0 -0.70178935435E+01  0.17596446555E+02  0.25648285186E+02  0.59301948282E+02  0.50000007759E+02 0.  0.
         12    1    1    2    0    0  0.70178935435E+01 -0.17596446555E+02 -0.25648285186E+02  0.31886051718E+02  0.00000000000E+00 0. -1.
         11    1    3    3    0    0 -0.43532254131E+01 -0.12208655262E+02  0.34311136317E+01  0.13407996712E+02  0.51100000000E-03 0. -1.
        -11    1    3    3    0    0  0.19453450057E+01  0.16402964490E+02  0.26377979363E+02  0.31122972332E+02  0.51100000000E-03 0.  1.
        -12    1    3    3    0    0 -0.46100131361E+01  0.13402137327E+02 -0.41608078083E+01  0.14770979238E+02  0.00000000000E+00 0.  1.
</event>
<event>
 7    1  0.3449603E-013  0.5930207E+02  0.7816164E-02  0.1266604E+00
        -11   -1    0    0    0    0  0.00000000000E+00  0.00000000000E+00  0.45593999997E+02  0.45594000000E+02  0.51100000000E-03 0. -1.
         11   -1    0    0    0    0 -0.00000000000E+00 -0.00000000000E+00 -0.45593999997E+02  0.45594000000E+02  0.51100000000E-03 0.  1.
    9900012    2    1    2    0    0 -0.13290266030E+01  0.30888990549E+02 -0.77984855538E+01  0.59302071665E+02  0.50000232780E+02 0.  0.
         12    1    1    2    0    0  0.13290266030E+01 -0.30888990549E+02  0.77984855538E+01  0.31885928335E+02  0.00000000000E+00 0. -1.
         11    1    3    3    0    0  0.49799195893E+01  0.46015654937E+01 -0.72129862431E+01  0.98995542785E+01  0.51100000000E-03 0. -1.
        -11    1    3    3    0    0 -0.11286403885E+02 -0.85735089188E+01 -0.64117616203E+00  0.14187990519E+02  0.51100000000E-03 0.  1.
         12    1    3    3    0    0  0.49774576925E+01  0.34860933974E+02  0.55676851329E-01  0.35214526868E+02  0.00000000000E+00 0. -1.
</event>
<event>
 7    1  0.3449603E-013  0.5930196E+02  0.7816164E-02  0.1266605E+00
        -11   -1    0    0    0    0  0.00000000000E+00  0.00000000000E+00  0.45593999997E+02  0.45594000000E+02  0.51100000000E-03 0.  1.
         11   -1    0    0    0    0 -0.00000000000E+00 -0.00000000000E+00 -0.45593999997E+02  0.45594000000E+02  0.51100000000E-03 0. -1.
    9900012    2    1    2    0    0  0.53829257769E+01  0.36761801818E+01  0.31212648773E+02  0.59301958633E+02  0.50000026637E+02 0.  0.
         12    1    1    2    0    0 -0.53829257769E+01 -0.36761801818E+01 -0.31212648773E+02  0.31886041367E+02  0.00000000000E+00 0. -1.
         11    1    3    3    0    0  0.19926746464E+02  0.18919482983E+01  0.41246441447E+01  0.20436912256E+02  0.51100000000E-03 0. -1.
        -11    1    3    3    0    0  0.10561311612E+01 -0.55287324154E+01  0.19029684518E+02  0.19844676572E+02  0.51100000000E-03 0.  1.
         12    1    3    3    0    0 -0.15599951848E+02  0.73129642989E+01  0.80583201099E+01  0.19020369804E+02  0.00000000000E+00 0. -1.
</event>
<event>
 7    1  0.3449603E-013  0.5930194E+02  0.7816164E-02  0.1266605E+00
        -11   -1    0    0    0    0  0.00000000000E+00  0.00000000000E+00  0.45593999997E+02  0.45594000000E+02  0.51100000000E-03 0.  1.
         11   -1    0    0    0    0 -0.00000000000E+00 -0.00000000000E+00 -0.45593999997E+02  0.45594000000E+02  0.51100000000E-03 0. -1.
    9900012    2    1    2    0    0  0.10461071544E+01  0.15182351281E+02  0.28020041015E+02  0.59301939894E+02  0.49999992462E+02 0.  0.
         12    1    1    2    0    0 -0.10461071544E+01 -0.15182351281E+02 -0.28020041015E+02  0.31886060106E+02  0.00000000000E+00 0. -1.
         11    1    3    3    0    0  0.52562427997E+01  0.16235901621E+02  0.10435572109E+02  0.20003343603E+02  0.51100000000E-03 0. -1.
        -11    1    3    3    0    0  0.93230809110E+01 -0.18771537894E+01 -0.65978504860E+01  0.11574764590E+02  0.51100000000E-03 0.  1.
        -12    1    3    3    0    0 -0.13533216556E+02  0.82360344927E+00  0.24182319392E+02  0.27723831701E+02  0.00000000000E+00 0.  1.
</event>
<event>
 7    1  0.3449603E-013  0.5930194E+02  0.7816164E-02  0.1266605E+00
        -11   -1    0    0    0    0  0.00000000000E+00  0.00000000000E+00  0.45593999997E+02  0.45594000000E+02  0.51100000000E-03 0. -1.
         11   -1    0    0    0    0 -0.00000000000E+00 -0.00000000000E+00 -0.45593999997E+02  0.45594000000E+02  0.51100000000E-03 0.  1.
    9900012    2    1    2    0    0  0.28284846601E+02  0.76028802354E+01 -0.12604951528E+02  0.59301935048E+02  0.49999983623E+02 0.  0.
         12    1    1    2    0    0 -0.28284846601E+02 -0.76028802354E+01  0.12604951528E+02  0.31886064952E+02  0.00000000000E+00 0. -1.
         11    1    3    3    0    0  0.22180502134E+02 -0.31934638241E+01  0.10584172945E+02  0.24783010376E+02  0.51100000000E-03 0. -1.
        -11    1    3    3    0    0  0.39289061193E+00 -0.46489227528E+01 -0.15791309593E+02  0.16466095613E+02  0.51100000000E-03 0.  1.
        -12    1    3    3    0    0  0.57114538550E+01  0.15445266812E+02 -0.73978148801E+01  0.18052829059E+02  0.00000000000E+00 0.  1.
</event>
<event>
 7    1  0.3449603E-013  0.5930193E+02  0.7816164E-02  0.1266605E+00
        -11   -1    0    0    0    0  0.00000000000E+00  0.00000000000E+00  0.45593999997E+02  0.45594000000E+02  0.51100000000E-03 0.  1.
         11   -1    0    0    0    0 -0.00000000000E+00 -0.00000000000E+00 -0.45593999997E+02  0.45594000000E+02  0.51100000000E-03 0. -1.
    9900012    2    1    2    0    0 -0.23274859186E+02 -0.10741240479E+01  0.21768063282E+02  0.59301931073E+02  0.49999976373E+02 0.  0.
         12    1    1    2    0    0  0.23274859186E+02  0.10741240479E+01 -0.21768063282E+02  0.31886068927E+02  0.00000000000E+00 0. -1.
         11    1    3    3    0    0  0.36823558634E+01 -0.94865171088E+01  0.61112141196E+01  0.11870159638E+02  0.51100000000E-03 0. -1.
        -11    1    3    3    0    0 -0.21397852702E+02 -0.10394123146E+02  0.14339926587E+02  0.27776597902E+02  0.51100000000E-03 0.  1.
         12    1    3    3    0    0 -0.55593623474E+01  0.18806516206E+02  0.13169225759E+01  0.19655173533E+02  0.00000000000E+00 0. -1.
</event>
<event>
 7    1  0.3449603E-013  0.5930194E+02  0.7816164E-02  0.1266605E+00
        -11   -1    0    0    0    0  0.00000000000E+00  0.00000000000E+00  0.45593999997E+02  0.45594000000E+02  0.51100000000E-03 0.  1.
         11   -1    0    0    0    0 -0.00000000000E+00 -0.00000000000E+00 -0.45593999997E+02  0.45594000000E+02  0.51100000000E-03 0. -1.
    9900012    2    1    2    0    0  0.12098049212E+01  0.41985218692E+01  0.31585270207E+02  0.59301944930E+02  0.50000001646E+02 0.  0.
         12    1    1    2    0    0 -0.12098049212E+01 -0.41985218692E+01 -0.31585270207E+02  0.31886055070E+02  0.00000000000E+00 0. -1.
         11    1    3    3    0    0 -0.97277959813E+01  0.11452176780E+02 -0.82219404186E+00  0.15048533847E+02  0.51100000000E-03 0. -1.
        -11    1    3    3    0    0  0.11228048108E+02  0.82797954123E+01  0.10811662305E+02  0.17649819218E+02  0.51100000000E-03 0.  1.
        -12    1    3    3    0    0 -0.29044720501E+00 -0.15533450323E+02  0.21595801944E+02  0.26603591865E+02  0.00000000000E+00 0.  1.
</event>
<event>
 7    1  0.3449603E-013  0.5930195E+02  0.7816164E-02  0.1266605E+00
        -11   -1    0    0    0    0  0.00000000000E+00  0.00000000000E+00  0.45593999997E+02  0.45594000000E+02  0.51100000000E-03 0.  1.
         11   -1    0    0    0    0 -0.00000000000E+00 -0.00000000000E+00 -0.45593999997E+02  0.45594000000E+02  0.51100000000E-03 0. -1.
    9900012    2    1    2    0    0 -0.67327851659E+00  0.17413540383E+02  0.26702729136E+02  0.59301946059E+02  0.50000003705E+02 0.  0.
         12    1    1    2    0    0  0.67327851659E+00 -0.17413540383E+02 -0.26702729136E+02  0.31886053941E+02  0.00000000000E+00 0. -1.
         11    1    3    3    0    0  0.29696186794E+01 -0.64433469330E+01  0.10564572807E+02  0.12725783027E+02  0.51100000000E-03 0. -1.
        -11    1    3    3    0    0  0.48575328128E-01  0.24892907160E+02  0.25999974615E+02  0.35995247835E+02  0.51100000000E-03 0.  1.
         12    1    3    3    0    0 -0.36914725241E+01 -0.10360198443E+01 -0.98618182861E+01  0.10580915198E+02  0.00000000000E+00 0. -1.
</event>
<event>
 7    1  0.3449603E-013  0.5930195E+02  0.7816164E-02  0.1266605E+00
        -11   -1    0    0    0    0  0.00000000000E+00  0.00000000000E+00  0.45593999997E+02  0.45594000000E+02  0.51100000000E-03 0. -1.
         11   -1    0    0    0    0 -0.00000000000E+00 -0.00000000000E+00 -0.45593999997E+02  0.45594000000E+02  0.51100000000E-03 0.  1.
    9900012    2    1    2    0    0 -0.25066977235E+02 -0.94698672782E+01 -0.17282613932E+02  0.59301945395E+02  0.50000002493E+02 0.  0.
         12    1    1    2    0    0  0.25066977235E+02  0.94698672782E+01  0.17282613932E+02  0.31886054605E+02  0.00000000000E+00 0. -1.
         11    1    3    3    0    0  0.43167170464E+01 -0.19432362627E+02 -0.18648249301E+02  0.27276509410E+02  0.51100000000E-03 0. -1.
        -11    1    3    3    0    0  0.97831463283E-01  0.98485482100E+00 -0.57788469330E+00  0.11460632590E+01  0.51100000000E-03 0.  1.
        -12    1    3    3    0    0 -0.29481525745E+02  0.89776405279E+01  0.19435200629E+01  0.30879372726E+02  0.00000000000E+00 0.  1.
</event>
<event>
 7    1  0.3449603E-013  0.5930197E+02  0.7816164E-02  0.1266605E+00
        -11   -1    0    0    0    0  0.00000000000E+00  0.00000000000E+00  0.45593999997E+02  0.45594000000E+02  0.51100000000E-03 0.  1.
         11   -1    0    0    0    0 -0.00000000000E+00 -0.00000000000E+00 -0.45593999997E+02  0.45594000000E+02  0.51100000000E-03 0. -1.
    9900012    2    1    2    0    0 -0.62926306503E+01  0.24964010680E+02  0.18812761391E+02  0.59301968248E+02  0.50000044172E+02 0.  0.
         12    1    1    2    0    0  0.62926306503E+01 -0.24964010680E+02 -0.18812761391E+02  0.31886031752E+02  0.00000000000E+00 0. -1.
         11    1    3    3    0    0  0.47611131851E+01  0.15091315979E+02  0.14449737250E+02  0.21429207255E+02  0.51100000000E-03 0. -1.
        -11    1    3    3    0    0 -0.11087413044E+02  0.16742461931E+02  0.15100963819E+02  0.25125283442E+02  0.51100000000E-03 0.  1.
         12    1    3    3    0    0  0.33669208172E-01 -0.68697672302E+01 -0.10737939677E+02  0.12747477551E+02  0.00000000000E+00 0. -1.
</event>
<event>
 7    1  0.3449603E-013  0.5930192E+02  0.7816164E-02  0.1266605E+00
        -11   -1    0    0    0    0  0.00000000000E+00  0.00000000000E+00  0.45593999997E+02  0.45594000000E+02  0.51100000000E-03 0. -1.
         11   -1    0    0    0    0 -0.00000000000E+00 -0.00000000000E+00 -0.45593999997E+02  0.45594000000E+02  0.51100000000E-03 0.  1.
    9900012    2    1    2    0    0 -0.26635112059E+02 -0.11284427450E+02 -0.13414720646E+02  0.59301917970E+02  0.49999952477E+02 0.  0.
         12    1    1    2    0    0  0.26635112059E+02  0.11284427450E+02  0.13414720646E+02  0.31886082030E+02  0.00000000000E+00 0. -1.
         11    1    3    3    0    0 -0.13299208132E+02  0.13743206848E+02 -0.11582299281E+02  0.22358316759E+02  0.51100000000E-03 0. -1.
        -11    1    3    3    0    0 -0.18762787895E+02 -0.13074186570E+02 -0.50670018694E+01  0.23423301908E+02  0.51100000000E-03 0.  1.
         12    1    3    3    0    0  0.54268839687E+01 -0.11953447728E+02  0.32345805044E+01  0.13520299302E+02  0.00000000000E+00 0. -1.
</event>
<event>
 7    1  0.3449603E-013  0.5930195E+02  0.7816164E-02  0.1266605E+00
        -11   -1    0    0    0    0  0.00000000000E+00  0.00000000000E+00  0.45593999997E+02  0.45594000000E+02  0.51100000000E-03 0.  1.
         11   -1    0    0    0    0 -0.00000000000E+00 -0.00000000000E+00 -0.45593999997E+02  0.45594000000E+02  0.51100000000E-03 0. -1.
    9900012    2    1    2    0    0 -0.30254703159E+02 -0.42359276582E+01  0.91339992537E+01  0.59301951504E+02  0.50000013634E+02 0.  0.
         12    1    1    2    0    0  0.30254703159E+02  0.42359276582E+01 -0.91339992537E+01  0.31886048496E+02  0.00000000000E+00 0. -1.
         11    1    3    3    0    0 -0.17061051283E+02  0.63437068291E+01 -0.56614409142E+01  0.19062371329E+02  0.51100000000E-03 0. -1.
        -11    1    3    3    0    0 -0.12980171748E+02  0.89367021623E+01  0.18431337645E-01  0.15759119395E+02  0.51100000000E-03 0.  1.
         12    1    3    3    0    0 -0.21348012837E+00 -0.19516336650E+02  0.14777008830E+02  0.24480460779E+02  0.00000000000E+00 0. -1.
</event>
<event>
 7    1  0.3449603E-013  0.5930197E+02  0.7816164E-02  0.1266605E+00
        -11   -1    0    0    0    0  0.00000000000E+00  0.00000000000E+00  0.45593999997E+02  0.45594000000E+02  0.51100000000E-03 0. -1.
         11   -1    0    0    0    0 -0.00000000000E+00 -0.00000000000E+00 -0.45593999997E+02  0.45594000000E+02  0.51100000000E-03 0.  1.
    9900012    2    1    2    0    0  0.87917040321E+01 -0.26120080587E+02 -0.16036413210E+02  0.59301965152E+02  0.50000038526E+02 0.  0.
         12    1    1    2    0    0 -0.87917040321E+01  0.26120080587E+02  0.16036413210E+02  0.31886034848E+02  0.00000000000E+00 0. -1.
         11    1    3    3    0    0  0.66024670113E+00 -0.69553234634E+00  0.76236855906E+01  0.76837668624E+01  0.51100000000E-03 0. -1.
        -11    1    3    3    0    0 -0.76333780697E+01 -0.26169373977E+01  0.67106482501E+01  0.10495219021E+02  0.51100000000E-03 0.  1.
        -12    1    3    3    0    0  0.15764835401E+02 -0.22807610843E+02 -0.30370747050E+02  0.41122979269E+02  0.00000000000E+00 0.  1.
</event>
<event>
 7    1  0.3449603E-013  0.5930185E+02  0.7816164E-02  0.1266605E+00
        -11   -1    0    0    0    0  0.00000000000E+00  0.00000000000E+00  0.45593999997E+02  0.45594000000E+02  0.51100000000E-03 0.  1.
         11   -1    0    0    0    0 -0.00000000000E+00 -0.00000000000E+00 -0.45593999997E+02  0.45594000000E+02  0.51100000000E-03 0. -1.
    9900012    2    1    2    0    0  0.22778310788E+02 -0.92524986615E+01  0.20304336785E+02  0.59301854637E+02  0.49999836973E+02 0.  0.
         12    1    1    2    0    0 -0.22778310788E+02  0.92524986615E+01 -0.20304336785E+02  0.31886145363E+02  0.00000000000E+00 0. -1.
         11    1    3    3    0    0  0.30257855511E+01  0.23331723293E+01 -0.45317420197E+01  0.59275422659E+01  0.51100000000E-03 0. -1.
        -11    1    3    3    0    0  0.15056535368E+02  0.10786351309E+02  0.24241139481E+02  0.30507006990E+02  0.51100000000E-03 0.  1.
         12    1    3    3    0    0  0.46959898689E+01 -0.22372022300E+02  0.59493932306E+00  0.22867305382E+02  0.00000000000E+00 0. -1.
</event>
<event>
 7    1  0.3449603E-013  0.5930195E+02  0.7816164E-02  0.1266605E+00
        -11   -1    0    0    0    0  0.00000000000E+00  0.00000000000E+00  0.45593999997E+02  0.45594000000E+02  0.51100000000E-03 0.  1.
         11   -1    0    0    0    0 -0.00000000000E+00 -0.00000000000E+00 -0.45593999997E+02  0.45594000000E+02  0.51100000000E-03 0. -1.
    9900012    2    1    2    0    0 -0.49581251861E+01  0.25609793617E+02  0.18337820658E+02  0.59301949744E+02  0.50000010424E+02 0.  0.
         12    1    1    2    0    0  0.49581251861E+01 -0.25609793617E+02 -0.18337820658E+02  0.31886050256E+02  0.00000000000E+00 0. -1.
         11    1    3    3    0    0 -0.20968726665E+02  0.16096944023E+02  0.46852557754E+01  0.26846801053E+02  0.51100000000E-03 0. -1.
        -11    1    3    3    0    0  0.46757223506E+01  0.13191783013E+02 -0.43569843182E+00  0.14002690882E+02  0.51100000000E-03 0.  1.
        -12    1    3    3    0    0  0.11334879128E+02 -0.36789334194E+01  0.14088263314E+02  0.18452457808E+02  0.00000000000E+00 0.  1.
</event>
<event>
 7    1  0.3449603E-013  0.5930195E+02  0.7816164E-02  0.1266605E+00
        -11   -1    0    0    0    0  0.00000000000E+00  0.00000000000E+00  0.45593999997E+02  0.45594000000E+02  0.51100000000E-03 0.  1.
         11   -1    0    0    0    0 -0.00000000000E+00 -0.00000000000E+00 -0.45593999997E+02  0.45594000000E+02  0.51100000000E-03 0. -1.
    9900012    2    1    2    0    0  0.91687205079E+01 -0.30428666516E+02 -0.25983168487E+01  0.59301946119E+02  0.50000003813E+02 0.  0.
         12    1    1    2    0    0 -0.91687205079E+01  0.30428666516E+02  0.25983168487E+01  0.31886053881E+02  0.00000000000E+00 0. -1.
         11    1    3    3    0    0  0.11956098798E+02 -0.31593090493E+01 -0.15850401968E+02  0.20103849755E+02  0.51100000000E-03 0. -1.
        -11    1    3    3    0    0  0.64493534689E+01 -0.22930183466E+02  0.18434099921E+01  0.23891120414E+02  0.51100000000E-03 0.  1.
        -12    1    3    3    0    0 -0.92367317593E+01 -0.43391740003E+01  0.11408675127E+02  0.15306975951E+02  0.00000000000E+00 0.  1.
</event>
<event>
 7    1  0.3449603E-013  0.5930179E+02  0.7816164E-02  0.1266605E+00
        -11   -1    0    0    0    0  0.00000000000E+00  0.00000000000E+00  0.45593999997E+02  0.45594000000E+02  0.51100000000E-03 0.  1.
         11   -1    0    0    0    0 -0.00000000000E+00 -0.00000000000E+00 -0.45593999997E+02  0.45594000000E+02  0.51100000000E-03 0. -1.
    9900012    2    1    2    0    0  0.23278029198E+01  0.18924645658E+02  0.25557177726E+02  0.59301792747E+02  0.49999724099E+02 0.  0.
         12    1    1    2    0    0 -0.23278029198E+01 -0.18924645658E+02 -0.25557177726E+02  0.31886207253E+02  0.00000000000E+00 0. -1.
         11    1    3    3    0    0  0.51895202516E+01  0.22110374971E-01 -0.10643699470E+02  0.11841450417E+02  0.51100000000E-03 0. -1.
        -11    1    3    3    0    0 -0.97012026102E+01  0.13105886969E+00  0.65477336086E+01  0.11704841912E+02  0.51100000000E-03 0.  1.
        -12    1    3    3    0    0  0.68394852784E+01  0.18771476413E+02  0.29653143587E+02  0.35755500418E+02  0.00000000000E+00 0.  1.
</event>
<event>
 7    1  0.3449603E-013  0.5930195E+02  0.7816164E-02  0.1266605E+00
        -11   -1    0    0    0    0  0.00000000000E+00  0.00000000000E+00  0.45593999997E+02  0.45594000000E+02  0.51100000000E-03 0.  1.
         11   -1    0    0    0    0 -0.00000000000E+00 -0.00000000000E+00 -0.45593999997E+02  0.45594000000E+02  0.51100000000E-03 0. -1.
    9900012    2    1    2    0    0 -0.15451191876E+02 -0.10807220884E+02  0.25713510932E+02  0.59301952925E+02  0.50000016226E+02 0.  0.
         12    1    1    2    0    0  0.15451191876E+02  0.10807220884E+02 -0.25713510932E+02  0.31886047075E+02  0.00000000000E+00 0. -1.
         11    1    3    3    0    0 -0.48011277905E+01  0.57740036921E+01 -0.41593761211E+01  0.85843087477E+01  0.51100000000E-03 0. -1.
        -11    1    3    3    0    0 -0.10081025848E+02 -0.95527713926E+01  0.37703483874E+02  0.40180035091E+02  0.51100000000E-03 0.  1.
         12    1    3    3    0    0 -0.56903823791E+00 -0.70284531835E+01 -0.78305968213E+01  0.10537609086E+02  0.00000000000E+00 0. -1.
</event>
<event>
 7    1  0.3449603E-013  0.5930194E+02  0.7816164E-02  0.1266605E+00
        -11   -1    0    0    0    0  0.00000000000E+00  0.00000000000E+00  0.45593999997E+02  0.45594000000E+02  0.51100000000E-03 0.  1.
         11   -1    0    0    0    0 -0.00000000000E+00 -0.00000000000E+00 -0.45593999997E+02  0.45594000000E+02  0.51100000000E-03 0. -1.
    9900012    2    1    2    0    0  0.85638948214E+01 -0.28094484656E+02 -0.12412913052E+02  0.59301940773E+02  0.49999994064E+02 0.  0.
         12    1    1    2    0    0 -0.85638948214E+01  0.28094484656E+02  0.12412913052E+02  0.31886059227E+02  0.00000000000E+00 0. -1.
         11    1    3    3    0    0  0.89223547964E+01 -0.12339152571E+01  0.15305743175E+01  0.91363898766E+01  0.51100000000E-03 0. -1.
        -11    1    3    3    0    0  0.86182481503E+01 -0.61799560562E+01  0.11853756747E+02  0.15905269797E+02  0.51100000000E-03 0.  1.
        -12    1    3    3    0    0 -0.89767081252E+01 -0.20680613342E+02 -0.25797244117E+02  0.34260281099E+02  0.00000000000E+00 0.  1.
</event>
<event>
 7    1  0.3449603E-013  0.5930196E+02  0.7816164E-02  0.1266605E+00
        -11   -1    0    0    0    0  0.00000000000E+00  0.00000000000E+00  0.45593999997E+02  0.45594000000E+02  0.51100000000E-03 0.  1.
         11   -1    0    0    0    0 -0.00000000000E+00 -0.00000000000E+00 -0.45593999997E+02  0.45594000000E+02  0.51100000000E-03 0. -1.
    9900012    2    1    2    0    0  0.28175849492E+02  0.14896487061E+02  0.96748375465E+00  0.59301955306E+02  0.50000020570E+02 0.  0.
         12    1    1    2    0    0 -0.28175849492E+02 -0.14896487061E+02 -0.96748375465E+00  0.31886044694E+02  0.00000000000E+00 0. -1.
         11    1    3    3    0    0  0.55993746255E+01 -0.44757551041E+01 -0.80227791608E+01  0.10758734390E+02  0.51100000000E-03 0. -1.
        -11    1    3    3    0    0  0.11766218799E+02  0.13516320250E+01 -0.13367705574E+02  0.17859629518E+02  0.51100000000E-03 0.  1.
        -12    1    3    3    0    0  0.10810256068E+02  0.18020610140E+02  0.22357968490E+02  0.30683591398E+02  0.00000000000E+00 0.  1.
</event>
<event>
 7    1  0.3449603E-013  0.5930194E+02  0.7816164E-02  0.1266605E+00
        -11   -1    0    0    0    0  0.00000000000E+00  0.00000000000E+00  0.45593999997E+02  0.45594000000E+02  0.51100000000E-03 0. -1.
         11   -1    0    0    0    0 -0.00000000000E+00 -0.00000000000E+00 -0.45593999997E+02  0.45594000000E+02  0.51100000000E-03 0.  1.
    9900012    2    1    2    0    0 -0.26449036560E+02  0.75995533825E+01 -0.16106394664E+02  0.59301941987E+02  0.49999996278E+02 0.  0.
         12    1    1    2    0    0  0.26449036560E+02 -0.75995533825E+01  0.16106394664E+02  0.31886058013E+02  0.00000000000E+00 0. -1.
         11    1    3    3    0    0  0.47158214628E+00  0.25454943858E+01  0.92733131145E+01  0.96278900996E+01  0.51100000000E-03 0. -1.
        -11    1    3    3    0    0  0.52718412732E+01 -0.60620142967E+01 -0.83823931199E+01  0.11610548756E+02  0.51100000000E-03 0.  1.
        -12    1    3    3    0    0 -0.32192459979E+02  0.11116073293E+02 -0.16997314658E+02  0.38063503131E+02  0.00000000000E+00 0.  1.
</event>
<event>
 7    1  0.3449603E-013  0.5930196E+02  0.7816164E-02  0.1266605E+00
        -11   -1    0    0    0    0  0.00000000000E+00  0.00000000000E+00  0.45593999997E+02  0.45594000000E+02  0.51100000000E-03 0.  1.
         11   -1    0    0    0    0 -0.00000000000E+00 -0.00000000000E+00 -0.45593999997E+02  0.45594000000E+02  0.51100000000E-03 0. -1.
    9900012    2    1    2    0    0  0.21992347837E+01 -0.31674375340E+02  0.29354779764E+01  0.59301957321E+02  0.50000024243E+02 0.  0.
         12    1    1    2    0    0 -0.21992347837E+01  0.31674375340E+02 -0.29354779764E+01  0.31886042679E+02  0.00000000000E+00 0. -1.
         11    1    3    3    0    0  0.81514018496E+00 -0.33264912683E+02  0.41885622920E+01  0.33537485351E+02  0.51100000000E-03 0.  1.
        -11    1    3    3    0    0  0.11963192870E+02 -0.53221705182E+01 -0.44166572925E+00  0.13101089708E+02  0.51100000000E-03 0. -1.
         12    1    3    3    0    0 -0.10579098271E+02  0.69127078610E+01 -0.81141858637E+00  0.12663382262E+02  0.00000000000E+00 0. -1.
</event>
<event>
 7    1  0.3449603E-013  0.5930194E+02  0.7816164E-02  0.1266605E+00
        -11   -1    0    0    0    0  0.00000000000E+00  0.00000000000E+00  0.45593999997E+02  0.45594000000E+02  0.51100000000E-03 0.  1.
         11   -1    0    0    0    0 -0.00000000000E+00 -0.00000000000E+00 -0.45593999997E+02  0.45594000000E+02  0.51100000000E-03 0. -1.
    9900012    2    1    2    0    0  0.27957096816E+02 -0.15309333797E+02  0.86358670299E+00  0.59301941201E+02  0.49999994846E+02 0.  0.
         12    1    1    2    0    0 -0.27957096816E+02  0.15309333797E+02 -0.86358670299E+00  0.31886058799E+02  0.00000000000E+00 0. -1.
         11    1    3    3    0    0  0.28166786379E+02 -0.93477252984E+01  0.16984734427E+02  0.34193991095E+02  0.51100000000E-03 0.  1.
        -11    1    3    3    0    0  0.73307894194E+01  0.50609771318E+00 -0.12565752927E+02  0.14556605212E+02  0.51100000000E-03 0. -1.
        -12    1    3    3    0    0 -0.75404789819E+01 -0.64677062121E+01 -0.35553947971E+01  0.10551344895E+02  0.00000000000E+00 0.  1.
</event>
<event>
 7    1  0.3746083E-013  0.5930194E+02  0.7816164E-02  0.1266605E+00
        -11   -1    0    0    0    0  0.00000000000E+00  0.00000000000E+00  0.45593999997E+02  0.45594000000E+02  0.51100000000E-03 0. -1.
         11   -1    0    0    0    0 -0.00000000000E+00 -0.00000000000E+00 -0.45593999997E+02  0.45594000000E+02  0.51100000000E-03 0.  1.
    9900012    2    1    2    0    0  0.25769715468E+01  0.97672137690E+00 -0.31766741027E+02  0.59301943447E+02  0.49999998941E+02 0.  0.
         12    1    1    2    0    0 -0.25769715468E+01 -0.97672137690E+00  0.31766741027E+02  0.31886056553E+02  0.00000000000E+00 0. -1.
         11    1    3    3    0    0 -0.94592187635E+01 -0.14138958534E-01 -0.20991766061E+02  0.23024579521E+02  0.51100000000E-03 0. -1.
        -11    1    3    3    0    0  0.98510039237E+01  0.38820815139E+01 -0.22035820896E+02  0.24447704146E+02  0.51100000000E-03 0.  1.
         12    1    3    3    0    0  0.21851863867E+01 -0.28912211785E+01  0.11260845930E+02  0.11829659780E+02  0.00000000000E+00 0. -1.
</event>
<event>
 7    1  0.3449603E-013  0.5930193E+02  0.7816164E-02  0.1266605E+00
        -11   -1    0    0    0    0  0.00000000000E+00  0.00000000000E+00  0.45593999997E+02  0.45594000000E+02  0.51100000000E-03 0.  1.
         11   -1    0    0    0    0 -0.00000000000E+00 -0.00000000000E+00 -0.45593999997E+02  0.45594000000E+02  0.51100000000E-03 0. -1.
    9900012    2    1    2    0    0  0.14092816014E+02  0.28458195211E+02  0.28714426869E+01  0.59301929045E+02  0.49999972675E+02 0.  0.
         12    1    1    2    0    0 -0.14092816014E+02 -0.28458195211E+02 -0.28714426869E+01  0.31886070955E+02  0.00000000000E+00 0. -1.
         11    1    3    3    0    0  0.86222027951E+01 -0.74784711326E+01  0.10810192337E+02  0.15720374364E+02  0.51100000000E-03 0. -1.
        -11    1    3    3    0    0 -0.37452597258E+01  0.68818909350E+00  0.37248134950E+01  0.53268011485E+01  0.51100000000E-03 0.  1.
        -12    1    3    3    0    0  0.92158729451E+01  0.35248477250E+02 -0.11663563145E+02  0.38254753532E+02  0.00000000000E+00 0.  1.
</event>
<event>
 7    1  0.3449603E-013  0.5930196E+02  0.7816164E-02  0.1266605E+00
        -11   -1    0    0    0    0  0.00000000000E+00  0.00000000000E+00  0.45593999997E+02  0.45594000000E+02  0.51100000000E-03 0.  1.
         11   -1    0    0    0    0 -0.00000000000E+00 -0.00000000000E+00 -0.45593999997E+02  0.45594000000E+02  0.51100000000E-03 0. -1.
    9900012    2    1    2    0    0 -0.22610105521E+02  0.10517617232E+01  0.22458775860E+02  0.59301957795E+02  0.50000025109E+02 0.  0.
         12    1    1    2    0    0  0.22610105521E+02 -0.10517617232E+01 -0.22458775860E+02  0.31886042205E+02  0.00000000000E+00 0. -1.
         11    1    3    3    0    0  0.11914645601E+02 -0.93513199042E+01  0.95300462663E+00  0.15176105621E+02  0.51100000000E-03 0. -1.
        -11    1    3    3    0    0 -0.12302777980E+02  0.60886564252E+01  0.13098899304E+01  0.13789339903E+02  0.51100000000E-03 0.  1.
        -12    1    3    3    0    0 -0.22221973142E+02  0.43144252022E+01  0.20195881303E+02  0.30336512270E+02  0.00000000000E+00 0.  1.
</event>
<event>
 7    1  0.3449603E-013  0.5930198E+02  0.7816164E-02  0.1266605E+00
        -11   -1    0    0    0    0  0.00000000000E+00  0.00000000000E+00  0.45593999997E+02  0.45594000000E+02  0.51100000000E-03 0. -1.
         11   -1    0    0    0    0 -0.00000000000E+00 -0.00000000000E+00 -0.45593999997E+02  0.45594000000E+02  0.51100000000E-03 0.  1.
    9900012    2    1    2    0    0  0.13223703019E+02 -0.29014435066E+02  0.12100327223E+00  0.59301977897E+02  0.50000061770E+02 0.  0.
         12    1    1    2    0    0 -0.13223703019E+02  0.29014435066E+02 -0.12100327223E+00  0.31886022103E+02  0.00000000000E+00 0. -1.
         11    1    3    3    0    0 -0.11168708342E+02 -0.77797545643E+01 -0.15228242494E+02  0.20424592942E+02  0.51100000000E-03 0. -1.
        -11    1    3    3    0    0  0.11776399904E+02 -0.19551711075E+02  0.80334430610E+01  0.24196884269E+02  0.51100000000E-03 0.  1.
        -12    1    3    3    0    0  0.12616011457E+02 -0.16829694272E+01  0.73158027053E+01  0.14680500687E+02  0.00000000000E+00 0.  1.
</event>
<event>
 7    1  0.3449603E-013  0.5930194E+02  0.7816164E-02  0.1266605E+00
        -11   -1    0    0    0    0  0.00000000000E+00  0.00000000000E+00  0.45593999997E+02  0.45594000000E+02  0.51100000000E-03 0. -1.
         11   -1    0    0    0    0 -0.00000000000E+00 -0.00000000000E+00 -0.45593999997E+02  0.45594000000E+02  0.51100000000E-03 0.  1.
    9900012    2    1    2    0    0  0.12954303801E+02  0.16171354443E+02  0.24236218988E+02  0.59301937178E+02  0.49999987507E+02 0.  0.
         12    1    1    2    0    0 -0.12954303801E+02 -0.16171354443E+02 -0.24236218988E+02  0.31886062822E+02  0.00000000000E+00 0. -1.
         11    1    3    3    0    0 -0.33671498753E+01  0.93747197718E+01  0.41478068252E+01  0.10790151565E+02  0.51100000000E-03 0. -1.
        -11    1    3    3    0    0 -0.11459467513E+02 -0.66852731501E+01  0.55500542198E+01  0.14381076972E+02  0.51100000000E-03 0.  1.
         12    1    3    3    0    0  0.27780921189E+02  0.13481907821E+02  0.14538357943E+02  0.34130708640E+02  0.00000000000E+00 0. -1.
</event>
<event>
 7    1  0.3449603E-013  0.5930195E+02  0.7816164E-02  0.1266605E+00
        -11   -1    0    0    0    0  0.00000000000E+00  0.00000000000E+00  0.45593999997E+02  0.45594000000E+02  0.51100000000E-03 0.  1.
         11   -1    0    0    0    0 -0.00000000000E+00 -0.00000000000E+00 -0.45593999997E+02  0.45594000000E+02  0.51100000000E-03 0. -1.
    9900012    2    1    2    0    0 -0.15249454681E+02 -0.19513347874E+02 -0.20084915426E+02  0.59301945980E+02  0.50000003560E+02 0.  0.
         12    1    1    2    0    0  0.15249454681E+02  0.19513347874E+02  0.20084915426E+02  0.31886054020E+02  0.00000000000E+00 0. -1.
         11    1    3    3    0    0  0.73261430838E+01  0.53984851585E+01 -0.13513200714E+02  0.16291795735E+02  0.51100000000E-03 0. -1.
        -11    1    3    3    0    0 -0.58893123011E+01 -0.10153657954E+02 -0.15127402513E+02  0.19147299451E+02  0.51100000000E-03 0.  1.
         12    1    3    3    0    0 -0.16686285463E+02 -0.14758175078E+02  0.85556878006E+01  0.23862850793E+02  0.00000000000E+00 0. -1.
</event>
<event>
 7    1  0.3449603E-013  0.5930195E+02  0.7816164E-02  0.1266605E+00
        -11   -1    0    0    0    0  0.00000000000E+00  0.00000000000E+00  0.45593999997E+02  0.45594000000E+02  0.51100000000E-03 0.  1.
         11   -1    0    0    0    0 -0.00000000000E+00 -0.00000000000E+00 -0.45593999997E+02  0.45594000000E+02  0.51100000000E-03 0. -1.
    9900012    2    1    2    0    0  0.24851677834E+02  0.16348501869E+02  0.11482187055E+02  0.59301952517E+02  0.50000015482E+02 0.  0.
         12    1    1    2    0    0 -0.24851677834E+02 -0.16348501869E+02 -0.11482187055E+02  0.31886047483E+02  0.00000000000E+00 0. -1.
         11    1    3    3    0    0  0.87069234606E+00  0.64179532498E+01 -0.11464894736E+02  0.13167841153E+02  0.51100000000E-03 0. -1.
        -11    1    3    3    0    0 -0.45822908101E+01 -0.56824468147E+01  0.26145545422E+01  0.77539336201E+01  0.51100000000E-03 0.  1.
         12    1    3    3    0    0  0.28563276298E+02  0.15612995434E+02  0.20332527249E+02  0.38380177743E+02  0.00000000000E+00 0. -1.
</event>
<event>
 7    1  0.3449603E-013  0.5930195E+02  0.7816164E-02  0.1266605E+00
        -11   -1    0    0    0    0  0.00000000000E+00  0.00000000000E+00  0.45593999997E+02  0.45594000000E+02  0.51100000000E-03 0.  1.
         11   -1    0    0    0    0 -0.00000000000E+00 -0.00000000000E+00 -0.45593999997E+02  0.45594000000E+02  0.51100000000E-03 0. -1.
    9900012    2    1    2    0    0 -0.30449379778E+02  0.14992218463E+01  0.93438724827E+01  0.59301947438E+02  0.50000006220E+02 0.  0.
         12    1    1    2    0    0  0.30449379778E+02 -0.14992218463E+01 -0.93438724827E+01  0.31886052562E+02  0.00000000000E+00 0. -1.
         11    1    3    3    0    0 -0.12027424924E+02 -0.17812050078E+02  0.15961250620E+02  0.26771058998E+02  0.51100000000E-03 0. -1.
        -11    1    3    3    0    0 -0.62690457765E+01 -0.11546302467E+01  0.27622330772E+01  0.69472323834E+01  0.51100000000E-03 0.  1.
        -12    1    3    3    0    0 -0.12152909077E+02  0.20465902171E+02 -0.93796112146E+01  0.25583656057E+02  0.00000000000E+00 0.  1.
</event>
<event>
 7    1  0.3449603E-013  0.5930195E+02  0.7816164E-02  0.1266605E+00
        -11   -1    0    0    0    0  0.00000000000E+00  0.00000000000E+00  0.45593999997E+02  0.45594000000E+02  0.51100000000E-03 0. -1.
         11   -1    0    0    0    0 -0.00000000000E+00 -0.00000000000E+00 -0.45593999997E+02  0.45594000000E+02  0.51100000000E-03 0.  1.
    9900012    2    1    2    0    0 -0.88564471767E+01  0.16962367028E+02 -0.25506111943E+02  0.59301948218E+02  0.50000007641E+02 0.  0.
         12    1    1    2    0    0  0.88564471767E+01 -0.16962367028E+02  0.25506111943E+02  0.31886051782E+02  0.00000000000E+00 0. -1.
         11    1    3    3    0    0 -0.14063615147E+01  0.97400591518E+01  0.26591064075E+01  0.10193990982E+02  0.51100000000E-03 0. -1.
        -11    1    3    3    0    0 -0.14595307940E+02  0.76818763439E+01 -0.35322884433E+02  0.38983847975E+02  0.51100000000E-03 0.  1.
         12    1    3    3    0    0  0.71452222782E+01 -0.45956846728E+00  0.71576660818E+01  0.10124109261E+02  0.00000000000E+00 0. -1.
</event>
<event>
 7    1  0.3449603E-013  0.5930187E+02  0.7816164E-02  0.1266605E+00
        -11   -1    0    0    0    0  0.00000000000E+00  0.00000000000E+00  0.45593999997E+02  0.45594000000E+02  0.51100000000E-03 0.  1.
         11   -1    0    0    0    0 -0.00000000000E+00 -0.00000000000E+00 -0.45593999997E+02  0.45594000000E+02  0.51100000000E-03 0. -1.
    9900012    2    1    2    0    0  0.20185679326E+02 -0.23236772701E+02  0.83256302736E+01  0.59301868612E+02  0.49999862460E+02 0.  0.
         12    1    1    2    0    0 -0.20185679326E+02  0.23236772701E+02 -0.83256302736E+01  0.31886131388E+02  0.00000000000E+00 0. -1.
         11    1    3    3    0    0  0.61275614444E+01  0.62082296914E+01 -0.13953413665E+02  0.16455603250E+02  0.51100000000E-03 0. -1.
        -11    1    3    3    0    0  0.32576854573E+01 -0.60223592377E+01  0.14288089512E+02  0.15843952395E+02  0.51100000000E-03 0.  1.
        -12    1    3    3    0    0  0.10800432424E+02 -0.23422643155E+02  0.79909544271E+01  0.27002312967E+02  0.00000000000E+00 0.  1.
</event>
<event>
 7    1  0.3449603E-013  0.5930196E+02  0.7816164E-02  0.1266605E+00
        -11   -1    0    0    0    0  0.00000000000E+00  0.00000000000E+00  0.45593999997E+02  0.45594000000E+02  0.51100000000E-03 0.  1.
         11   -1    0    0    0    0 -0.00000000000E+00 -0.00000000000E+00 -0.45593999997E+02  0.45594000000E+02  0.51100000000E-03 0. -1.
    9900012    2    1    2    0    0 -0.98565897988E+01  0.18453311810E+02  0.24063305773E+02  0.59301956596E+02  0.50000022921E+02 0.  0.
         12    1    1    2    0    0  0.98565897988E+01 -0.18453311810E+02 -0.24063305773E+02  0.31886043404E+02  0.00000000000E+00 0. -1.
         11    1    3    3    0    0  0.11094331354E+02 -0.48041274918E+00 -0.40866269303E+01  0.11832814734E+02  0.51100000000E-03 0. -1.
        -11    1    3    3    0    0  0.39081808831E+00  0.78946024033E+01  0.20941275390E+02  0.22383353214E+02  0.51100000000E-03 0.  1.
        -12    1    3    3    0    0 -0.21341739241E+02  0.11039122156E+02  0.72086573137E+01  0.25085788648E+02  0.00000000000E+00 0.  1.
</event>
<event>
 7    1  0.3449603E-013  0.5930198E+02  0.7816164E-02  0.1266605E+00
        -11   -1    0    0    0    0  0.00000000000E+00  0.00000000000E+00  0.45593999997E+02  0.45594000000E+02  0.51100000000E-03 0. -1.
         11   -1    0    0    0    0 -0.00000000000E+00 -0.00000000000E+00 -0.45593999997E+02  0.45594000000E+02  0.51100000000E-03 0.  1.
    9900012    2    1    2    0    0 -0.19720481152E+02  0.23732400890E+02 -0.80370356425E+01  0.59301981578E+02  0.50000068483E+02 0.  0.
         12    1    1    2    0    0  0.19720481152E+02 -0.23732400890E+02  0.80370356425E+01  0.31886018422E+02  0.00000000000E+00 0. -1.
         11    1    3    3    0    0 -0.22449921083E+02  0.73104192742E+00 -0.40928351439E+01  0.22831659569E+02  0.51100000000E-03 0. -1.
        -11    1    3    3    0    0  0.14426122646E+01 -0.53855200315E+01  0.41196413914E+01  0.69322724708E+01  0.51100000000E-03 0.  1.
        -12    1    3    3    0    0  0.12868276661E+01  0.28386878994E+02 -0.80638418900E+01  0.29538049538E+02  0.00000000000E+00 0.  1.
</event>
<event>
 7    1  0.3449603E-013  0.5930194E+02  0.7816164E-02  0.1266605E+00
        -11   -1    0    0    0    0  0.00000000000E+00  0.00000000000E+00  0.45593999997E+02  0.45594000000E+02  0.51100000000E-03 0. -1.
         11   -1    0    0    0    0 -0.00000000000E+00 -0.00000000000E+00 -0.45593999997E+02  0.45594000000E+02  0.51100000000E-03 0.  1.
    9900012    2    1    2    0    0  0.23242991267E+02  0.82375443719E+01 -0.20214524241E+02  0.59301940811E+02  0.49999994134E+02 0.  0.
         12    1    1    2    0    0 -0.23242991267E+02 -0.82375443719E+01  0.20214524241E+02  0.31886059189E+02  0.00000000000E+00 0. -1.
         11    1    3    3    0    0 -0.18469408614E+01  0.82836694348E+01 -0.28138719656E+01  0.89413782802E+01  0.51100000000E-03 0. -1.
        -11    1    3    3    0    0 -0.60605641772E+01  0.75602276276E+01  0.53268605091E+01  0.11057256580E+02  0.51100000000E-03 0.  1.
        -12    1    3    3    0    0  0.31150496305E+02 -0.76063526905E+01 -0.22727512785E+02  0.39303305951E+02  0.00000000000E+00 0.  1.
</event>
<event>
 7    1  0.3449603E-013  0.5930189E+02  0.7816164E-02  0.1266605E+00
        -11   -1    0    0    0    0  0.00000000000E+00  0.00000000000E+00  0.45593999997E+02  0.45594000000E+02  0.51100000000E-03 0.  1.
         11   -1    0    0    0    0 -0.00000000000E+00 -0.00000000000E+00 -0.45593999997E+02  0.45594000000E+02  0.51100000000E-03 0. -1.
    9900012    2    1    2    0    0  0.24712584902E+02  0.13240288601E+02 -0.15189033694E+02  0.59301892691E+02  0.49999906374E+02 0.  0.
         12    1    1    2    0    0 -0.24712584902E+02 -0.13240288601E+02  0.15189033694E+02  0.31886107309E+02  0.00000000000E+00 0. -1.
         11    1    3    3    0    0  0.52409368672E+01  0.33489678384E+01 -0.10010960927E+02  0.11785683848E+02  0.51100000000E-03 0. -1.
        -11    1    3    3    0    0 -0.53021046090E+01 -0.13391433707E+01 -0.16999918502E+02  0.17857851147E+02  0.51100000000E-03 0.  1.
        -12    1    3    3    0    0  0.24773752643E+02  0.11230464133E+02  0.11821845734E+02  0.29658357696E+02  0.00000000000E+00 0.  1.
</event>
<event>
 7    1  0.3449603E-013  0.5930191E+02  0.7816164E-02  0.1266605E+00
        -11   -1    0    0    0    0  0.00000000000E+00  0.00000000000E+00  0.45593999997E+02  0.45594000000E+02  0.51100000000E-03 0.  1.
         11   -1    0    0    0    0 -0.00000000000E+00 -0.00000000000E+00 -0.45593999997E+02  0.45594000000E+02  0.51100000000E-03 0. -1.
    9900012    2    1    2    0    0  0.69875793648E+01  0.59551483356E+00  0.31105336505E+02  0.59301908010E+02  0.49999934313E+02 0.  0.
         12    1    1    2    0    0 -0.69875793648E+01 -0.59551483356E+00 -0.31105336505E+02  0.31886091990E+02  0.00000000000E+00 0. -1.
         11    1    3    3    0    0 -0.14048347841E+02  0.51558118384E+01 -0.16561256559E+01  0.15055936544E+02  0.51100000000E-03 0. -1.
        -11    1    3    3    0    0  0.48092480989E+01 -0.64582610093E+01  0.48076242881E+00  0.80665441990E+01  0.51100000000E-03 0.  1.
        -12    1    3    3    0    0  0.16226679107E+02  0.18979640044E+01  0.32280699732E+02  0.36179427267E+02  0.00000000000E+00 0.  1.
</event>
<event>
 7    1  0.3449603E-013  0.5930194E+02  0.7816164E-02  0.1266605E+00
        -11   -1    0    0    0    0  0.00000000000E+00  0.00000000000E+00  0.45593999997E+02  0.45594000000E+02  0.51100000000E-03 0.  1.
         11   -1    0    0    0    0 -0.00000000000E+00 -0.00000000000E+00 -0.45593999997E+02  0.45594000000E+02  0.51100000000E-03 0. -1.
    9900012    2    1    2    0    0 -0.19999990813E+02  0.26805736407E+01  0.24688778492E+02  0.59301938924E+02  0.49999990691E+02 0.  0.
         12    1    1    2    0    0  0.19999990813E+02 -0.26805736407E+01 -0.24688778492E+02  0.31886061076E+02  0.00000000000E+00 0. -1.
         11    1    3    3    0    0 -0.48295567442E+01  0.45368484605E+01  0.51746036567E+01  0.84073857746E+01  0.51100000000E-03 0.  1.
        -11    1    3    3    0    0 -0.26394293123E+02  0.42878310725E+00  0.26559913232E+02  0.37446916503E+02  0.51100000000E-03 0. -1.
         12    1    3    3    0    0  0.11223859055E+02 -0.22850579270E+01 -0.70457383969E+01  0.13447636646E+02  0.00000000000E+00 0. -1.
</event>
<event>
 7    1  0.3449603E-013  0.5930192E+02  0.7816164E-02  0.1266605E+00
        -11   -1    0    0    0    0  0.00000000000E+00  0.00000000000E+00  0.45593999997E+02  0.45594000000E+02  0.51100000000E-03 0.  1.
         11   -1    0    0    0    0 -0.00000000000E+00 -0.00000000000E+00 -0.45593999997E+02  0.45594000000E+02  0.51100000000E-03 0. -1.
    9900012    2    1    2    0    0 -0.22809947728E+01 -0.31654038357E+02  0.30888342561E+01  0.59301921870E+02  0.49999959590E+02 0.  0.
         12    1    1    2    0    0  0.22809947728E+01  0.31654038357E+02 -0.30888342561E+01  0.31886078130E+02  0.00000000000E+00 0. -1.
         11    1    3    3    0    0  0.82285713148E+01  0.28536490749E+01  0.37890332583E+01  0.94978667194E+01  0.51100000000E-03 0. -1.
        -11    1    3    3    0    0  0.79730330202E+01  0.12204683852E+01 -0.47736111151E+01  0.93726283379E+01  0.51100000000E-03 0.  1.
        -12    1    3    3    0    0 -0.18482599108E+02 -0.35728155817E+02  0.40734121129E+01  0.40431426813E+02  0.00000000000E+00 0.  1.
</event>
<event>
 7    1  0.3449603E-013  0.5930195E+02  0.7816164E-02  0.1266605E+00
        -11   -1    0    0    0    0  0.00000000000E+00  0.00000000000E+00  0.45593999997E+02  0.45594000000E+02  0.51100000000E-03 0.  1.
         11   -1    0    0    0    0 -0.00000000000E+00 -0.00000000000E+00 -0.45593999997E+02  0.45594000000E+02  0.51100000000E-03 0. -1.
    9900012    2    1    2    0    0 -0.17551376529E+02  0.11327257401E+02  0.24090716486E+02  0.59301949773E+02  0.50000010478E+02 0.  0.
         12    1    1    2    0    0  0.17551376529E+02 -0.11327257401E+02 -0.24090716486E+02  0.31886050227E+02  0.00000000000E+00 0. -1.
         11    1    3    3    0    0  0.31907042540E+01  0.61058856828E+01 -0.10926583202E+02  0.12917145750E+02  0.51100000000E-03 0. -1.
        -11    1    3    3    0    0  0.82830944383E+00 -0.56758761503E+01  0.36944831943E+01  0.68228200139E+01  0.51100000000E-03 0.  1.
        -12    1    3    3    0    0 -0.21570390227E+02  0.10897247869E+02  0.31322816493E+02  0.39561984009E+02  0.00000000000E+00 0.  1.
</event>
<event>
 7    1  0.3449603E-013  0.5930194E+02  0.7816164E-02  0.1266605E+00
        -11   -1    0    0    0    0  0.00000000000E+00  0.00000000000E+00  0.45593999997E+02  0.45594000000E+02  0.51100000000E-03 0. -1.
         11   -1    0    0    0    0 -0.00000000000E+00 -0.00000000000E+00 -0.45593999997E+02  0.45594000000E+02  0.51100000000E-03 0.  1.
    9900012    2    1    2    0    0 -0.51453416740E+01  0.10757504713E+02 -0.29572322887E+02  0.59301941455E+02  0.49999995308E+02 0.  0.
         12    1    1    2    0    0  0.51453416740E+01 -0.10757504713E+02  0.29572322887E+02  0.31886058545E+02  0.00000000000E+00 0. -1.
         11    1    3    3    0    0 -0.28892735324E+01  0.14700157083E+02 -0.17862068033E+02  0.23313000546E+02  0.51100000000E-03 0. -1.
        -11    1    3    3    0    0  0.95139214456E+01  0.11176108606E+02 -0.69861504346E+01  0.16255042387E+02  0.51100000000E-03 0.  1.
         12    1    3    3    0    0 -0.11769989587E+02 -0.15118760976E+02 -0.47241044196E+01  0.19733898522E+02  0.00000000000E+00 0. -1.
</event>
<event>
 7    1  0.3449603E-013  0.5930191E+02  0.7816164E-02  0.1266605E+00
        -11   -1    0    0    0    0  0.00000000000E+00  0.00000000000E+00  0.45593999997E+02  0.45594000000E+02  0.51100000000E-03 0. -1.
         11   -1    0    0    0    0 -0.00000000000E+00 -0.00000000000E+00 -0.45593999997E+02  0.45594000000E+02  0.51100000000E-03 0.  1.
    9900012    2    1    2    0    0 -0.29752443297E+02  0.11461729522E+02 -0.37899314018E+00  0.59301909591E+02  0.49999937196E+02 0.  0.
         12    1    1    2    0    0  0.29752443297E+02 -0.11461729522E+02  0.37899314018E+00  0.31886090409E+02  0.00000000000E+00 0. -1.
         11    1    3    3    0    0 -0.18750718698E+02 -0.26418530503E+01  0.45712214138E+01  0.19479858950E+02  0.51100000000E-03 0. -1.
        -11    1    3    3    0    0 -0.16467336482E+02 -0.68565613476E+01 -0.17010809462E+01  0.17918685247E+02  0.51100000000E-03 0.  1.
         12    1    3    3    0    0  0.54656118835E+01  0.20960143920E+02 -0.32491336078E+01  0.21903365394E+02  0.00000000000E+00 0. -1.
</event>
<event>
 7    1  0.3449603E-013  0.5930190E+02  0.7816164E-02  0.1266605E+00
        -11   -1    0    0    0    0  0.00000000000E+00  0.00000000000E+00  0.45593999997E+02  0.45594000000E+02  0.51100000000E-03 0.  1.
         11   -1    0    0    0    0 -0.00000000000E+00 -0.00000000000E+00 -0.45593999997E+02  0.45594000000E+02  0.51100000000E-03 0. -1.
    9900012    2    1    2    0    0  0.67013109329E+01  0.30293951451E+02  0.73547637149E+01  0.59301896255E+02  0.49999912874E+02 0.  0.
         12    1    1    2    0    0 -0.67013109329E+01 -0.30293951451E+02 -0.73547637149E+01  0.31886103745E+02  0.00000000000E+00 0. -1.
         11    1    3    3    0    0 -0.96183156301E+01 -0.88454317581E+01 -0.43824474918E+01  0.13782579760E+02  0.51100000000E-03 0. -1.
        -11    1    3    3    0    0  0.39261677878E+01  0.34892196419E+01  0.48577108982E+01  0.71544952750E+01  0.51100000000E-03 0.  1.
        -12    1    3    3    0    0  0.12393458775E+02  0.35650163567E+02  0.68795003085E+01  0.38364821220E+02  0.00000000000E+00 0.  1.
</event>
<event>
 7    1  0.3449603E-013  0.5930181E+02  0.7816164E-02  0.1266605E+00
        -11   -1    0    0    0    0  0.00000000000E+00  0.00000000000E+00  0.45593999997E+02  0.45594000000E+02  0.51100000000E-03 0.  1.
         11   -1    0    0    0    0 -0.00000000000E+00 -0.00000000000E+00 -0.45593999997E+02  0.45594000000E+02  0.51100000000E-03 0. -1.
    9900012    2    1    2    0    0 -0.28826478934E+02 -0.13074091041E+02  0.38511826717E+01  0.59301806244E+02  0.49999748715E+02 0.  0.
         12    1    1    2    0    0  0.28826478934E+02  0.13074091041E+02 -0.38511826717E+01  0.31886193756E+02  0.00000000000E+00 0. -1.
         11    1    3    3    0    0 -0.48591391738E+01 -0.55333742153E+01 -0.54995648779E+01  0.91910107075E+01  0.51100000000E-03 0. -1.
        -11    1    3    3    0    0 -0.11401089726E+02 -0.14617934638E+02 -0.13608954064E+02  0.22997227898E+02  0.51100000000E-03 0.  1.
         12    1    3    3    0    0 -0.12566250034E+02  0.70772178121E+01  0.22959701614E+02  0.27113567638E+02  0.00000000000E+00 0. -1.
</event>
<event>
 7    1  0.3449603E-013  0.5930188E+02  0.7816164E-02  0.1266605E+00
        -11   -1    0    0    0    0  0.00000000000E+00  0.00000000000E+00  0.45593999997E+02  0.45594000000E+02  0.51100000000E-03 0.  1.
         11   -1    0    0    0    0 -0.00000000000E+00 -0.00000000000E+00 -0.45593999997E+02  0.45594000000E+02  0.51100000000E-03 0. -1.
    9900012    2    1    2    0    0 -0.11554021089E+01 -0.30542638826E+02  0.90849672470E+01  0.59301884364E+02  0.49999891188E+02 0.  0.
         12    1    1    2    0    0  0.11554021089E+01  0.30542638826E+02 -0.90849672470E+01  0.31886115636E+02  0.00000000000E+00 0. -1.
         11    1    3    3    0    0 -0.28705396729E+00 -0.15025437603E+02 -0.28812267086E+01  0.15301883634E+02  0.51100000000E-03 0. -1.
        -11    1    3    3    0    0  0.35275125724E+00 -0.23559529805E+02 -0.59688583653E+01  0.24306442532E+02  0.51100000000E-03 0.  1.
         12    1    3    3    0    0 -0.12210993988E+01  0.80423285826E+01  0.17935052321E+02  0.19693558199E+02  0.00000000000E+00 0. -1.
</event>
<event>
 7    1  0.3449603E-013  0.5930195E+02  0.7816164E-02  0.1266605E+00
        -11   -1    0    0    0    0  0.00000000000E+00  0.00000000000E+00  0.45593999997E+02  0.45594000000E+02  0.51100000000E-03 0. -1.
         11   -1    0    0    0    0 -0.00000000000E+00 -0.00000000000E+00 -0.45593999997E+02  0.45594000000E+02  0.51100000000E-03 0.  1.
    9900012    2    1    2    0    0  0.22684187689E+02  0.12911510200E+02  0.18315039216E+02  0.59301950884E+02  0.50000012505E+02 0.  0.
         12    1    1    2    0    0 -0.22684187689E+02 -0.12911510200E+02 -0.18315039216E+02  0.31886049116E+02  0.00000000000E+00 0. -1.
         11    1    3    3    0    0 -0.19539655528E+01 -0.64795532656E+00 -0.12142152096E+01  0.23900096910E+01  0.51100000000E-03 0. -1.
        -11    1    3    3    0    0 -0.97328616196E+01 -0.60673175135E+01  0.12042312403E+02  0.16630039849E+02  0.51100000000E-03 0.  1.
         12    1    3    3    0    0  0.34371014861E+02  0.19626783040E+02  0.74869420226E+01  0.40281901344E+02  0.00000000000E+00 0. -1.
</event>
<event>
 7    1  0.3449603E-013  0.5930203E+02  0.7816164E-02  0.1266604E+00
        -11   -1    0    0    0    0  0.00000000000E+00  0.00000000000E+00  0.45593999997E+02  0.45594000000E+02  0.51100000000E-03 0.  1.
         11   -1    0    0    0    0 -0.00000000000E+00 -0.00000000000E+00 -0.45593999997E+02  0.45594000000E+02  0.51100000000E-03 0. -1.
    9900012    2    1    2    0    0 -0.12798002853E+02 -0.18711309639E+02  0.22423488116E+02  0.59302034361E+02  0.50000164746E+02 0.  0.
         12    1    1    2    0    0  0.12798002853E+02  0.18711309639E+02 -0.22423488116E+02  0.31885965639E+02  0.00000000000E+00 0. -1.
         11    1    3    3    0    0 -0.59773763158E+01  0.54259786249E+01  0.14524370407E+00  0.80741171439E+01  0.51100000000E-03 0. -1.
        -11    1    3    3    0    0 -0.92889902799E+01  0.87413955803E+01  0.32616121747E+01  0.13165692209E+02  0.51100000000E-03 0.  1.
         12    1    3    3    0    0  0.24683637425E+01 -0.32878683844E+02  0.19016632237E+02  0.38062225008E+02  0.00000000000E+00 0. -1.
</event>
<event>
 7    1  0.3449603E-013  0.5930196E+02  0.7816164E-02  0.1266605E+00
        -11   -1    0    0    0    0  0.00000000000E+00  0.00000000000E+00  0.45593999997E+02  0.45594000000E+02  0.51100000000E-03 0.  1.
         11   -1    0    0    0    0 -0.00000000000E+00 -0.00000000000E+00 -0.45593999997E+02  0.45594000000E+02  0.51100000000E-03 0. -1.
    9900012    2    1    2    0    0  0.19953569440E+02  0.18607048108E+02 -0.16503092984E+02  0.59301964644E+02  0.50000037599E+02 0.  0.
         12    1    1    2    0    0 -0.19953569440E+02 -0.18607048108E+02  0.16503092984E+02  0.31886035356E+02  0.00000000000E+00 0. -1.
         11    1    3    3    0    0 -0.33538688572E+01  0.23253880430E+02 -0.54787058245E+01  0.24124833867E+02  0.51100000000E-03 0. -1.
        -11    1    3    3    0    0  0.91426899001E+01  0.91420185465E+01 -0.88246866534E+00  0.12959322240E+02  0.51100000000E-03 0.  1.
        -12    1    3    3    0    0  0.14164748397E+02 -0.13788850869E+02 -0.10141918494E+02  0.22217808537E+02  0.00000000000E+00 0.  1.
</event>
<event>
 7    1  0.3449603E-013  0.5930194E+02  0.7816164E-02  0.1266605E+00
        -11   -1    0    0    0    0  0.00000000000E+00  0.00000000000E+00  0.45593999997E+02  0.45594000000E+02  0.51100000000E-03 0.  1.
         11   -1    0    0    0    0 -0.00000000000E+00 -0.00000000000E+00 -0.45593999997E+02  0.45594000000E+02  0.51100000000E-03 0. -1.
    9900012    2    1    2    0    0  0.53069346531E+01 -0.31426141225E+02 -0.97714295956E+00  0.59301941666E+02  0.49999995692E+02 0.  0.
         12    1    1    2    0    0 -0.53069346531E+01  0.31426141225E+02  0.97714295956E+00  0.31886058334E+02  0.00000000000E+00 0. -1.
         11    1    3    3    0    0 -0.19986931167E+01 -0.11909849753E+01  0.15135130593E+02  0.15312916042E+02  0.51100000000E-03 0. -1.
        -11    1    3    3    0    0  0.93000514898E+01 -0.23589076285E+02  0.11521641458E+01  0.25382335593E+02  0.51100000000E-03 0.  1.
         12    1    3    3    0    0 -0.19944237200E+01 -0.66460799653E+01 -0.17264437698E+02  0.18606690031E+02  0.00000000000E+00 0. -1.
</event>
<event>
 7    1  0.3449603E-013  0.5930217E+02  0.7816164E-02  0.1266604E+00
        -11   -1    0    0    0    0  0.00000000000E+00  0.00000000000E+00  0.45593999997E+02  0.45594000000E+02  0.51100000000E-03 0.  1.
         11   -1    0    0    0    0 -0.00000000000E+00 -0.00000000000E+00 -0.45593999997E+02  0.45594000000E+02  0.51100000000E-03 0. -1.
    9900012    2    1    2    0    0  0.97366519225E+01 -0.97874006171E+01  0.28742135733E+02  0.59302172929E+02  0.50000417459E+02 0.  0.
         12    1    1    2    0    0 -0.97366519225E+01  0.97874006171E+01 -0.28742135733E+02  0.31885827071E+02  0.00000000000E+00 0. -1.
         11    1    3    3    0    0  0.12415912469E+02 -0.13138834903E+02  0.34445285196E+02  0.38900662430E+02  0.51100000000E-03 0.  1.
        -11    1    3    3    0    0 -0.85798452203E+01 -0.41274752909E+01 -0.47041436252E+00  0.95326327012E+01  0.51100000000E-03 0. -1.
        -12    1    3    3    0    0  0.59005846743E+01  0.74789095767E+01 -0.52327351000E+01  0.10868877798E+02  0.00000000000E+00 0.  1.
</event>
<event>
 7    1  0.3449603E-013  0.5930194E+02  0.7816164E-02  0.1266605E+00
        -11   -1    0    0    0    0  0.00000000000E+00  0.00000000000E+00  0.45593999997E+02  0.45594000000E+02  0.51100000000E-03 0.  1.
         11   -1    0    0    0    0 -0.00000000000E+00 -0.00000000000E+00 -0.45593999997E+02  0.45594000000E+02  0.51100000000E-03 0. -1.
    9900012    2    1    2    0    0 -0.22473933856E+02 -0.12069955922E+02  0.19130061907E+02  0.59301940233E+02  0.49999993079E+02 0.  0.
         12    1    1    2    0    0  0.22473933856E+02  0.12069955922E+02 -0.19130061907E+02  0.31886059767E+02  0.00000000000E+00 0. -1.
         11    1    3    3    0    0 -0.13988538905E+02 -0.20768649903E+02  0.19270258278E+02  0.31596817781E+02  0.51100000000E-03 0. -1.
        -11    1    3    3    0    0 -0.98939872627E+01 -0.67845838444E+01 -0.15392778394E+01  0.12095079100E+02  0.51100000000E-03 0.  1.
         12    1    3    3    0    0  0.14085923117E+01  0.15483277826E+02  0.13990814681E+01  0.15610043353E+02  0.00000000000E+00 0. -1.
</event>
<event>
 7    1  0.3449603E-013  0.5930192E+02  0.7816164E-02  0.1266605E+00
        -11   -1    0    0    0    0  0.00000000000E+00  0.00000000000E+00  0.45593999997E+02  0.45594000000E+02  0.51100000000E-03 0. -1.
         11   -1    0    0    0    0 -0.00000000000E+00 -0.00000000000E+00 -0.45593999997E+02  0.45594000000E+02  0.51100000000E-03 0.  1.
    9900012    2    1    2    0    0 -0.17471953176E+01  0.19988720452E+00 -0.31837545461E+02  0.59301922358E+02  0.49999960480E+02 0.  0.
         12    1    1    2    0    0  0.17471953176E+01 -0.19988720452E+00  0.31837545461E+02  0.31886077642E+02  0.00000000000E+00 0. -1.
         11    1    3    3    0    0 -0.59500434213E+01 -0.14682003137E+02 -0.10059374360E+02  0.18765799893E+02  0.51100000000E-03 0.  1.
        -11    1    3    3    0    0  0.73708445495E+01 -0.80456049182E+01 -0.86702815577E+01  0.13936817801E+02  0.51100000000E-03 0. -1.
        -12    1    3    3    0    0 -0.31679964458E+01  0.22927495259E+02 -0.13107889543E+02  0.26599304665E+02  0.00000000000E+00 0.  1.
</event>
<event>
 7    1  0.3449603E-013  0.5930195E+02  0.7816164E-02  0.1266605E+00
        -11   -1    0    0    0    0  0.00000000000E+00  0.00000000000E+00  0.45593999997E+02  0.45594000000E+02  0.51100000000E-03 0. -1.
         11   -1    0    0    0    0 -0.00000000000E+00 -0.00000000000E+00 -0.45593999997E+02  0.45594000000E+02  0.51100000000E-03 0.  1.
    9900012    2    1    2    0    0 -0.17034192831E+02 -0.16410411837E+02 -0.21383522962E+02  0.59301946680E+02  0.50000004838E+02 0.  0.
         12    1    1    2    0    0  0.17034192831E+02  0.16410411837E+02  0.21383522962E+02  0.31886053320E+02  0.00000000000E+00 0. -1.
         11    1    3    3    0    0 -0.19392209138E+02  0.30716218462E+01  0.22467979988E+01  0.19762103571E+02  0.51100000000E-03 0. -1.
        -11    1    3    3    0    0  0.66406975682E+01 -0.21392277438E+02 -0.89369972374E+01  0.24116349601E+02  0.51100000000E-03 0.  1.
        -12    1    3    3    0    0 -0.42826812608E+01  0.19102437553E+01 -0.14693323723E+02  0.15423493509E+02  0.00000000000E+00 0.  1.
</event>
<event>
 7    1  0.3449603E-013  0.5930192E+02  0.7816164E-02  0.1266605E+00
        -11   -1    0    0    0    0  0.00000000000E+00  0.00000000000E+00  0.45593999997E+02  0.45594000000E+02  0.51100000000E-03 0. -1.
         11   -1    0    0    0    0 -0.00000000000E+00 -0.00000000000E+00 -0.45593999997E+02  0.45594000000E+02  0.51100000000E-03 0.  1.
    9900012    2    1    2    0    0 -0.20137121022E+02 -0.21452647201E+02  0.12288308903E+02  0.59301917602E+02  0.49999951806E+02 0.  0.
         12    1    1    2    0    0  0.20137121022E+02  0.21452647201E+02 -0.12288308903E+02  0.31886082398E+02  0.00000000000E+00 0. -1.
         11    1    3    3    0    0 -0.20662407768E+02 -0.13173046407E+01  0.65057103285E+01  0.21702411236E+02  0.51100000000E-03 0. -1.
        -11    1    3    3    0    0 -0.15140352997E+02 -0.12924516882E+02  0.30735538338E+01  0.20142496343E+02  0.51100000000E-03 0.  1.
         12    1    3    3    0    0  0.15665639744E+02 -0.72108256787E+01  0.27090447405E+01  0.17457010023E+02  0.00000000000E+00 0. -1.
</event>
<event>
 7    1  0.3449603E-013  0.5930195E+02  0.7816164E-02  0.1266605E+00
        -11   -1    0    0    0    0  0.00000000000E+00  0.00000000000E+00  0.45593999997E+02  0.45594000000E+02  0.51100000000E-03 0. -1.
         11   -1    0    0    0    0 -0.00000000000E+00 -0.00000000000E+00 -0.45593999997E+02  0.45594000000E+02  0.51100000000E-03 0.  1.
    9900012    2    1    2    0    0 -0.20754387912E+02 -0.37659133569E+01 -0.23912197214E+02  0.59301954516E+02  0.50000019128E+02 0.  0.
         12    1    1    2    0    0  0.20754387912E+02  0.37659133569E+01  0.23912197214E+02  0.31886045484E+02  0.00000000000E+00 0. -1.
         11    1    3    3    0    0 -0.40985102659E+01 -0.15501908841E+02 -0.33342812498E+01  0.16377557688E+02  0.51100000000E-03 0. -1.
        -11    1    3    3    0    0 -0.14645708869E+02 -0.58482615232E+01 -0.19657754675E+02  0.25201711653E+02  0.51100000000E-03 0.  1.
        -12    1    3    3    0    0 -0.20101687769E+01  0.17584257007E+02 -0.92016128899E+00  0.17722685175E+02  0.00000000000E+00 0.  1.
</event>
<event>
 7    1  0.3449603E-013  0.5930196E+02  0.7816164E-02  0.1266605E+00
        -11   -1    0    0    0    0  0.00000000000E+00  0.00000000000E+00  0.45593999997E+02  0.45594000000E+02  0.51100000000E-03 0.  1.
         11   -1    0    0    0    0 -0.00000000000E+00 -0.00000000000E+00 -0.45593999997E+02  0.45594000000E+02  0.51100000000E-03 0. -1.
    9900012    2    1    2    0    0  0.22891856327E+01  0.10036527245E+02  0.30178589878E+02  0.59301960155E+02  0.50000029412E+02 0.  0.
         12    1    1    2    0    0 -0.22891856327E+01 -0.10036527245E+02 -0.30178589878E+02  0.31886039845E+02  0.00000000000E+00 0. -1.
         11    1    3    3    0    0  0.62669080107E+00 -0.10058820068E+02  0.20588461131E+02  0.22922856160E+02  0.51100000000E-03 0. -1.
        -11    1    3    3    0    0  0.26918087826E+01 -0.67844847684E+01  0.55685289894E+01  0.91806091008E+01  0.51100000000E-03 0.  1.
         12    1    3    3    0    0 -0.10293139510E+01  0.26879832081E+02  0.40215997570E+01  0.27198494894E+02  0.00000000000E+00 0. -1.
</event>
<event>
 7    1  0.3449603E-013  0.5930198E+02  0.7816164E-02  0.1266605E+00
        -11   -1    0    0    0    0  0.00000000000E+00  0.00000000000E+00  0.45593999997E+02  0.45594000000E+02  0.51100000000E-03 0.  1.
         11   -1    0    0    0    0 -0.00000000000E+00 -0.00000000000E+00 -0.45593999997E+02  0.45594000000E+02  0.51100000000E-03 0. -1.
    9900012    2    1    2    0    0 -0.17142806832E+02  0.18535830775E+02  0.19474742987E+02  0.59301976996E+02  0.50000060126E+02 0.  0.
         12    1    1    2    0    0  0.17142806832E+02 -0.18535830775E+02 -0.19474742987E+02  0.31886023004E+02  0.00000000000E+00 0. -1.
         11    1    3    3    0    0 -0.28959375940E+02  0.71451463416E+01  0.20729849733E+02  0.36323893532E+02  0.51100000000E-03 0. -1.
        -11    1    3    3    0    0 -0.29843149226E+01 -0.10522691805E+01  0.14001202988E+01  0.34603096823E+01  0.51100000000E-03 0.  1.
        -12    1    3    3    0    0  0.14800884030E+02  0.12442953614E+02 -0.26552270452E+01  0.19517773782E+02  0.00000000000E+00 0.  1.
</event>
<event>
 7    1  0.3449603E-013  0.5930194E+02  0.7816164E-02  0.1266605E+00
        -11   -1    0    0    0    0  0.00000000000E+00  0.00000000000E+00  0.45593999997E+02  0.45594000000E+02  0.51100000000E-03 0. -1.
         11   -1    0    0    0    0 -0.00000000000E+00 -0.00000000000E+00 -0.45593999997E+02  0.45594000000E+02  0.51100000000E-03 0.  1.
    9900012    2    1    2    0    0 -0.15344118551E+02  0.24105852028E+02 -0.14148730591E+02  0.59301942648E+02  0.49999997483E+02 0.  0.
         12    1    1    2    0    0  0.15344118551E+02 -0.24105852028E+02  0.14148730591E+02  0.31886057352E+02  0.00000000000E+00 0. -1.
         11    1    3    3    0    0 -0.15169418278E+02  0.16047093711E+02 -0.28953116588E+02  0.36412956868E+02  0.51100000000E-03 0. -1.
        -11    1    3    3    0    0 -0.22090791479E+01  0.49228806016E+01 -0.19388415066E+01  0.57335757384E+01  0.51100000000E-03 0.  1.
         12    1    3    3    0    0  0.20343788746E+01  0.31358777153E+01  0.16743227503E+02  0.17155410041E+02  0.00000000000E+00 0. -1.
</event>
<event>
 7    1  0.3449603E-013  0.5930187E+02  0.7816164E-02  0.1266605E+00
        -11   -1    0    0    0    0  0.00000000000E+00  0.00000000000E+00  0.45593999997E+02  0.45594000000E+02  0.51100000000E-03 0. -1.
         11   -1    0    0    0    0 -0.00000000000E+00 -0.00000000000E+00 -0.45593999997E+02  0.45594000000E+02  0.51100000000E-03 0.  1.
    9900012    2    1    2    0    0  0.95730167893E+01 -0.17278781555E+02 -0.25030502662E+02  0.59301874396E+02  0.49999873009E+02 0.  0.
         12    1    1    2    0    0 -0.95730167893E+01  0.17278781555E+02  0.25030502662E+02  0.31886125604E+02  0.00000000000E+00 0. -1.
         11    1    3    3    0    0  0.22557609433E+02 -0.32622511234E+01 -0.93104772209E+01  0.24620581067E+02  0.51100000000E-03 0. -1.
        -11    1    3    3    0    0 -0.60522471846E+01 -0.83564319116E+01  0.54704788196E+01  0.11678432645E+02  0.51100000000E-03 0.  1.
        -12    1    3    3    0    0 -0.69323454593E+01 -0.56600985203E+01 -0.21190504261E+02  0.23002860684E+02  0.00000000000E+00 0.  1.
</event>
<event>
 7    1  0.3449603E-013  0.5930192E+02  0.7816164E-02  0.1266605E+00
        -11   -1    0    0    0    0  0.00000000000E+00  0.00000000000E+00  0.45593999997E+02  0.45594000000E+02  0.51100000000E-03 0.  1.
         11   -1    0    0    0    0 -0.00000000000E+00 -0.00000000000E+00 -0.45593999997E+02  0.45594000000E+02  0.51100000000E-03 0. -1.
    9900012    2    1    2    0    0  0.18907283208E+02  0.13796726670E+02  0.21653803324E+02  0.59301918028E+02  0.49999952583E+02 0.  0.
         12    1    1    2    0    0 -0.18907283208E+02 -0.13796726670E+02 -0.21653803324E+02  0.31886081972E+02  0.00000000000E+00 0. -1.
         11    1    3    3    0    0  0.24849967562E+01 -0.18702788463E+01  0.11669251507E+02  0.12076613053E+02  0.51100000000E-03 0.  1.
        -11    1    3    3    0    0  0.76004296809E+01 -0.99554786085E+01 -0.78524977612E+01  0.14783091930E+02  0.51100000000E-03 0. -1.
         12    1    3    3    0    0  0.88218567710E+01  0.25622484124E+02  0.17837049578E+02  0.32442213045E+02  0.00000000000E+00 0. -1.
</event>
<event>
 7    1  0.3449603E-013  0.5930194E+02  0.7816164E-02  0.1266605E+00
        -11   -1    0    0    0    0  0.00000000000E+00  0.00000000000E+00  0.45593999997E+02  0.45594000000E+02  0.51100000000E-03 0. -1.
         11   -1    0    0    0    0 -0.00000000000E+00 -0.00000000000E+00 -0.45593999997E+02  0.45594000000E+02  0.51100000000E-03 0.  1.
    9900012    2    1    2    0    0  0.14394109612E+02  0.23996723090E+02 -0.15286852250E+02  0.59301937805E+02  0.49999988652E+02 0.  0.
         12    1    1    2    0    0 -0.14394109612E+02 -0.23996723090E+02  0.15286852250E+02  0.31886062195E+02  0.00000000000E+00 0. -1.
         11    1    3    3    0    0 -0.36537066064E+00  0.13592945671E+01  0.58256069407E+01  0.59932356810E+01  0.51100000000E-03 0. -1.
        -11    1    3    3    0    0 -0.59108397309E+01 -0.91747085126E+01 -0.61465419343E+01  0.12525704796E+02  0.51100000000E-03 0.  1.
        -12    1    3    3    0    0  0.20670320003E+02  0.31812137036E+02 -0.14965917256E+02  0.40782997329E+02  0.00000000000E+00 0.  1.
</event>
<event>
 7    1  0.3449603E-013  0.5930191E+02  0.7816164E-02  0.1266605E+00
        -11   -1    0    0    0    0  0.00000000000E+00  0.00000000000E+00  0.45593999997E+02  0.45594000000E+02  0.51100000000E-03 0.  1.
         11   -1    0    0    0    0 -0.00000000000E+00 -0.00000000000E+00 -0.45593999997E+02  0.45594000000E+02  0.51100000000E-03 0. -1.
    9900012    2    1    2    0    0 -0.14232737922E+02  0.17420873058E+02  0.22597902243E+02  0.59301908476E+02  0.49999935162E+02 0.  0.
         12    1    1    2    0    0  0.14232737922E+02 -0.17420873058E+02 -0.22597902243E+02  0.31886091524E+02  0.00000000000E+00 0. -1.
         11    1    3    3    0    0 -0.13212012010E+02 -0.10649225126E+02  0.10428047757E+02  0.19917515844E+02  0.51100000000E-03 0. -1.
        -11    1    3    3    0    0 -0.64933539645E+01  0.40949978323E+01  0.12639479118E+02  0.14788140032E+02  0.51100000000E-03 0.  1.
         12    1    3    3    0    0  0.54726280521E+01  0.23975100352E+02 -0.46962463195E+00  0.24596252600E+02  0.00000000000E+00 0. -1.
</event>
<event>
 7    1  0.3449603E-013  0.5930195E+02  0.7816164E-02  0.1266605E+00
        -11   -1    0    0    0    0  0.00000000000E+00  0.00000000000E+00  0.45593999997E+02  0.45594000000E+02  0.51100000000E-03 0. -1.
         11   -1    0    0    0    0 -0.00000000000E+00 -0.00000000000E+00 -0.45593999997E+02  0.45594000000E+02  0.51100000000E-03 0.  1.
    9900012    2    1    2    0    0 -0.19806923037E+02 -0.23859311627E+02 -0.74255690382E+01  0.59301952470E+02  0.50000015397E+02 0.  0.
         12    1    1    2    0    0  0.19806923037E+02  0.23859311627E+02  0.74255690382E+01  0.31886047530E+02  0.00000000000E+00 0. -1.
         11    1    3    3    0    0 -0.85879601208E+01 -0.93575750167E+01 -0.10714418526E+02  0.16616739567E+02  0.51100000000E-03 0. -1.
        -11    1    3    3    0    0 -0.15796600273E+02 -0.15693157154E+02 -0.12958737975E+02  0.25763087001E+02  0.51100000000E-03 0.  1.
         12    1    3    3    0    0  0.45776373571E+01  0.11914205440E+01  0.16247587463E+02  0.16922125902E+02  0.00000000000E+00 0. -1.
</event>
<event>
 7    1  0.3449603E-013  0.5930195E+02  0.7816164E-02  0.1266605E+00
        -11   -1    0    0    0    0  0.00000000000E+00  0.00000000000E+00  0.45593999997E+02  0.45594000000E+02  0.51100000000E-03 0.  1.
         11   -1    0    0    0    0 -0.00000000000E+00 -0.00000000000E+00 -0.45593999997E+02  0.45594000000E+02  0.51100000000E-03 0. -1.
    9900012    2    1    2    0    0  0.14651480497E+02 -0.15070786946E+02  0.23977606823E+02  0.59301950874E+02  0.50000012485E+02 0.  0.
         12    1    1    2    0    0 -0.14651480497E+02  0.15070786946E+02 -0.23977606823E+02  0.31886049126E+02  0.00000000000E+00 0. -1.
         11    1    3    3    0    0  0.36473541517E+01 -0.25528602301E+01  0.21860275159E+02  0.22309009793E+02  0.51100000000E-03 0. -1.
        -11    1    3    3    0    0 -0.31417033498E+01 -0.25776297952E+00  0.14309882158E+02  0.14652967936E+02  0.51100000000E-03 0.  1.
         12    1    3    3    0    0  0.14145829695E+02 -0.12260163736E+02 -0.12192550493E+02  0.22339973145E+02  0.00000000000E+00 0. -1.
</event>
<event>
 7    1  0.3449603E-013  0.5930195E+02  0.7816164E-02  0.1266605E+00
        -11   -1    0    0    0    0  0.00000000000E+00  0.00000000000E+00  0.45593999997E+02  0.45594000000E+02  0.51100000000E-03 0.  1.
         11   -1    0    0    0    0 -0.00000000000E+00 -0.00000000000E+00 -0.45593999997E+02  0.45594000000E+02  0.51100000000E-03 0. -1.
    9900012    2    1    2    0    0 -0.27807672700E+01 -0.11950473223E+02  0.29430825657E+02  0.59301953276E+02  0.50000016866E+02 0.  0.
         12    1    1    2    0    0  0.27807672700E+01  0.11950473223E+02 -0.29430825657E+02  0.31886046724E+02  0.00000000000E+00 0. -1.
         11    1    3    3    0    0 -0.34512648495E+01  0.20428114625E+01 -0.30964019962E+01  0.50667556993E+01  0.51100000000E-03 0. -1.
        -11    1    3    3    0    0 -0.17337778140E+02 -0.18491258334E+01  0.31789099070E+01  0.17723523510E+02  0.51100000000E-03 0.  1.
        -12    1    3    3    0    0  0.18008275719E+02 -0.12144158853E+02  0.29348317746E+02  0.36511674066E+02  0.00000000000E+00 0.  1.
</event>
<event>
 7    1  0.3449603E-013  0.5930194E+02  0.7816164E-02  0.1266605E+00
        -11   -1    0    0    0    0  0.00000000000E+00  0.00000000000E+00  0.45593999997E+02  0.45594000000E+02  0.51100000000E-03 0.  1.
         11   -1    0    0    0    0 -0.00000000000E+00 -0.00000000000E+00 -0.45593999997E+02  0.45594000000E+02  0.51100000000E-03 0. -1.
    9900012    2    1    2    0    0  0.27442267074E+02 -0.16208282574E+02 -0.96651699684E+00  0.59301943466E+02  0.49999998976E+02 0.  0.
         12    1    1    2    0    0 -0.27442267074E+02  0.16208282574E+02  0.96651699684E+00  0.31886056534E+02  0.00000000000E+00 0. -1.
         11    1    3    3    0    0  0.28667827245E+02 -0.67481403998E+01 -0.12105621919E+02  0.31842232963E+02  0.51100000000E-03 0. -1.
        -11    1    3    3    0    0 -0.11037550491E+01  0.77801281628E+01  0.35373692953E+01  0.86175200163E+01  0.51100000000E-03 0.  1.
        -12    1    3    3    0    0 -0.12180512178E+00 -0.17240270337E+02  0.76017356269E+01  0.18842190487E+02  0.00000000000E+00 0.  1.
</event>
<event>
 7    1  0.3449603E-013  0.5930190E+02  0.7816164E-02  0.1266605E+00
        -11   -1    0    0    0    0  0.00000000000E+00  0.00000000000E+00  0.45593999997E+02  0.45594000000E+02  0.51100000000E-03 0. -1.
         11   -1    0    0    0    0 -0.00000000000E+00 -0.00000000000E+00 -0.45593999997E+02  0.45594000000E+02  0.51100000000E-03 0.  1.
    9900012    2    1    2    0    0  0.41868296371E+01  0.30786030388E+02 -0.71703472184E+01  0.59301904461E+02  0.49999927840E+02 0.  0.
         12    1    1    2    0    0 -0.41868296371E+01 -0.30786030388E+02  0.71703472184E+01  0.31886095539E+02  0.00000000000E+00 0. -1.
         11    1    3    3    0    0  0.17265266834E+01 -0.87921526156E+01 -0.68901555552E+01  0.11302968010E+02  0.51100000000E-03 0. -1.
        -11    1    3    3    0    0  0.14588234851E+02  0.17451189154E+02  0.55599445779E+00  0.22752356561E+02  0.51100000000E-03 0.  1.
         12    1    3    3    0    0 -0.12127931897E+02  0.22126993849E+02 -0.83618612101E+00  0.25246579890E+02  0.00000000000E+00 0. -1.
</event>
<event>
 7    1  0.3449603E-013  0.5930197E+02  0.7816164E-02  0.1266605E+00
        -11   -1    0    0    0    0  0.00000000000E+00  0.00000000000E+00  0.45593999997E+02  0.45594000000E+02  0.51100000000E-03 0.  1.
         11   -1    0    0    0    0 -0.00000000000E+00 -0.00000000000E+00 -0.45593999997E+02  0.45594000000E+02  0.51100000000E-03 0. -1.
    9900012    2    1    2    0    0  0.96129153556E+00  0.30976760798E+02  0.74990221218E+01  0.59301966636E+02  0.50000041231E+02 0.  0.
         12    1    1    2    0    0 -0.96129153556E+00 -0.30976760798E+02 -0.74990221218E+01  0.31886033364E+02  0.00000000000E+00 0. -1.
         11    1    3    3    0    0  0.46861444746E+01 -0.44664223669E+01 -0.35160778639E+01  0.73669316952E+01  0.51100000000E-03 0. -1.
        -11    1    3    3    0    0 -0.97671450527E+01 -0.24256698389E+01 -0.38939420008E+01  0.10790911973E+02  0.51100000000E-03 0.  1.
        -12    1    3    3    0    0  0.60422921137E+01  0.37868853003E+02  0.14909041987E+02  0.41144122967E+02  0.00000000000E+00 0.  1.
</event>
<event>
 7    1  0.3449603E-013  0.5930193E+02  0.7816164E-02  0.1266605E+00
        -11   -1    0    0    0    0  0.00000000000E+00  0.00000000000E+00  0.45593999997E+02  0.45594000000E+02  0.51100000000E-03 0. -1.
         11   -1    0    0    0    0 -0.00000000000E+00 -0.00000000000E+00 -0.45593999997E+02  0.45594000000E+02  0.51100000000E-03 0.  1.
    9900012    2    1    2    0    0 -0.19763559768E+02  0.16994196608E+02 -0.18366280339E+02  0.59301933034E+02  0.49999979950E+02 0.  0.
         12    1    1    2    0    0  0.19763559768E+02 -0.16994196608E+02  0.18366280339E+02  0.31886066966E+02  0.00000000000E+00 0. -1.
         11    1    3    3    0    0 -0.28507857397E+01 -0.98375159307E+00  0.10285725746E+02  0.10718717317E+02  0.51100000000E-03 0. -1.
        -11    1    3    3    0    0  0.88319363425E+01  0.58176906726E+01 -0.57140151775E+01  0.12020756799E+02  0.51100000000E-03 0.  1.
        -12    1    3    3    0    0 -0.25744710371E+02  0.12160257529E+02 -0.22937990908E+02  0.36562458918E+02  0.00000000000E+00 0.  1.
</event>
<event>
 7    1  0.3449603E-013  0.5930192E+02  0.7816164E-02  0.1266605E+00
        -11   -1    0    0    0    0  0.00000000000E+00  0.00000000000E+00  0.45593999997E+02  0.45594000000E+02  0.51100000000E-03 0.  1.
         11   -1    0    0    0    0 -0.00000000000E+00 -0.00000000000E+00 -0.45593999997E+02  0.45594000000E+02  0.51100000000E-03 0. -1.
    9900012    2    1    2    0    0  0.11563482275E+01 -0.12536205719E+02  0.29295537690E+02  0.59301919595E+02  0.49999955440E+02 0.  0.
         12    1    1    2    0    0 -0.11563482275E+01  0.12536205719E+02 -0.29295537690E+02  0.31886080405E+02  0.00000000000E+00 0. -1.
         11    1    3    3    0    0  0.75051044367E+01  0.36657481302E+01 -0.14194118479E+00  0.83537087285E+01  0.51100000000E-03 0. -1.
        -11    1    3    3    0    0  0.14786245842E+02 -0.13279247726E+02  0.10803165711E+02  0.22620342082E+02  0.51100000000E-03 0.  1.
         12    1    3    3    0    0 -0.21135002051E+02 -0.29227061232E+01  0.18634313164E+02  0.28327868785E+02  0.00000000000E+00 0. -1.
</event>
<event>
 7    1  0.3449603E-013  0.5930195E+02  0.7816164E-02  0.1266605E+00
        -11   -1    0    0    0    0  0.00000000000E+00  0.00000000000E+00  0.45593999997E+02  0.45594000000E+02  0.51100000000E-03 0. -1.
         11   -1    0    0    0    0 -0.00000000000E+00 -0.00000000000E+00 -0.45593999997E+02  0.45594000000E+02  0.51100000000E-03 0.  1.
    9900012    2    1    2    0    0  0.44238080134E+01 -0.26396583756E+02 -0.17331193689E+02  0.59301953114E+02  0.50000016571E+02 0.  0.
         12    1    1    2    0    0 -0.44238080134E+01  0.26396583756E+02  0.17331193689E+02  0.31886046886E+02  0.00000000000E+00 0. -1.
         11    1    3    3    0    0  0.17493075811E+01 -0.19147022295E+02 -0.15842730558E+02  0.24913061867E+02  0.51100000000E-03 0. -1.
        -11    1    3    3    0    0  0.42692751486E+01 -0.15552789154E+02 -0.12571551626E+02  0.20448957707E+02  0.51100000000E-03 0.  1.
         12    1    3    3    0    0 -0.15947747163E+01  0.83032276931E+01  0.11083088495E+02  0.13939933540E+02  0.00000000000E+00 0. -1.
</event>
<event>
 7    1  0.3449603E-013  0.5930194E+02  0.7816164E-02  0.1266605E+00
        -11   -1    0    0    0    0  0.00000000000E+00  0.00000000000E+00  0.45593999997E+02  0.45594000000E+02  0.51100000000E-03 0.  1.
         11   -1    0    0    0    0 -0.00000000000E+00 -0.00000000000E+00 -0.45593999997E+02  0.45594000000E+02  0.51100000000E-03 0. -1.
    9900012    2    1    2    0    0  0.28217991478E+02  0.14717893935E+02  0.19619830464E+01  0.59301939998E+02  0.49999992651E+02 0.  0.
         12    1    1    2    0    0 -0.28217991478E+02 -0.14717893935E+02 -0.19619830464E+01  0.31886060002E+02  0.00000000000E+00 0. -1.
         11    1    3    3    0    0 -0.94688285608E+01 -0.44483125521E+00  0.99237618202E+01  0.13723616072E+02  0.51100000000E-03 0. -1.
        -11    1    3    3    0    0  0.92517693207E+01  0.37476094466E+01  0.62761715608E+01  0.11791104352E+02  0.51100000000E-03 0.  1.
         12    1    3    3    0    0  0.28435050719E+02  0.11415115744E+02 -0.14237950335E+02  0.33787219574E+02  0.00000000000E+00 0. -1.
</event>
<event>
 7    1  0.3449603E-013  0.5930199E+02  0.7816164E-02  0.1266605E+00
        -11   -1    0    0    0    0  0.00000000000E+00  0.00000000000E+00  0.45593999997E+02  0.45594000000E+02  0.51100000000E-03 0. -1.
         11   -1    0    0    0    0 -0.00000000000E+00 -0.00000000000E+00 -0.45593999997E+02  0.45594000000E+02  0.51100000000E-03 0.  1.
    9900012    2    1    2    0    0  0.10322664697E+02 -0.12828425663E+02 -0.27305520239E+02  0.59301994497E+02  0.50000092043E+02 0.  0.
         12    1    1    2    0    0 -0.10322664697E+02  0.12828425663E+02  0.27305520239E+02  0.31886005503E+02  0.00000000000E+00 0. -1.
         11    1    3    3    0    0  0.38375531678E+01 -0.28396078424E+02 -0.79924864639E+01  0.29748007065E+02  0.51100000000E-03 0. -1.
        -11    1    3    3    0    0 -0.38047676335E+01  0.29643018212E+01 -0.92253897853E+01  0.10410146924E+02  0.51100000000E-03 0.  1.
        -12    1    3    3    0    0  0.10289879163E+02  0.12603350940E+02 -0.10087643990E+02  0.19143840507E+02  0.00000000000E+00 0.  1.
</event>
<event>
 7    1  0.3449603E-013  0.5930195E+02  0.7816164E-02  0.1266605E+00
        -11   -1    0    0    0    0  0.00000000000E+00  0.00000000000E+00  0.45593999997E+02  0.45594000000E+02  0.51100000000E-03 0.  1.
         11   -1    0    0    0    0 -0.00000000000E+00 -0.00000000000E+00 -0.45593999997E+02  0.45594000000E+02  0.51100000000E-03 0. -1.
    9900012    2    1    2    0    0 -0.23340981891E+02  0.17481076732E+02 -0.12896927602E+02  0.59301949431E+02  0.50000009854E+02 0.  0.
         12    1    1    2    0    0  0.23340981891E+02 -0.17481076732E+02  0.12896927602E+02  0.31886050569E+02  0.00000000000E+00 0. -1.
         11    1    3    3    0    0 -0.13827760973E+01  0.27711957370E+01 -0.16626439955E+02  0.16912424468E+02  0.51100000000E-03 0. -1.
        -11    1    3    3    0    0 -0.72266560198E+01  0.88201122693E+01 -0.14354690506E+02  0.18332377845E+02  0.51100000000E-03 0.  1.
        -12    1    3    3    0    0 -0.14731549774E+02  0.58897687253E+01  0.18084202859E+02  0.24057147117E+02  0.00000000000E+00 0.  1.
</event>
<event>
 7    1  0.3449603E-013  0.5930194E+02  0.7816164E-02  0.1266605E+00
        -11   -1    0    0    0    0  0.00000000000E+00  0.00000000000E+00  0.45593999997E+02  0.45594000000E+02  0.51100000000E-03 0.  1.
         11   -1    0    0    0    0 -0.00000000000E+00 -0.00000000000E+00 -0.45593999997E+02  0.45594000000E+02  0.51100000000E-03 0. -1.
    9900012    2    1    2    0    0 -0.22671483459E+02 -0.15579459778E+02  0.16124670143E+02  0.59301941661E+02  0.49999995683E+02 0.  0.
         12    1    1    2    0    0  0.22671483459E+02  0.15579459778E+02 -0.16124670143E+02  0.31886058339E+02  0.00000000000E+00 0. -1.
         11    1    3    3    0    0 -0.10144911130E+02 -0.94327535624E+01 -0.10536824199E+02  0.17404617953E+02  0.51100000000E-03 0. -1.
        -11    1    3    3    0    0 -0.11959250046E+02 -0.21838433223E+01 -0.25426622470E+01  0.12420062998E+02  0.51100000000E-03 0.  1.
         12    1    3    3    0    0 -0.56732228263E+00 -0.39628628928E+01  0.29204156589E+02  0.29477260710E+02  0.00000000000E+00 0. -1.
</event>
<event>
 7    1  0.3449603E-013  0.5930195E+02  0.7816164E-02  0.1266605E+00
        -11   -1    0    0    0    0  0.00000000000E+00  0.00000000000E+00  0.45593999997E+02  0.45594000000E+02  0.51100000000E-03 0. -1.
         11   -1    0    0    0    0 -0.00000000000E+00 -0.00000000000E+00 -0.45593999997E+02  0.45594000000E+02  0.51100000000E-03 0.  1.
    9900012    2    1    2    0    0 -0.47437389592E+01 -0.31011151335E+02 -0.57031155292E+01  0.59301951433E+02  0.50000013506E+02 0.  0.
         12    1    1    2    0    0  0.47437389592E+01  0.31011151335E+02  0.57031155292E+01  0.31886048567E+02  0.00000000000E+00 0. -1.
         11    1    3    3    0    0 -0.10955164885E+02 -0.23095205774E+01 -0.41794612964E+00  0.11203758395E+02  0.51100000000E-03 0. -1.
        -11    1    3    3    0    0 -0.76808186939E+01  0.52612711963E+01  0.41761564313E+01  0.10203736238E+02  0.51100000000E-03 0.  1.
        -12    1    3    3    0    0  0.13892244619E+02 -0.33962901954E+02 -0.94613258308E+01  0.37894456800E+02  0.00000000000E+00 0.  1.
</event>
<event>
 7    1  0.3449603E-013  0.5930211E+02  0.7816164E-02  0.1266604E+00
        -11   -1    0    0    0    0  0.00000000000E+00  0.00000000000E+00  0.45593999997E+02  0.45594000000E+02  0.51100000000E-03 0.  1.
         11   -1    0    0    0    0 -0.00000000000E+00 -0.00000000000E+00 -0.45593999997E+02  0.45594000000E+02  0.51100000000E-03 0. -1.
    9900012    2    1    2    0    0  0.10530295890E+02 -0.30096726250E+02 -0.98820641343E-01  0.59302112400E+02  0.50000307070E+02 0.  0.
         12    1    1    2    0    0 -0.10530295890E+02  0.30096726250E+02  0.98820641343E-01  0.31885887600E+02  0.00000000000E+00 0. -1.
         11    1    3    3    0    0  0.13150200819E+02 -0.54645531499E+01  0.13173294667E+02  0.19399093158E+02  0.51100000000E-03 0. -1.
        -11    1    3    3    0    0 -0.13936734353E+02 -0.47607033066E+01 -0.60501443195E+01  0.15921718090E+02  0.51100000000E-03 0.  1.
         12    1    3    3    0    0  0.11316829424E+02 -0.19871469794E+02 -0.72219709889E+01  0.23981301152E+02  0.00000000000E+00 0. -1.
</event>
<event>
 7    1  0.3449603E-013  0.5930195E+02  0.7816164E-02  0.1266605E+00
        -11   -1    0    0    0    0  0.00000000000E+00  0.00000000000E+00  0.45593999997E+02  0.45594000000E+02  0.51100000000E-03 0.  1.
         11   -1    0    0    0    0 -0.00000000000E+00 -0.00000000000E+00 -0.45593999997E+02  0.45594000000E+02  0.51100000000E-03 0. -1.
    9900012    2    1    2    0    0 -0.17393944290E+02  0.26712943426E+02 -0.76778769072E+00  0.59301950662E+02  0.50000012100E+02 0.  0.
         12    1    1    2    0    0  0.17393944290E+02 -0.26712943426E+02  0.76778769072E+00  0.31886049338E+02  0.00000000000E+00 0. -1.
         11    1    3    3    0    0 -0.21830410759E+02  0.14924488143E+02 -0.24283163757E+01  0.26555675493E+02  0.51100000000E-03 0.  1.
        -11    1    3    3    0    0 -0.96070896241E+01 -0.40215145232E+01  0.46201494407E+01  0.11393618004E+02  0.51100000000E-03 0. -1.
         12    1    3    3    0    0  0.14043556093E+02  0.15809969806E+02 -0.29596207557E+01  0.21352657165E+02  0.00000000000E+00 0. -1.
</event>
<event>
 7    1  0.3449603E-013  0.5930196E+02  0.7816164E-02  0.1266605E+00
        -11   -1    0    0    0    0  0.00000000000E+00  0.00000000000E+00  0.45593999997E+02  0.45594000000E+02  0.51100000000E-03 0. -1.
         11   -1    0    0    0    0 -0.00000000000E+00 -0.00000000000E+00 -0.45593999997E+02  0.45594000000E+02  0.51100000000E-03 0.  1.
    9900012    2    1    2    0    0 -0.33396554168E+01 -0.29415316815E+02 -0.11845055446E+02  0.59301960733E+02  0.50000030467E+02 0.  0.
         12    1    1    2    0    0  0.33396554168E+01  0.29415316815E+02  0.11845055446E+02  0.31886039267E+02  0.00000000000E+00 0. -1.
         11    1    3    3    0    0 -0.42704335886E+01  0.70318338185E+01 -0.12998206669E+02  0.15382999277E+02  0.51100000000E-03 0. -1.
        -11    1    3    3    0    0 -0.48133625068E+01 -0.89669496993E+01 -0.94705110027E+01  0.13901986349E+02  0.51100000000E-03 0.  1.
        -12    1    3    3    0    0  0.57441406785E+01 -0.27480200934E+02  0.10623662226E+02  0.30016975107E+02  0.00000000000E+00 0.  1.
</event>
<event>
 7    1  0.3449603E-013  0.5930197E+02  0.7816164E-02  0.1266605E+00
        -11   -1    0    0    0    0  0.00000000000E+00  0.00000000000E+00  0.45593999997E+02  0.45594000000E+02  0.51100000000E-03 0. -1.
         11   -1    0    0    0    0 -0.00000000000E+00 -0.00000000000E+00 -0.45593999997E+02  0.45594000000E+02  0.51100000000E-03 0.  1.
    9900012    2    1    2    0    0  0.18659157701E+02  0.62131618036E+01  0.25098834975E+02  0.59301967590E+02  0.50000042973E+02 0.  0.
         12    1    1    2    0    0 -0.18659157701E+02 -0.62131618036E+01 -0.25098834975E+02  0.31886032410E+02  0.00000000000E+00 0. -1.
         11    1    3    3    0    0  0.31566157268E+00  0.53886577283E+01 -0.42145823551E+01  0.68483559363E+01  0.51100000000E-03 0.  1.
        -11    1    3    3    0    0  0.10262841263E+02 -0.60568935780E+01  0.37308550005E+02  0.39165543202E+02  0.51100000000E-03 0. -1.
         12    1    3    3    0    0  0.80806548650E+01  0.68813976532E+01 -0.79951326741E+01  0.13288068452E+02  0.00000000000E+00 0. -1.
</event>
<event>
 7    1  0.3449603E-013  0.5930197E+02  0.7816164E-02  0.1266605E+00
        -11   -1    0    0    0    0  0.00000000000E+00  0.00000000000E+00  0.45593999997E+02  0.45594000000E+02  0.51100000000E-03 0. -1.
         11   -1    0    0    0    0 -0.00000000000E+00 -0.00000000000E+00 -0.45593999997E+02  0.45594000000E+02  0.51100000000E-03 0.  1.
    9900012    2    1    2    0    0  0.44369077212E+00 -0.99569427273E+01 -0.30288302862E+02  0.59301970767E+02  0.50000048767E+02 0.  0.
         12    1    1    2    0    0 -0.44369077212E+00  0.99569427273E+01  0.30288302862E+02  0.31886029233E+02  0.00000000000E+00 0. -1.
         11    1    3    3    0    0 -0.25131523506E+01 -0.19558169771E+02  0.14505620355E+01  0.19772255056E+02  0.51100000000E-03 0. -1.
        -11    1    3    3    0    0 -0.46181035017E+01 -0.23115643954E+01 -0.21445037727E+02  0.22058101760E+02  0.51100000000E-03 0.  1.
        -12    1    3    3    0    0  0.75749466244E+01  0.11912791439E+02 -0.10293827171E+02  0.17471613951E+02  0.00000000000E+00 0.  1.
</event>
<event>
 7    1  0.3449603E-013  0.5930190E+02  0.7816164E-02  0.1266605E+00
        -11   -1    0    0    0    0  0.00000000000E+00  0.00000000000E+00  0.45593999997E+02  0.45594000000E+02  0.51100000000E-03 0. -1.
         11   -1    0    0    0    0 -0.00000000000E+00 -0.00000000000E+00 -0.45593999997E+02  0.45594000000E+02  0.51100000000E-03 0.  1.
    9900012    2    1    2    0    0  0.54540794305E+01  0.53658124212E+01 -0.30954557732E+02  0.59301896918E+02  0.49999914083E+02 0.  0.
         12    1    1    2    0    0 -0.54540794305E+01 -0.53658124212E+01  0.30954557732E+02  0.31886103082E+02  0.00000000000E+00 0. -1.
         11    1    3    3    0    0 -0.26378455436E+01  0.45061849970E+01  0.66524458405E+01  0.84568888051E+01  0.51100000000E-03 0. -1.
        -11    1    3    3    0    0  0.12848418309E+02 -0.81452213653E+01 -0.40012989213E+01  0.15730126429E+02  0.51100000000E-03 0.  1.
        -12    1    3    3    0    0 -0.47564933353E+01  0.90048487895E+01 -0.33605704651E+02  0.35114881684E+02  0.00000000000E+00 0.  1.
</event>
<event>
 7    1  0.3449603E-013  0.5930196E+02  0.7816164E-02  0.1266605E+00
        -11   -1    0    0    0    0  0.00000000000E+00  0.00000000000E+00  0.45593999997E+02  0.45594000000E+02  0.51100000000E-03 0. -1.
         11   -1    0    0    0    0 -0.00000000000E+00 -0.00000000000E+00 -0.45593999997E+02  0.45594000000E+02  0.51100000000E-03 0.  1.
    9900012    2    1    2    0    0  0.29949556469E+02 -0.45074634080E+01 -0.99712810787E+01  0.59301959082E+02  0.50000027455E+02 0.  0.
         12    1    1    2    0    0 -0.29949556469E+02  0.45074634080E+01  0.99712810787E+01  0.31886040918E+02  0.00000000000E+00 0. -1.
         11    1    3    3    0    0 -0.29964371131E+01  0.10561270904E+02  0.89398489179E+00  0.11014458123E+02  0.51100000000E-03 0. -1.
        -11    1    3    3    0    0  0.24220635219E+02 -0.30589196721E+01  0.66745196225E+01  0.25308997855E+02  0.51100000000E-03 0.  1.
        -12    1    3    3    0    0  0.87253583631E+01 -0.12009814640E+02 -0.17539785593E+02  0.22978503104E+02  0.00000000000E+00 0.  1.
</event>
<event>
 7    1  0.3449603E-013  0.5930196E+02  0.7816164E-02  0.1266605E+00
        -11   -1    0    0    0    0  0.00000000000E+00  0.00000000000E+00  0.45593999997E+02  0.45594000000E+02  0.51100000000E-03 0.  1.
         11   -1    0    0    0    0 -0.00000000000E+00 -0.00000000000E+00 -0.45593999997E+02  0.45594000000E+02  0.51100000000E-03 0. -1.
    9900012    2    1    2    0    0 -0.16839908746E+02 -0.17759987041E+02  0.20438200414E+02  0.59301957561E+02  0.50000024682E+02 0.  0.
         12    1    1    2    0    0  0.16839908746E+02  0.17759987041E+02 -0.20438200414E+02  0.31886042439E+02  0.00000000000E+00 0. -1.
         11    1    3    3    0    0 -0.21859934971E+02 -0.16705852813E+00 -0.79999784620E+01  0.23278408905E+02  0.51100000000E-03 0. -1.
        -11    1    3    3    0    0 -0.32948880244E+01 -0.10808446866E+02  0.16127269089E+02  0.19691816048E+02  0.51100000000E-03 0.  1.
        -12    1    3    3    0    0  0.83149142497E+01 -0.67844816464E+01  0.12310909787E+02  0.16331732608E+02  0.00000000000E+00 0.  1.
</event>
<event>
 7    1  0.3449603E-013  0.5930197E+02  0.7816164E-02  0.1266605E+00
        -11   -1    0    0    0    0  0.00000000000E+00  0.00000000000E+00  0.45593999997E+02  0.45594000000E+02  0.51100000000E-03 0. -1.
         11   -1    0    0    0    0 -0.00000000000E+00 -0.00000000000E+00 -0.45593999997E+02  0.45594000000E+02  0.51100000000E-03 0.  1.
    9900012    2    1    2    0    0 -0.65258311366E+01  0.22431650659E+02  0.21701465505E+02  0.59301968130E+02  0.50000043957E+02 0.  0.
         12    1    1    2    0    0  0.65258311366E+01 -0.22431650659E+02 -0.21701465505E+02  0.31886031870E+02  0.00000000000E+00 0. -1.
         11    1    3    3    0    0  0.18570990602E+02  0.98764560928E+01  0.60377437613E+01  0.21883336741E+02  0.51100000000E-03 0. -1.
        -11    1    3    3    0    0 -0.47368015583E+01 -0.37080520138E+01 -0.15202104982E+01  0.62046739608E+01  0.51100000000E-03 0.  1.
         12    1    3    3    0    0 -0.20360020181E+02  0.16263246580E+02  0.17183932242E+02  0.31213957429E+02  0.00000000000E+00 0. -1.
</event>
<event>
 7    1  0.3449603E-013  0.5930195E+02  0.7816164E-02  0.1266605E+00
        -11   -1    0    0    0    0  0.00000000000E+00  0.00000000000E+00  0.45593999997E+02  0.45594000000E+02  0.51100000000E-03 0.  1.
         11   -1    0    0    0    0 -0.00000000000E+00 -0.00000000000E+00 -0.45593999997E+02  0.45594000000E+02  0.51100000000E-03 0. -1.
    9900012    2    1    2    0    0  0.13357473029E+02  0.21091821930E+02  0.19835153324E+02  0.59301947478E+02  0.50000006292E+02 0.  0.
         12    1    1    2    0    0 -0.13357473029E+02 -0.21091821930E+02 -0.19835153324E+02  0.31886052522E+02  0.00000000000E+00 0. -1.
         11    1    3    3    0    0 -0.42721687876E+01  0.52057691828E+01 -0.72625844399E+01  0.99043723649E+01  0.51100000000E-03 0. -1.
        -11    1    3    3    0    0 -0.21316744100E+01  0.11701239209E+02 -0.37971929866E+01  0.12485259695E+02  0.51100000000E-03 0.  1.
         12    1    3    3    0    0  0.19761316227E+02  0.41848135379E+01  0.30894930751E+02  0.36912315417E+02  0.00000000000E+00 0. -1.
</event>
<event>
 7    1  0.3449603E-013  0.5930191E+02  0.7816164E-02  0.1266605E+00
        -11   -1    0    0    0    0  0.00000000000E+00  0.00000000000E+00  0.45593999997E+02  0.45594000000E+02  0.51100000000E-03 0. -1.
         11   -1    0    0    0    0 -0.00000000000E+00 -0.00000000000E+00 -0.45593999997E+02  0.45594000000E+02  0.51100000000E-03 0.  1.
    9900012    2    1    2    0    0  0.29316143441E+02  0.78441605560E+01 -0.97854820139E+01  0.59301909313E+02  0.49999936688E+02 0.  0.
         12    1    1    2    0    0 -0.29316143441E+02 -0.78441605560E+01  0.97854820139E+01  0.31886090687E+02  0.00000000000E+00 0. -1.
         11    1    3    3    0    0  0.58390032205E+01  0.16743862558E+02 -0.11149891947E+02  0.20946860927E+02  0.51100000000E-03 0. -1.
        -11    1    3    3    0    0  0.19737428701E+01  0.96714518533E+01 -0.48038908223E+00  0.98824802453E+01  0.51100000000E-03 0.  1.
         12    1    3    3    0    0  0.21503397350E+02 -0.18571153856E+02  0.18447990152E+01  0.28472568141E+02  0.00000000000E+00 0. -1.
</event>
<event>
 7    1  0.3449603E-013  0.5930194E+02  0.7816164E-02  0.1266605E+00
        -11   -1    0    0    0    0  0.00000000000E+00  0.00000000000E+00  0.45593999997E+02  0.45594000000E+02  0.51100000000E-03 0. -1.
         11   -1    0    0    0    0 -0.00000000000E+00 -0.00000000000E+00 -0.45593999997E+02  0.45594000000E+02  0.51100000000E-03 0.  1.
    9900012    2    1    2    0    0  0.28232261281E+02  0.14371921963E+02  0.36205239100E+01  0.59301938604E+02  0.49999990109E+02 0.  0.
         12    1    1    2    0    0 -0.28232261281E+02 -0.14371921963E+02 -0.36205239100E+01  0.31886061396E+02  0.00000000000E+00 0. -1.
         11    1    3    3    0    0  0.18177020591E+02  0.58374869599E+01 -0.42420008764E+01  0.19556965594E+02  0.51100000000E-03 0. -1.
        -11    1    3    3    0    0 -0.11678572754E+02  0.10626662840E+02 -0.17538822177E+01  0.15886822457E+02  0.51100000000E-03 0.  1.
         12    1    3    3    0    0  0.21733813444E+02 -0.20922278372E+01  0.96164070041E+01  0.23858150553E+02  0.00000000000E+00 0. -1.
</event>
<event>
 7    1  0.3449603E-013  0.5930191E+02  0.7816164E-02  0.1266605E+00
        -11   -1    0    0    0    0  0.00000000000E+00  0.00000000000E+00  0.45593999997E+02  0.45594000000E+02  0.51100000000E-03 0.  1.
         11   -1    0    0    0    0 -0.00000000000E+00 -0.00000000000E+00 -0.45593999997E+02  0.45594000000E+02  0.51100000000E-03 0. -1.
    9900012    2    1    2    0    0  0.11045933389E+02 -0.17469190319E+02  0.24280395652E+02  0.59301907925E+02  0.49999934157E+02 0.  0.
         12    1    1    2    0    0 -0.11045933389E+02  0.17469190319E+02 -0.24280395652E+02  0.31886092075E+02  0.00000000000E+00 0. -1.
         11    1    3    3    0    0 -0.14149106543E+01  0.37766158825E+01  0.58815531998E+01  0.71314422095E+01  0.51100000000E-03 0.  1.
        -11    1    3    3    0    0 -0.75762042927E+01  0.76946455042E+01  0.12434463681E+02  0.16468828987E+02  0.51100000000E-03 0. -1.
        -12    1    3    3    0    0  0.20037048336E+02 -0.28940451705E+02  0.59643787711E+01  0.35701636728E+02  0.00000000000E+00 0.  1.
</event>
<event>
 7    1  0.3449603E-013  0.5930199E+02  0.7816164E-02  0.1266605E+00
        -11   -1    0    0    0    0  0.00000000000E+00  0.00000000000E+00  0.45593999997E+02  0.45594000000E+02  0.51100000000E-03 0. -1.
         11   -1    0    0    0    0 -0.00000000000E+00 -0.00000000000E+00 -0.45593999997E+02  0.45594000000E+02  0.51100000000E-03 0.  1.
    9900012    2    1    2    0    0 -0.13017547900E+02 -0.15718074108E+02 -0.24499050136E+02  0.59301986381E+02  0.50000077242E+02 0.  0.
         12    1    1    2    0    0  0.13017547900E+02  0.15718074108E+02  0.24499050136E+02  0.31886013619E+02  0.00000000000E+00 0. -1.
         11    1    3    3    0    0  0.11580862124E+02  0.35699049072E+01 -0.29154369625E+01  0.12464363663E+02  0.51100000000E-03 0. -1.
        -11    1    3    3    0    0 -0.36491084854E+01 -0.33002101514E+01  0.66134302575E+01  0.82428659951E+01  0.51100000000E-03 0.  1.
        -12    1    3    3    0    0 -0.20949301539E+02 -0.15987768864E+02 -0.28197043431E+02  0.38594756722E+02  0.00000000000E+00 0.  1.
</event>
<event>
 7    1  0.3449603E-013  0.5930194E+02  0.7816164E-02  0.1266605E+00
        -11   -1    0    0    0    0  0.00000000000E+00  0.00000000000E+00  0.45593999997E+02  0.45594000000E+02  0.51100000000E-03 0.  1.
         11   -1    0    0    0    0 -0.00000000000E+00 -0.00000000000E+00 -0.45593999997E+02  0.45594000000E+02  0.51100000000E-03 0. -1.
    9900012    2    1    2    0    0  0.43730610360E+01 -0.53988010757E+01  0.31119926737E+02  0.59301944176E+02  0.50000000270E+02 0.  0.
         12    1    1    2    0    0 -0.43730610360E+01  0.53988010757E+01 -0.31119926737E+02  0.31886055824E+02  0.00000000000E+00 0. -1.
         11    1    3    3    0    0 -0.12322840958E+01 -0.10237013512E+01 -0.62787420405E+01  0.64798989515E+01  0.51100000000E-03 0. -1.
        -11    1    3    3    0    0  0.19016707348E+02  0.79476455074E-01  0.88672372250E+01  0.20982596864E+02  0.51100000000E-03 0.  1.
         12    1    3    3    0    0 -0.13411362217E+02 -0.44545761796E+01  0.28531431553E+02  0.31839448361E+02  0.00000000000E+00 0. -1.
</event>
<event>
 7    1  0.3449603E-013  0.5930196E+02  0.7816164E-02  0.1266605E+00
        -11   -1    0    0    0    0  0.00000000000E+00  0.00000000000E+00  0.45593999997E+02  0.45594000000E+02  0.51100000000E-03 0.  1.
         11   -1    0    0    0    0 -0.00000000000E+00 -0.00000000000E+00 -0.45593999997E+02  0.45594000000E+02  0.51100000000E-03 0. -1.
    9900012    2    1    2    0    0 -0.11123335563E+02  0.28500930806E+02  0.89826376428E+01  0.59301961835E+02  0.50000032475E+02 0.  0.
         12    1    1    2    0    0  0.11123335563E+02 -0.28500930806E+02 -0.89826376428E+01  0.31886038165E+02  0.00000000000E+00 0. -1.
         11    1    3    3    0    0  0.90683564129E+00 -0.10749887923E+02  0.10610768083E+02  0.15131782473E+02  0.51100000000E-03 0. -1.
        -11    1    3    3    0    0 -0.12817946810E+01 -0.54212241836E-01  0.29000795890E+01  0.31711825011E+01  0.51100000000E-03 0.  1.
        -12    1    3    3    0    0 -0.10748376523E+02  0.39305030971E+02 -0.45282100287E+01  0.40998996861E+02  0.00000000000E+00 0.  1.
</event>
<event>
 7    1  0.3449603E-013  0.5930194E+02  0.7816164E-02  0.1266605E+00
        -11   -1    0    0    0    0  0.00000000000E+00  0.00000000000E+00  0.45593999997E+02  0.45594000000E+02  0.51100000000E-03 0.  1.
         11   -1    0    0    0    0 -0.00000000000E+00 -0.00000000000E+00 -0.45593999997E+02  0.45594000000E+02  0.51100000000E-03 0. -1.
    9900012    2    1    2    0    0 -0.21695895909E+02 -0.17543413101E+02  0.15434944050E+02  0.59301941285E+02  0.49999994999E+02 0.  0.
         12    1    1    2    0    0  0.21695895909E+02  0.17543413101E+02 -0.15434944050E+02  0.31886058715E+02  0.00000000000E+00 0. -1.
         11    1    3    3    0    0 -0.35583783215E+01 -0.28143992359E+01  0.89013263934E+00  0.46233359941E+01  0.51100000000E-03 0. -1.
        -11    1    3    3    0    0 -0.10568368572E+02 -0.21817301218E+01  0.30893496182E+02  0.32723973891E+02  0.51100000000E-03 0.  1.
         12    1    3    3    0    0 -0.75691490158E+01 -0.12547283743E+02 -0.16348684772E+02  0.21954631400E+02  0.00000000000E+00 0. -1.
</event>
<event>
 7    1  0.3449603E-013  0.5930196E+02  0.7816164E-02  0.1266605E+00
        -11   -1    0    0    0    0  0.00000000000E+00  0.00000000000E+00  0.45593999997E+02  0.45594000000E+02  0.51100000000E-03 0. -1.
         11   -1    0    0    0    0 -0.00000000000E+00 -0.00000000000E+00 -0.45593999997E+02  0.45594000000E+02  0.51100000000E-03 0.  1.
    9900012    2    1    2    0    0  0.64714863745E+01 -0.27967171365E+02 -0.13880812994E+02  0.59301956353E+02  0.50000022478E+02 0.  0.
         12    1    1    2    0    0 -0.64714863745E+01  0.27967171365E+02  0.13880812994E+02  0.31886043647E+02  0.00000000000E+00 0. -1.
         11    1    3    3    0    0  0.51032817998E+01 -0.11421339533E+02  0.12047145678E+02  0.17367331433E+02  0.51100000000E-03 0. -1.
        -11    1    3    3    0    0  0.72922574026E+01  0.48268650339E+01 -0.13828763452E+01  0.88536993019E+01  0.51100000000E-03 0.  1.
        -12    1    3    3    0    0 -0.59240528279E+01 -0.21372696866E+02 -0.24545082328E+02  0.33080925618E+02  0.00000000000E+00 0.  1.
</event>
<event>
 7    1  0.3449603E-013  0.5930193E+02  0.7816164E-02  0.1266605E+00
        -11   -1    0    0    0    0  0.00000000000E+00  0.00000000000E+00  0.45593999997E+02  0.45594000000E+02  0.51100000000E-03 0.  1.
         11   -1    0    0    0    0 -0.00000000000E+00 -0.00000000000E+00 -0.45593999997E+02  0.45594000000E+02  0.51100000000E-03 0. -1.
    9900012    2    1    2    0    0 -0.26976841801E+02 -0.12022699481E+02  0.12017742896E+02  0.59301930303E+02  0.49999974970E+02 0.  0.
         12    1    1    2    0    0  0.26976841801E+02  0.12022699481E+02 -0.12017742896E+02  0.31886069697E+02  0.00000000000E+00 0. -1.
         11    1    3    3    0    0 -0.89777994941E+01 -0.92339025832E+00  0.21168355879E+02  0.23012014780E+02  0.51100000000E-03 0. -1.
        -11    1    3    3    0    0 -0.28458380104E+01 -0.17993558619E+01  0.97655901216E+01  0.10329725368E+02  0.51100000000E-03 0.  1.
         12    1    3    3    0    0 -0.15153204297E+02 -0.92999533612E+01 -0.18916203105E+02  0.25960190155E+02  0.00000000000E+00 0. -1.
</event>
<event>
 7    1  0.3449603E-013  0.5930197E+02  0.7816164E-02  0.1266605E+00
        -11   -1    0    0    0    0  0.00000000000E+00  0.00000000000E+00  0.45593999997E+02  0.45594000000E+02  0.51100000000E-03 0.  1.
         11   -1    0    0    0    0 -0.00000000000E+00 -0.00000000000E+00 -0.45593999997E+02  0.45594000000E+02  0.51100000000E-03 0. -1.
    9900012    2    1    2    0    0  0.51556788714E+01 -0.21270095904E+02  0.23188804144E+02  0.59301974189E+02  0.50000055007E+02 0.  0.
         12    1    1    2    0    0 -0.51556788714E+01  0.21270095904E+02 -0.23188804144E+02  0.31886025811E+02  0.00000000000E+00 0. -1.
         11    1    3    3    0    0  0.59773650984E+01 -0.32182594396E+01  0.14264855144E+02  0.15797853648E+02  0.51100000000E-03 0. -1.
        -11    1    3    3    0    0  0.16985183943E+02 -0.94135588038E+01  0.12904809364E+02  0.23316210411E+02  0.51100000000E-03 0.  1.
         12    1    3    3    0    0 -0.17806870170E+02 -0.86382776603E+01 -0.39808603639E+01  0.20187910130E+02  0.00000000000E+00 0. -1.
</event>
<event>
 7    1  0.3449603E-013  0.5930183E+02  0.7816164E-02  0.1266605E+00
        -11   -1    0    0    0    0  0.00000000000E+00  0.00000000000E+00  0.45593999997E+02  0.45594000000E+02  0.51100000000E-03 0.  1.
         11   -1    0    0    0    0 -0.00000000000E+00 -0.00000000000E+00 -0.45593999997E+02  0.45594000000E+02  0.51100000000E-03 0. -1.
    9900012    2    1    2    0    0  0.10949783114E+02 -0.21837748419E+02  0.20492501433E+02  0.59301833387E+02  0.49999798218E+02 0.  0.
         12    1    1    2    0    0 -0.10949783114E+02  0.21837748419E+02 -0.20492501433E+02  0.31886166613E+02  0.00000000000E+00 0. -1.
         11    1    3    3    0    0  0.79658288582E+01  0.45247967146E+01 -0.20013464517E+01  0.93772918579E+01  0.51100000000E-03 0. -1.
        -11    1    3    3    0    0  0.50700101915E+01  0.81067625362E+01  0.80269189163E+01  0.12484231242E+02  0.51100000000E-03 0.  1.
         12    1    3    3    0    0 -0.20860559356E+01 -0.34469307670E+02  0.14466928969E+02  0.37440310287E+02  0.00000000000E+00 0. -1.
</event>
<event>
 7    1  0.3449603E-013  0.5930194E+02  0.7816164E-02  0.1266605E+00
        -11   -1    0    0    0    0  0.00000000000E+00  0.00000000000E+00  0.45593999997E+02  0.45594000000E+02  0.51100000000E-03 0.  1.
         11   -1    0    0    0    0 -0.00000000000E+00 -0.00000000000E+00 -0.45593999997E+02  0.45594000000E+02  0.51100000000E-03 0. -1.
    9900012    2    1    2    0    0 -0.13657510595E+02 -0.13235911993E+02  0.25593038036E+02  0.59301944147E+02  0.50000000218E+02 0.  0.
         12    1    1    2    0    0  0.13657510595E+02  0.13235911993E+02 -0.25593038036E+02  0.31886055853E+02  0.00000000000E+00 0. -1.
         11    1    3    3    0    0 -0.91291610249E+01  0.12932612593E+01 -0.38444546676E+01  0.99896915697E+01  0.51100000000E-03 0. -1.
        -11    1    3    3    0    0 -0.17315968190E+02 -0.18197590577E+02  0.24593367118E+02  0.35154356254E+02  0.51100000000E-03 0.  1.
        -12    1    3    3    0    0  0.12787618619E+02  0.36684173250E+01  0.48441255859E+01  0.14157896324E+02  0.00000000000E+00 0.  1.
</event>
<event>
 7    1  0.3449603E-013  0.5930193E+02  0.7816164E-02  0.1266605E+00
        -11   -1    0    0    0    0  0.00000000000E+00  0.00000000000E+00  0.45593999997E+02  0.45594000000E+02  0.51100000000E-03 0.  1.
         11   -1    0    0    0    0 -0.00000000000E+00 -0.00000000000E+00 -0.45593999997E+02  0.45594000000E+02  0.51100000000E-03 0. -1.
    9900012    2    1    2    0    0  0.26510542747E+02  0.75105979394E+01  0.16046921485E+02  0.59301927063E+02  0.49999969061E+02 0.  0.
         12    1    1    2    0    0 -0.26510542747E+02 -0.75105979394E+01 -0.16046921485E+02  0.31886072937E+02  0.00000000000E+00 0. -1.
         11    1    3    3    0    0  0.96557027461E+00 -0.40586060983E+01 -0.33979863782E+01  0.53806060164E+01  0.51100000000E-03 0. -1.
        -11    1    3    3    0    0 -0.10051445442E+02 -0.47264198244E+01  0.51620823304E+01  0.12248171050E+02  0.51100000000E-03 0.  1.
         12    1    3    3    0    0  0.35596417915E+02  0.16295623862E+02  0.14282825533E+02  0.41673149997E+02  0.00000000000E+00 0. -1.
</event>
<event>
 7    1  0.3449603E-013  0.5930196E+02  0.7816164E-02  0.1266605E+00
        -11   -1    0    0    0    0  0.00000000000E+00  0.00000000000E+00  0.45593999997E+02  0.45594000000E+02  0.51100000000E-03 0. -1.
         11   -1    0    0    0    0 -0.00000000000E+00 -0.00000000000E+00 -0.45593999997E+02  0.45594000000E+02  0.51100000000E-03 0.  1.
    9900012    2    1    2    0    0 -0.45056996019E+01  0.40584306807E+01 -0.31304112170E+02  0.59301958740E+02  0.50000026831E+02 0.  0.
         12    1    1    2    0    0  0.45056996019E+01 -0.40584306807E+01  0.31304112170E+02  0.31886041260E+02  0.00000000000E+00 0. -1.
         11    1    3    3    0    0 -0.13392566393E+02  0.46083719518E+01 -0.17162681500E+02  0.22252091209E+02  0.51100000000E-03 0. -1.
        -11    1    3    3    0    0 -0.11107839803E+01 -0.15794538315E+02 -0.84751082038E+01  0.17959085193E+02  0.51100000000E-03 0.  1.
         12    1    3    3    0    0  0.99976507717E+01  0.15244597044E+02 -0.56663224666E+01  0.19090782338E+02  0.00000000000E+00 0. -1.
</event>
<event>
 7    1  0.3449603E-013  0.5930201E+02  0.7816164E-02  0.1266605E+00
        -11   -1    0    0    0    0  0.00000000000E+00  0.00000000000E+00  0.45593999997E+02  0.45594000000E+02  0.51100000000E-03 0.  1.
         11   -1    0    0    0    0 -0.00000000000E+00 -0.00000000000E+00 -0.45593999997E+02  0.45594000000E+02  0.51100000000E-03 0. -1.
    9900012    2    1    2    0    0  0.29785456782E+01 -0.17748938803E+02  0.26321465875E+02  0.59302013598E+02  0.50000126880E+02 0.  0.
         12    1    1    2    0    0 -0.29785456782E+01  0.17748938803E+02 -0.26321465875E+02  0.31885986402E+02  0.00000000000E+00 0. -1.
         11    1    3    3    0    0 -0.41137068466E+01 -0.24904305008E+01  0.71825025199E+01  0.86436780834E+01  0.51100000000E-03 0. -1.
        -11    1    3    3    0    0 -0.10272283863E+02 -0.22807444527E+02  0.19505890174E+02  0.31720326186E+02  0.51100000000E-03 0.  1.
        -12    1    3    3    0    0  0.17364536388E+02  0.75489362240E+01 -0.36692681877E+00  0.18938009330E+02  0.00000000000E+00 0.  1.
</event>
<event>
 7    1  0.3449603E-013  0.5930194E+02  0.7816164E-02  0.1266605E+00
        -11   -1    0    0    0    0  0.00000000000E+00  0.00000000000E+00  0.45593999997E+02  0.45594000000E+02  0.51100000000E-03 0.  1.
         11   -1    0    0    0    0 -0.00000000000E+00 -0.00000000000E+00 -0.45593999997E+02  0.45594000000E+02  0.51100000000E-03 0. -1.
    9900012    2    1    2    0    0  0.14733531242E+02 -0.26757334067E+02  0.91481766093E+01  0.59301937144E+02  0.49999987445E+02 0.  0.
         12    1    1    2    0    0 -0.14733531242E+02  0.26757334067E+02 -0.91481766093E+01  0.31886062856E+02  0.00000000000E+00 0. -1.
         11    1    3    3    0    0  0.11020270969E+02 -0.16890990660E+02  0.19417678930E+01  0.20261352386E+02  0.51100000000E-03 0. -1.
        -11    1    3    3    0    0  0.12266891225E+02 -0.20402255046E+02  0.28776496725E+00  0.23807802087E+02  0.51100000000E-03 0.  1.
         12    1    3    3    0    0 -0.85536309521E+01  0.10535911640E+02  0.69186437490E+01  0.15232782670E+02  0.00000000000E+00 0. -1.
</event>
<event>
 7    1  0.3449603E-013  0.5930195E+02  0.7816164E-02  0.1266605E+00
        -11   -1    0    0    0    0  0.00000000000E+00  0.00000000000E+00  0.45593999997E+02  0.45594000000E+02  0.51100000000E-03 0.  1.
         11   -1    0    0    0    0 -0.00000000000E+00 -0.00000000000E+00 -0.45593999997E+02  0.45594000000E+02  0.51100000000E-03 0. -1.
    9900012    2    1    2    0    0  0.30468441464E+01  0.20063242872E+02  0.24594776924E+02  0.59301952491E+02  0.50000015436E+02 0.  0.
         12    1    1    2    0    0 -0.30468441464E+01 -0.20063242872E+02 -0.24594776924E+02  0.31886047509E+02  0.00000000000E+00 0. -1.
         11    1    3    3    0    0 -0.24233914538E-01 -0.54418598522E+00 -0.24714396249E+01  0.25307587300E+01  0.51100000000E-03 0. -1.
        -11    1    3    3    0    0 -0.73046935797E+01  0.17533585941E+01 -0.10836141874E+02  0.13185400473E+02  0.51100000000E-03 0.  1.
        -12    1    3    3    0    0  0.10375771641E+02  0.18854070263E+02  0.37902358422E+02  0.43585793289E+02  0.00000000000E+00 0.  1.
</event>
<event>
 7    1  0.3449603E-013  0.5930197E+02  0.7816164E-02  0.1266605E+00
        -11   -1    0    0    0    0  0.00000000000E+00  0.00000000000E+00  0.45593999997E+02  0.45594000000E+02  0.51100000000E-03 0.  1.
         11   -1    0    0    0    0 -0.00000000000E+00 -0.00000000000E+00 -0.45593999997E+02  0.45594000000E+02  0.51100000000E-03 0. -1.
    9900012    2    1    2    0    0  0.17111881565E+02  0.12035819116E+02  0.24063280138E+02  0.59301970403E+02  0.50000048102E+02 0.  0.
         12    1    1    2    0    0 -0.17111881565E+02 -0.12035819116E+02 -0.24063280138E+02  0.31886029597E+02  0.00000000000E+00 0. -1.
         11    1    3    3    0    0 -0.25397962290E+01 -0.65241864030E+01 -0.12455237622E+01  0.71110409090E+01  0.51100000000E-03 0. -1.
        -11    1    3    3    0    0  0.23130106556E+02  0.83975265845E+01 -0.97285211633E-01  0.24607514029E+02  0.51100000000E-03 0.  1.
         12    1    3    3    0    0 -0.34784287620E+01  0.10162478935E+02  0.25406089111E+02  0.27583415465E+02  0.00000000000E+00 0. -1.
</event>
<event>
 7    1  0.3449603E-013  0.5930194E+02  0.7816164E-02  0.1266605E+00
        -11   -1    0    0    0    0  0.00000000000E+00  0.00000000000E+00  0.45593999997E+02  0.45594000000E+02  0.51100000000E-03 0.  1.
         11   -1    0    0    0    0 -0.00000000000E+00 -0.00000000000E+00 -0.45593999997E+02  0.45594000000E+02  0.51100000000E-03 0. -1.
    9900012    2    1    2    0    0  0.16883087225E+02 -0.19953676383E+02  0.18262885176E+02  0.59301940187E+02  0.49999992995E+02 0.  0.
         12    1    1    2    0    0 -0.16883087225E+02  0.19953676383E+02 -0.18262885176E+02  0.31886059813E+02  0.00000000000E+00 0. -1.
         11    1    3    3    0    0  0.57758647388E+01 -0.98448104848E+01 -0.82454463074E+01  0.14080777394E+02  0.51100000000E-03 0. -1.
        -11    1    3    3    0    0  0.19304597461E+02  0.30939049071E+01  0.81852661573E+01  0.21195242698E+02  0.51100000000E-03 0.  1.
        -12    1    3    3    0    0 -0.81973749746E+01 -0.13202770806E+02  0.18323065327E+02  0.24025920094E+02  0.00000000000E+00 0.  1.
</event>
<event>
 7    1  0.3449603E-013  0.5930194E+02  0.7816164E-02  0.1266605E+00
        -11   -1    0    0    0    0  0.00000000000E+00  0.00000000000E+00  0.45593999997E+02  0.45594000000E+02  0.51100000000E-03 0.  1.
         11   -1    0    0    0    0 -0.00000000000E+00 -0.00000000000E+00 -0.45593999997E+02  0.45594000000E+02  0.51100000000E-03 0. -1.
    9900012    2    1    2    0    0 -0.22122643992E+01  0.19839777061E+02  0.24863824354E+02  0.59301943030E+02  0.49999998180E+02 0.  0.
         12    1    1    2    0    0  0.22122643992E+01 -0.19839777061E+02 -0.24863824354E+02  0.31886056970E+02  0.00000000000E+00 0. -1.
         11    1    3    3    0    0 -0.18708646227E+02  0.18181566808E+01  0.47263390322E+01  0.19381883765E+02  0.51100000000E-03 0. -1.
        -11    1    3    3    0    0  0.31275008809E+00  0.76611786502E+01  0.19207888859E+02  0.20681742325E+02  0.51100000000E-03 0.  1.
         12    1    3    3    0    0  0.16183631739E+02  0.10360441730E+02  0.92959646294E+00  0.19238316940E+02  0.00000000000E+00 0. -1.
</event>
<event>
 7    1  0.3449603E-013  0.5930194E+02  0.7816164E-02  0.1266605E+00
        -11   -1    0    0    0    0  0.00000000000E+00  0.00000000000E+00  0.45593999997E+02  0.45594000000E+02  0.51100000000E-03 0.  1.
         11   -1    0    0    0    0 -0.00000000000E+00 -0.00000000000E+00 -0.45593999997E+02  0.45594000000E+02  0.51100000000E-03 0. -1.
    9900012    2    1    2    0    0 -0.75745582801E+00 -0.23647228110E+02  0.21376517997E+02  0.59301942572E+02  0.49999997345E+02 0.  0.
         12    1    1    2    0    0  0.75745582801E+00  0.23647228110E+02 -0.21376517997E+02  0.31886057428E+02  0.00000000000E+00 0. -1.
         11    1    3    3    0    0 -0.36391926711E+01 -0.95429617298E+01  0.11946483833E+01  0.10282948356E+02  0.51100000000E-03 0. -1.
        -11    1    3    3    0    0  0.80402591074E+01 -0.11620638167E+02  0.32497909715E+02  0.35437256300E+02  0.51100000000E-03 0.  1.
         12    1    3    3    0    0 -0.51585222643E+01 -0.24836282129E+01 -0.12316040101E+02  0.13581737916E+02  0.00000000000E+00 0. -1.
</event>
<event>
 7    1  0.3449603E-013  0.5930195E+02  0.7816164E-02  0.1266605E+00
        -11   -1    0    0    0    0  0.00000000000E+00  0.00000000000E+00  0.45593999997E+02  0.45594000000E+02  0.51100000000E-03 0.  1.
         11   -1    0    0    0    0 -0.00000000000E+00 -0.00000000000E+00 -0.45593999997E+02  0.45594000000E+02  0.51100000000E-03 0. -1.
    9900012    2    1    2    0    0 -0.13524280130E+02  0.20203951940E+02  0.20630415465E+02  0.59301954944E+02  0.50000019909E+02 0.  0.
         12    1    1    2    0    0  0.13524280130E+02 -0.20203951940E+02 -0.20630415465E+02  0.31886045056E+02  0.00000000000E+00 0. -1.
         11    1    3    3    0    0 -0.13807472838E+02  0.23433581161E+02  0.94623320962E+01  0.28797825633E+02  0.51100000000E-03 0.  1.
        -11    1    3    3    0    0  0.13796324341E+02  0.57544272704E+00  0.84982368832E+01  0.16213874615E+02  0.51100000000E-03 0. -1.
         12    1    3    3    0    0 -0.13513131632E+02 -0.38050719474E+01  0.26698464860E+01  0.14290254696E+02  0.00000000000E+00 0. -1.
</event>
<event>
 7    1  0.3449603E-013  0.5930194E+02  0.7816164E-02  0.1266605E+00
        -11   -1    0    0    0    0  0.00000000000E+00  0.00000000000E+00  0.45593999997E+02  0.45594000000E+02  0.51100000000E-03 0. -1.
         11   -1    0    0    0    0 -0.00000000000E+00 -0.00000000000E+00 -0.45593999997E+02  0.45594000000E+02  0.51100000000E-03 0.  1.
    9900012    2    1    2    0    0 -0.22961564897E+02 -0.21037067073E+02 -0.68504902228E+01  0.59301939255E+02  0.49999991295E+02 0.  0.
         12    1    1    2    0    0  0.22961564897E+02  0.21037067073E+02  0.68504902228E+01  0.31886060745E+02  0.00000000000E+00 0. -1.
         11    1    3    3    0    0  0.19491546293E+01  0.12339939804E+01  0.15464672121E+02  0.15635793200E+02  0.51100000000E-03 0. -1.
        -11    1    3    3    0    0 -0.14026523850E+02 -0.16909631729E+01 -0.10168345883E+02  0.17406837335E+02  0.51100000000E-03 0.  1.
        -12    1    3    3    0    0 -0.10884195677E+02 -0.20580097880E+02 -0.12146816461E+02  0.26259308720E+02  0.00000000000E+00 0.  1.
</event>
<event>
 7    1  0.3449603E-013  0.5930195E+02  0.7816164E-02  0.1266605E+00
        -11   -1    0    0    0    0  0.00000000000E+00  0.00000000000E+00  0.45593999997E+02  0.45594000000E+02  0.51100000000E-03 0. -1.
         11   -1    0    0    0    0 -0.00000000000E+00 -0.00000000000E+00 -0.45593999997E+02  0.45594000000E+02  0.51100000000E-03 0.  1.
    9900012    2    1    2    0    0  0.12355518230E+02  0.12523698462E+02 -0.26593572465E+02  0.59301953673E+02  0.50000017590E+02 0.  0.
         12    1    1    2    0    0 -0.12355518230E+02 -0.12523698462E+02  0.26593572465E+02  0.31886046327E+02  0.00000000000E+00 0. -1.
         11    1    3    3    0    0  0.36829327605E+01 -0.17046950155E+00 -0.65758099805E+01  0.75388547360E+01  0.51100000000E-03 0.  1.
        -11    1    3    3    0    0  0.26713670291E+02  0.23362910047E+01 -0.13064042491E+02  0.29828637959E+02  0.51100000000E-03 0. -1.
         12    1    3    3    0    0 -0.18041084821E+02  0.10357876959E+02 -0.69537199943E+01  0.21934460977E+02  0.00000000000E+00 0. -1.
</event>
<event>
 7    1  0.3449603E-013  0.5930195E+02  0.7816164E-02  0.1266605E+00
        -11   -1    0    0    0    0  0.00000000000E+00  0.00000000000E+00  0.45593999997E+02  0.45594000000E+02  0.51100000000E-03 0.  1.
         11   -1    0    0    0    0 -0.00000000000E+00 -0.00000000000E+00 -0.45593999997E+02  0.45594000000E+02  0.51100000000E-03 0. -1.
    9900012    2    1    2    0    0  0.95642117728E+01  0.17853283477E+02  0.24627349792E+02  0.59301949202E+02  0.50000009436E+02 0.  0.
         12    1    1    2    0    0 -0.95642117728E+01 -0.17853283477E+02 -0.24627349792E+02  0.31886050798E+02  0.00000000000E+00 0. -1.
         11    1    3    3    0    0 -0.37325430368E+01  0.15996992986E+02  0.21287025146E+02  0.26888159140E+02  0.51100000000E-03 0. -1.
        -11    1    3    3    0    0  0.21419794535E+02  0.51537041626E+01  0.66968273185E+01  0.23026414417E+02  0.51100000000E-03 0.  1.
         12    1    3    3    0    0 -0.81230397255E+01 -0.32974136713E+01 -0.33565026723E+01  0.93873756445E+01  0.00000000000E+00 0. -1.
</event>
<event>
 7    1  0.3449603E-013  0.5930195E+02  0.7816164E-02  0.1266605E+00
        -11   -1    0    0    0    0  0.00000000000E+00  0.00000000000E+00  0.45593999997E+02  0.45594000000E+02  0.51100000000E-03 0. -1.
         11   -1    0    0    0    0 -0.00000000000E+00 -0.00000000000E+00 -0.45593999997E+02  0.45594000000E+02  0.51100000000E-03 0.  1.
    9900012    2    1    2    0    0  0.28256073717E+02 -0.96237779676E+00 -0.14744086892E+02  0.59301953346E+02  0.50000016995E+02 0.  0.
         12    1    1    2    0    0 -0.28256073717E+02  0.96237779676E+00  0.14744086892E+02  0.31886046654E+02  0.00000000000E+00 0. -1.
         11    1    3    3    0    0 -0.16691407671E+01 -0.59432002949E+01 -0.39727558179E+01  0.73410114899E+01  0.51100000000E-03 0. -1.
        -11    1    3    3    0    0 -0.32504103826E+01 -0.75500227647E+01 -0.14121606921E+02  0.16339761127E+02  0.51100000000E-03 0.  1.
        -12    1    3    3    0    0  0.33175624867E+02  0.12530845263E+02  0.33502758469E+01  0.35621180729E+02  0.00000000000E+00 0.  1.
</event>
<event>
 7    1  0.3449603E-013  0.5930195E+02  0.7816164E-02  0.1266605E+00
        -11   -1    0    0    0    0  0.00000000000E+00  0.00000000000E+00  0.45593999997E+02  0.45594000000E+02  0.51100000000E-03 0.  1.
         11   -1    0    0    0    0 -0.00000000000E+00 -0.00000000000E+00 -0.45593999997E+02  0.45594000000E+02  0.51100000000E-03 0. -1.
    9900012    2    1    2    0    0 -0.30718083259E+02 -0.29297328438E+01  0.80334601265E+01  0.59301945757E+02  0.50000003153E+02 0.  0.
         12    1    1    2    0    0  0.30718083259E+02  0.29297328438E+01 -0.80334601265E+01  0.31886054243E+02  0.00000000000E+00 0. -1.
         11    1    3    3    0    0 -0.13096692335E+02  0.14458430201E+02 -0.10583360800E+02  0.22194077590E+02  0.51100000000E-03 0. -1.
        -11    1    3    3    0    0 -0.82440592109E+01  0.34444215792E+00  0.14420456307E+02  0.16614232244E+02  0.51100000000E-03 0.  1.
        -12    1    3    3    0    0 -0.93773317128E+01 -0.17732605203E+02  0.41963646190E+01  0.20493635923E+02  0.00000000000E+00 0.  1.
</event>
<event>
 7    1  0.3449603E-013  0.5930195E+02  0.7816164E-02  0.1266605E+00
        -11   -1    0    0    0    0  0.00000000000E+00  0.00000000000E+00  0.45593999997E+02  0.45594000000E+02  0.51100000000E-03 0.  1.
         11   -1    0    0    0    0 -0.00000000000E+00 -0.00000000000E+00 -0.45593999997E+02  0.45594000000E+02  0.51100000000E-03 0. -1.
    9900012    2    1    2    0    0 -0.22714201346E+01  0.64262784431E+01  0.31149054670E+02  0.59301952724E+02  0.50000015859E+02 0.  0.
         12    1    1    2    0    0  0.22714201346E+01 -0.64262784431E+01 -0.31149054670E+02  0.31886047276E+02  0.00000000000E+00 0. -1.
         11    1    3    3    0    0 -0.58988666858E+01  0.22212096358E+01  0.82658559855E+00  0.63571726763E+01  0.51100000000E-03 0. -1.
        -11    1    3    3    0    0 -0.16557048718E+02  0.11272090483E+02  0.67972038728E+01  0.21151781647E+02  0.51100000000E-03 0.  1.
        -12    1    3    3    0    0  0.20184495269E+02 -0.70670216752E+01  0.23525265199E+02  0.31792998401E+02  0.00000000000E+00 0.  1.
</event>
<event>
 7    1  0.3449603E-013  0.5930197E+02  0.7816164E-02  0.1266605E+00
        -11   -1    0    0    0    0  0.00000000000E+00  0.00000000000E+00  0.45593999997E+02  0.45594000000E+02  0.51100000000E-03 0.  1.
         11   -1    0    0    0    0 -0.00000000000E+00 -0.00000000000E+00 -0.45593999997E+02  0.45594000000E+02  0.51100000000E-03 0. -1.
    9900012    2    1    2    0    0 -0.16461016292E+02  0.22607769435E+02  0.15318052063E+02  0.59301968337E+02  0.50000044335E+02 0.  0.
         12    1    1    2    0    0  0.16461016292E+02 -0.22607769435E+02 -0.15318052063E+02  0.31886031663E+02  0.00000000000E+00 0. -1.
         11    1    3    3    0    0 -0.20230600902E+01  0.20789669787E+02 -0.23242248374E+01  0.21016782897E+02  0.51100000000E-03 0. -1.
        -11    1    3    3    0    0  0.89361250809E+01  0.36866207776E+01  0.92516664492E+01  0.13380539472E+02  0.51100000000E-03 0.  1.
        -12    1    3    3    0    0 -0.23374081283E+02 -0.18685211299E+01  0.83906104513E+01  0.24904645968E+02  0.00000000000E+00 0.  1.
</event>
<event>
 7    1  0.3449603E-013  0.5930193E+02  0.7816164E-02  0.1266605E+00
        -11   -1    0    0    0    0  0.00000000000E+00  0.00000000000E+00  0.45593999997E+02  0.45594000000E+02  0.51100000000E-03 0.  1.
         11   -1    0    0    0    0 -0.00000000000E+00 -0.00000000000E+00 -0.45593999997E+02  0.45594000000E+02  0.51100000000E-03 0. -1.
    9900012    2    1    2    0    0 -0.10887738755E+02  0.27450947016E+02  0.12025967495E+02  0.59301933427E+02  0.49999980668E+02 0.  0.
         12    1    1    2    0    0  0.10887738755E+02 -0.27450947016E+02 -0.12025967495E+02  0.31886066573E+02  0.00000000000E+00 0. -1.
         11    1    3    3    0    0 -0.47230162192E+01 -0.30944335978E+01 -0.46623959442E+01  0.73225909144E+01  0.51100000000E-03 0. -1.
        -11    1    3    3    0    0 -0.93472697343E+01 -0.69180037874E+01  0.38574179171E+01  0.12251934588E+02  0.51100000000E-03 0.  1.
        -12    1    3    3    0    0  0.31825471990E+01  0.37463384401E+02  0.12830945522E+02  0.39727407925E+02  0.00000000000E+00 0.  1.
</event>
<event>
 7    1  0.3449603E-013  0.5930194E+02  0.7816164E-02  0.1266605E+00
        -11   -1    0    0    0    0  0.00000000000E+00  0.00000000000E+00  0.45593999997E+02  0.45594000000E+02  0.51100000000E-03 0.  1.
         11   -1    0    0    0    0 -0.00000000000E+00 -0.00000000000E+00 -0.45593999997E+02  0.45594000000E+02  0.51100000000E-03 0. -1.
    9900012    2    1    2    0    0  0.54077077956E+01  0.16085933033E+02  0.26994822395E+02  0.59301937507E+02  0.49999988108E+02 0.  0.
         12    1    1    2    0    0 -0.54077077956E+01 -0.16085933033E+02 -0.26994822395E+02  0.31886062493E+02  0.00000000000E+00 0. -1.
         11    1    3    3    0    0 -0.15471835060E+02  0.15843110790E+01  0.52884863129E+01  0.16427288561E+02  0.51100000000E-03 0. -1.
        -11    1    3    3    0    0  0.24866063535E+01  0.26983324464E+01  0.20672619722E+02  0.20995747560E+02  0.51100000000E-03 0.  1.
        -12    1    3    3    0    0  0.18392936502E+02  0.11803289508E+02  0.10337163604E+01  0.21878901387E+02  0.00000000000E+00 0.  1.
</event>
<event>
 7    1  0.3449603E-013  0.5930191E+02  0.7816164E-02  0.1266605E+00
        -11   -1    0    0    0    0  0.00000000000E+00  0.00000000000E+00  0.45593999997E+02  0.45594000000E+02  0.51100000000E-03 0. -1.
         11   -1    0    0    0    0 -0.00000000000E+00 -0.00000000000E+00 -0.45593999997E+02  0.45594000000E+02  0.51100000000E-03 0.  1.
    9900012    2    1    2    0    0  0.24756151779E+02 -0.66066661288E+01 -0.18979140266E+02  0.59301908150E+02  0.49999934567E+02 0.  0.
         12    1    1    2    0    0 -0.24756151779E+02  0.66066661288E+01  0.18979140266E+02  0.31886091850E+02  0.00000000000E+00 0. -1.
         11    1    3    3    0    0 -0.63491196449E+01  0.31274691424E+01  0.72419769225E+01  0.10126135171E+02  0.51100000000E-03 0. -1.
        -11    1    3    3    0    0 -0.45252523498E+01 -0.36337481894E+00 -0.13937752021E+01  0.47489535336E+01  0.51100000000E-03 0.  1.
        -12    1    3    3    0    0  0.35630523774E+02 -0.93707604523E+01 -0.24827341986E+02  0.44426819445E+02  0.00000000000E+00 0.  1.
</event>
<event>
 7    1  0.3449603E-013  0.5930173E+02  0.7816164E-02  0.1266605E+00
        -11   -1    0    0    0    0  0.00000000000E+00  0.00000000000E+00  0.45593999997E+02  0.45594000000E+02  0.51100000000E-03 0.  1.
         11   -1    0    0    0    0 -0.00000000000E+00 -0.00000000000E+00 -0.45593999997E+02  0.45594000000E+02  0.51100000000E-03 0. -1.
    9900012    2    1    2    0    0  0.20092508924E+02  0.52575445059E+01  0.24194696120E+02  0.59301733216E+02  0.49999615529E+02 0.  0.
         12    1    1    2    0    0 -0.20092508924E+02 -0.52575445059E+01 -0.24194696120E+02  0.31886266784E+02  0.00000000000E+00 0. -1.
         11    1    3    3    0    0 -0.54708741666E+00 -0.71851658318E+01  0.67718703309E+01  0.98885863859E+01  0.51100000000E-03 0. -1.
        -11    1    3    3    0    0  0.24755492928E+02 -0.53972242479E+01  0.18025357058E+02  0.31094661230E+02  0.51100000000E-03 0.  1.
         12    1    3    3    0    0 -0.41158965874E+01  0.17839934586E+02 -0.60253126977E+00  0.18318485600E+02  0.00000000000E+00 0. -1.
</event>
<event>
 7    1  0.3615126E-013  0.5930194E+02  0.7816164E-02  0.1266605E+00
        -11   -1    0    0    0    0  0.00000000000E+00  0.00000000000E+00  0.45593999997E+02  0.45594000000E+02  0.51100000000E-03 0. -1.
         11   -1    0    0    0    0 -0.00000000000E+00 -0.00000000000E+00 -0.45593999997E+02  0.45594000000E+02  0.51100000000E-03 0.  1.
    9900012    2    1    2    0    0 -0.11112414854E+02  0.19027594046E+02 -0.23047464097E+02  0.59301941912E+02  0.49999996142E+02 0.  0.
         12    1    1    2    0    0  0.11112414854E+02 -0.19027594046E+02  0.23047464097E+02  0.31886058088E+02  0.00000000000E+00 0. -1.
         11    1    3    3    0    0 -0.13252576031E+00  0.17298653858E+02 -0.14375756146E+02  0.22492740016E+02  0.51100000000E-03 0. -1.
        -11    1    3    3    0    0 -0.26872171166E+01  0.17618570568E+02 -0.36031216929E+01  0.18182894458E+02  0.51100000000E-03 0.  1.
         12    1    3    3    0    0 -0.82926719769E+01 -0.15889630380E+02 -0.50685862581E+01  0.18626307438E+02  0.00000000000E+00 0. -1.
</event>
<event>
 7    1  0.3449603E-013  0.5930193E+02  0.7816164E-02  0.1266605E+00
        -11   -1    0    0    0    0  0.00000000000E+00  0.00000000000E+00  0.45593999997E+02  0.45594000000E+02  0.51100000000E-03 0.  1.
         11   -1    0    0    0    0 -0.00000000000E+00 -0.00000000000E+00 -0.45593999997E+02  0.45594000000E+02  0.51100000000E-03 0. -1.
    9900012    2    1    2    0    0  0.49309351573E+01  0.79113007298E+01  0.30492927949E+02  0.59301930068E+02  0.49999974542E+02 0.  0.
         12    1    1    2    0    0 -0.49309351573E+01 -0.79113007298E+01 -0.30492927949E+02  0.31886069932E+02  0.00000000000E+00 0. -1.
         11    1    3    3    0    0 -0.19029829202E+01  0.22125477213E+01 -0.46149631290E+01  0.54602743848E+01  0.51100000000E-03 0. -1.
        -11    1    3    3    0    0  0.15275459348E+02  0.16418390880E+02  0.85806515569E+01  0.24011055761E+02  0.51100000000E-03 0.  1.
         12    1    3    3    0    0 -0.84415412705E+01 -0.10719637871E+02  0.26527239521E+02  0.29830599922E+02  0.00000000000E+00 0. -1.
</event>
<event>
 7    1  0.3449603E-013  0.5930194E+02  0.7816164E-02  0.1266605E+00
        -11   -1    0    0    0    0  0.00000000000E+00  0.00000000000E+00  0.45593999997E+02  0.45594000000E+02  0.51100000000E-03 0.  1.
         11   -1    0    0    0    0 -0.00000000000E+00 -0.00000000000E+00 -0.45593999997E+02  0.45594000000E+02  0.51100000000E-03 0. -1.
    9900012    2    1    2    0    0  0.24924555735E+02  0.84916732207E+00  0.19868729512E+02  0.59301937588E+02  0.49999988256E+02 0.  0.
         12    1    1    2    0    0 -0.24924555735E+02 -0.84916732207E+00 -0.19868729512E+02  0.31886062412E+02  0.00000000000E+00 0. -1.
         11    1    3    3    0    0  0.73176853020E+01  0.52607977234E+00 -0.48950924382E+01  0.88197056836E+01  0.51100000000E-03 0. -1.
        -11    1    3    3    0    0  0.16489951572E+02  0.16854021518E+02  0.24368769152E+02  0.33908899340E+02  0.51100000000E-03 0.  1.
         12    1    3    3    0    0  0.11169188608E+01 -0.16530933968E+02  0.39505279752E+00  0.16573332565E+02  0.00000000000E+00 0. -1.
</event>
<event>
 7    1  0.3449603E-013  0.5930196E+02  0.7816164E-02  0.1266605E+00
        -11   -1    0    0    0    0  0.00000000000E+00  0.00000000000E+00  0.45593999997E+02  0.45594000000E+02  0.51100000000E-03 0. -1.
         11   -1    0    0    0    0 -0.00000000000E+00 -0.00000000000E+00 -0.45593999997E+02  0.45594000000E+02  0.51100000000E-03 0.  1.
    9900012    2    1    2    0    0 -0.29898510907E+02 -0.58259718967E+01 -0.94263968396E+01  0.59301955084E+02  0.50000020164E+02 0.  0.
         12    1    1    2    0    0  0.29898510907E+02  0.58259718967E+01  0.94263968396E+01  0.31886044916E+02  0.00000000000E+00 0. -1.
         11    1    3    3    0    0  0.10520156186E+02  0.77166159653E+01 -0.40736627259E+01  0.13668012891E+02  0.51100000000E-03 0. -1.
        -11    1    3    3    0    0  0.57748596049E+00 -0.65222000100E+00  0.18637581163E+01  0.20572981168E+01  0.51100000000E-03 0.  1.
        -12    1    3    3    0    0 -0.40996153054E+02 -0.12890367861E+02 -0.72164922300E+01  0.43576644076E+02  0.00000000000E+00 0.  1.
</event>
<event>
 7    1  0.3449603E-013  0.5930198E+02  0.7816164E-02  0.1266605E+00
        -11   -1    0    0    0    0  0.00000000000E+00  0.00000000000E+00  0.45593999997E+02  0.45594000000E+02  0.51100000000E-03 0.  1.
         11   -1    0    0    0    0 -0.00000000000E+00 -0.00000000000E+00 -0.45593999997E+02  0.45594000000E+02  0.51100000000E-03 0. -1.
    9900012    2    1    2    0    0 -0.11007397884E+02 -0.94760826332E+01  0.28385896819E+02  0.59301982869E+02  0.50000070838E+02 0.  0.
         12    1    1    2    0    0  0.11007397884E+02  0.94760826332E+01 -0.28385896819E+02  0.31886017131E+02  0.00000000000E+00 0. -1.
         11    1    3    3    0    0 -0.13844561012E+02 -0.15959803263E+02  0.25086124906E-01  0.21127891977E+02  0.51100000000E-03 0. -1.
        -11    1    3    3    0    0  0.96014334814E+01  0.88432113968E+01  0.54080304701E+01  0.14129285422E+02  0.51100000000E-03 0.  1.
        -12    1    3    3    0    0 -0.67642703528E+01 -0.23594907669E+01  0.22952780224E+02  0.24044805470E+02  0.00000000000E+00 0.  1.
</event>
<event>
 7    1  0.3449603E-013  0.5930195E+02  0.7816164E-02  0.1266605E+00
        -11   -1    0    0    0    0  0.00000000000E+00  0.00000000000E+00  0.45593999997E+02  0.45594000000E+02  0.51100000000E-03 0.  1.
         11   -1    0    0    0    0 -0.00000000000E+00 -0.00000000000E+00 -0.45593999997E+02  0.45594000000E+02  0.51100000000E-03 0. -1.
    9900012    2    1    2    0    0  0.10462320645E+02 -0.93579940560E+01  0.28630193176E+02  0.59301950271E+02  0.50000011385E+02 0.  0.
         12    1    1    2    0    0 -0.10462320645E+02  0.93579940560E+01 -0.28630193176E+02  0.31886049729E+02  0.00000000000E+00 0. -1.
         11    1    3    3    0    0 -0.12760974524E+02 -0.58111174353E+01  0.77280263126E+01  0.16010432461E+02  0.51100000000E-03 0. -1.
        -11    1    3    3    0    0  0.63017229510E+01  0.79117623820E+00 -0.75738067437E+01  0.98843422059E+01  0.51100000000E-03 0.  1.
        -12    1    3    3    0    0  0.16921572218E+02 -0.43380528589E+01  0.28475973607E+02  0.33407175604E+02  0.00000000000E+00 0.  1.
</event>
<event>
 7    1  0.3449603E-013  0.5930191E+02  0.7816164E-02  0.1266605E+00
        -11   -1    0    0    0    0  0.00000000000E+00  0.00000000000E+00  0.45593999997E+02  0.45594000000E+02  0.51100000000E-03 0.  1.
         11   -1    0    0    0    0 -0.00000000000E+00 -0.00000000000E+00 -0.45593999997E+02  0.45594000000E+02  0.51100000000E-03 0. -1.
    9900012    2    1    2    0    0 -0.38292495021E+01 -0.17889344199E+02  0.26115722965E+02  0.59301909402E+02  0.49999936851E+02 0.  0.
         12    1    1    2    0    0  0.38292495021E+01  0.17889344199E+02 -0.26115722965E+02  0.31886090598E+02  0.00000000000E+00 0. -1.
         11    1    3    3    0    0  0.63269121880E+01 -0.18054200817E+02 -0.54192705963E+01  0.19883472509E+02  0.51100000000E-03 0. -1.
        -11    1    3    3    0    0  0.45678587899E+01  0.55143249806E+01  0.54812907872E+01  0.90176306684E+01  0.51100000000E-03 0.  1.
         12    1    3    3    0    0 -0.14724020480E+02 -0.53494683626E+01  0.26053702774E+02  0.30400806225E+02  0.00000000000E+00 0. -1.
</event>
<event>
 7    1  0.3792887E-013  0.5930196E+02  0.7816164E-02  0.1266605E+00
        -11   -1    0    0    0    0  0.00000000000E+00  0.00000000000E+00  0.45593999997E+02  0.45594000000E+02  0.51100000000E-03 0. -1.
         11   -1    0    0    0    0 -0.00000000000E+00 -0.00000000000E+00 -0.45593999997E+02  0.45594000000E+02  0.51100000000E-03 0.  1.
    9900012    2    1    2    0    0 -0.29338307980E+02 -0.12488699064E+02 -0.12424943053E+00  0.59301962972E+02  0.50000034549E+02 0.  0.
         12    1    1    2    0    0  0.29338307980E+02  0.12488699064E+02  0.12424943053E+00  0.31886037028E+02  0.00000000000E+00 0. -1.
         11    1    3    3    0    0 -0.12826723453E+02 -0.18980168675E+02 -0.74093118094E+01  0.24076327362E+02  0.51100000000E-03 0. -1.
        -11    1    3    3    0    0 -0.18127143956E+02  0.20731756098E+01 -0.74876281999E+01  0.19721966977E+02  0.51100000000E-03 0.  1.
         12    1    3    3    0    0  0.16155594288E+01  0.44182940010E+01  0.14772690579E+02  0.15503668633E+02  0.00000000000E+00 0. -1.
</event>
<event>
 7    1  0.3449603E-013  0.5930193E+02  0.7816164E-02  0.1266605E+00
        -11   -1    0    0    0    0  0.00000000000E+00  0.00000000000E+00  0.45593999997E+02  0.45594000000E+02  0.51100000000E-03 0. -1.
         11   -1    0    0    0    0 -0.00000000000E+00 -0.00000000000E+00 -0.45593999997E+02  0.45594000000E+02  0.51100000000E-03 0.  1.
    9900012    2    1    2    0    0 -0.16794769289E+02 -0.20341085680E+02 -0.17913604084E+02  0.59301933240E+02  0.49999980327E+02 0.  0.
         12    1    1    2    0    0  0.16794769289E+02  0.20341085680E+02  0.17913604084E+02  0.31886066760E+02  0.00000000000E+00 0. -1.
         11    1    3    3    0    0 -0.19414846537E+02  0.18201202999E+01  0.29627783398E+01  0.19723771437E+02  0.51100000000E-03 0. -1.
        -11    1    3    3    0    0 -0.39953788363E+01 -0.26164298132E+01  0.47104482513E+01  0.67079862852E+01  0.51100000000E-03 0.  1.
        -12    1    3    3    0    0  0.66154560835E+01 -0.19544776166E+02 -0.25586830676E+02  0.32870175518E+02  0.00000000000E+00 0.  1.
</event>
<event>
 7    1  0.3449603E-013  0.5930194E+02  0.7816164E-02  0.1266605E+00
        -11   -1    0    0    0    0  0.00000000000E+00  0.00000000000E+00  0.45593999997E+02  0.45594000000E+02  0.51100000000E-03 0.  1.
         11   -1    0    0    0    0 -0.00000000000E+00 -0.00000000000E+00 -0.45593999997E+02  0.45594000000E+02  0.51100000000E-03 0. -1.
    9900012    2    1    2    0    0  0.18573523158E+02 -0.10144547138E+02  0.23850228577E+02  0.59301937177E+02  0.49999987507E+02 0.  0.
         12    1    1    2    0    0 -0.18573523158E+02  0.10144547138E+02 -0.23850228577E+02  0.31886062823E+02  0.00000000000E+00 0. -1.
         11    1    3    3    0    0 -0.78061455760E+01 -0.90284932869E+01  0.11114469986E+02  0.16308925259E+02  0.51100000000E-03 0. -1.
        -11    1    3    3    0    0  0.22123890342E+02 -0.13413491348E+02  0.14816472866E+02  0.29814696753E+02  0.51100000000E-03 0.  1.
        -12    1    3    3    0    0  0.42557783917E+01  0.12297437497E+02 -0.20807142740E+01  0.13178315165E+02  0.00000000000E+00 0.  1.
</event>
<event>
 7    1  0.3449603E-013  0.5930193E+02  0.7816164E-02  0.1266605E+00
        -11   -1    0    0    0    0  0.00000000000E+00  0.00000000000E+00  0.45593999997E+02  0.45594000000E+02  0.51100000000E-03 0. -1.
         11   -1    0    0    0    0 -0.00000000000E+00 -0.00000000000E+00 -0.45593999997E+02  0.45594000000E+02  0.51100000000E-03 0.  1.
    9900012    2    1    2    0    0 -0.28743360096E+02  0.72284033840E+01 -0.11759726501E+02  0.59301925729E+02  0.49999966627E+02 0.  0.
         12    1    1    2    0    0  0.28743360096E+02 -0.72284033840E+01  0.11759726501E+02  0.31886074271E+02  0.00000000000E+00 0. -1.
         11    1    3    3    0    0  0.24577700904E+01  0.29369619997E+01  0.16162113587E+01  0.41567438004E+01  0.51100000000E-03 0. -1.
        -11    1    3    3    0    0 -0.27816592155E+02  0.20487841302E+02 -0.11398831379E+01  0.34566078374E+02  0.51100000000E-03 0.  1.
        -12    1    3    3    0    0 -0.33845380315E+01 -0.16196399917E+02 -0.12236054721E+02  0.20579103555E+02  0.00000000000E+00 0.  1.
</event>
<event>
 7    1  0.3449603E-013  0.5930192E+02  0.7816164E-02  0.1266605E+00
        -11   -1    0    0    0    0  0.00000000000E+00  0.00000000000E+00  0.45593999997E+02  0.45594000000E+02  0.51100000000E-03 0.  1.
         11   -1    0    0    0    0 -0.00000000000E+00 -0.00000000000E+00 -0.45593999997E+02  0.45594000000E+02  0.51100000000E-03 0. -1.
    9900012    2    1    2    0    0  0.30500759114E+02  0.18374264339E+01  0.91131672455E+01  0.59301917461E+02  0.49999951548E+02 0.  0.
         12    1    1    2    0    0 -0.30500759114E+02 -0.18374264339E+01 -0.91131672455E+01  0.31886082539E+02  0.00000000000E+00 0. -1.
         11    1    3    3    0    0  0.29479802197E+02 -0.11465953514E+02 -0.98353441679E+01  0.33124927513E+02  0.51100000000E-03 0. -1.
        -11    1    3    3    0    0 -0.19860814899E+01  0.45264372762E+01 -0.14888465561E+00  0.49452321484E+01  0.51100000000E-03 0.  1.
        -12    1    3    3    0    0  0.30070384072E+01  0.87769426716E+01  0.19097396069E+02  0.21231757800E+02  0.00000000000E+00 0.  1.
</event>
<event>
 7    1  0.3449603E-013  0.5930195E+02  0.7816164E-02  0.1266605E+00
        -11   -1    0    0    0    0  0.00000000000E+00  0.00000000000E+00  0.45593999997E+02  0.45594000000E+02  0.51100000000E-03 0. -1.
         11   -1    0    0    0    0 -0.00000000000E+00 -0.00000000000E+00 -0.45593999997E+02  0.45594000000E+02  0.51100000000E-03 0.  1.
    9900012    2    1    2    0    0  0.27604962715E+00 -0.25469867647E+02 -0.19181502184E+02  0.59301946820E+02  0.50000005092E+02 0.  0.
         12    1    1    2    0    0 -0.27604962715E+00  0.25469867647E+02  0.19181502184E+02  0.31886053180E+02  0.00000000000E+00 0. -1.
         11    1    3    3    0    0 -0.11861517485E+02 -0.13668479991E+02 -0.13348329605E+01  0.18146755126E+02  0.51100000000E-03 0. -1.
        -11    1    3    3    0    0 -0.10148975890E+02 -0.10267122241E+02 -0.96251193138E+01  0.17351035496E+02  0.51100000000E-03 0.  1.
         12    1    3    3    0    0  0.22286543002E+02 -0.15342654155E+01 -0.82215499101E+01  0.23804156197E+02  0.00000000000E+00 0. -1.
</event>
<event>
 7    1  0.3449603E-013  0.5930178E+02  0.7816164E-02  0.1266605E+00
        -11   -1    0    0    0    0  0.00000000000E+00  0.00000000000E+00  0.45593999997E+02  0.45594000000E+02  0.51100000000E-03 0.  1.
         11   -1    0    0    0    0 -0.00000000000E+00 -0.00000000000E+00 -0.45593999997E+02  0.45594000000E+02  0.51100000000E-03 0. -1.
    9900012    2    1    2    0    0 -0.31777149493E+02  0.83609529655E+00 -0.24989524963E+01  0.59301779641E+02  0.49999700197E+02 0.  0.
         12    1    1    2    0    0  0.31777149493E+02 -0.83609529655E+00  0.24989524963E+01  0.31886220359E+02  0.00000000000E+00 0. -1.
         11    1    3    3    0    0 -0.37067762469E+02  0.66822145308E+01 -0.96349985474E+01  0.38878068403E+02  0.51100000000E-03 0.  1.
        -11    1    3    3    0    0 -0.47866190139E+01  0.22534006598E+01 -0.65186380429E+00  0.53305218129E+01  0.51100000000E-03 0. -1.
        -12    1    3    3    0    0  0.10077231990E+02 -0.80995198941E+01  0.77879098554E+01  0.15093189425E+02  0.00000000000E+00 0.  1.
</event>
<event>
 7    1  0.3449603E-013  0.5930194E+02  0.7816164E-02  0.1266605E+00
        -11   -1    0    0    0    0  0.00000000000E+00  0.00000000000E+00  0.45593999997E+02  0.45594000000E+02  0.51100000000E-03 0.  1.
         11   -1    0    0    0    0 -0.00000000000E+00 -0.00000000000E+00 -0.45593999997E+02  0.45594000000E+02  0.51100000000E-03 0. -1.
    9900012    2    1    2    0    0 -0.23985407453E+02  0.25757490654E+01  0.20851534664E+02  0.59301941107E+02  0.49999994673E+02 0.  0.
         12    1    1    2    0    0  0.23985407453E+02 -0.25757490654E+01 -0.20851534664E+02  0.31886058893E+02  0.00000000000E+00 0. -1.
         11    1    3    3    0    0 -0.52039656885E+01  0.30096420525E+01 -0.85017789946E+01  0.10412466111E+02  0.51100000000E-03 0. -1.
        -11    1    3    3    0    0 -0.11023090167E+02  0.13778556219E+02  0.29117267518E+01  0.17883939198E+02  0.51100000000E-03 0.  1.
        -12    1    3    3    0    0 -0.77583515974E+01 -0.14212449206E+02  0.26441586907E+02  0.31005535798E+02  0.00000000000E+00 0.  1.
</event>
<event>
 7    1  0.3449603E-013  0.5930196E+02  0.7816164E-02  0.1266605E+00
        -11   -1    0    0    0    0  0.00000000000E+00  0.00000000000E+00  0.45593999997E+02  0.45594000000E+02  0.51100000000E-03 0. -1.
         11   -1    0    0    0    0 -0.00000000000E+00 -0.00000000000E+00 -0.45593999997E+02  0.45594000000E+02  0.51100000000E-03 0.  1.
    9900012    2    1    2    0    0  0.10944374976E+02 -0.29473610104E+02  0.53147561777E+01  0.59301958079E+02  0.50000025626E+02 0.  0.
         12    1    1    2    0    0 -0.10944374976E+02  0.29473610104E+02 -0.53147561777E+01  0.31886041921E+02  0.00000000000E+00 0. -1.
         11    1    3    3    0    0  0.55981037232E+01  0.65852945722E+01 -0.27203090951E+01  0.90611782751E+01  0.51100000000E-03 0. -1.
        -11    1    3    3    0    0  0.18106727799E+02 -0.10445977972E+02  0.47546436238E+01  0.21437786351E+02  0.51100000000E-03 0.  1.
        -12    1    3    3    0    0 -0.12760456546E+02 -0.25612926704E+02  0.32804216491E+01  0.28802993452E+02  0.00000000000E+00 0.  1.
</event>
<event>
 7    1  0.3449603E-013  0.5930196E+02  0.7816164E-02  0.1266605E+00
        -11   -1    0    0    0    0  0.00000000000E+00  0.00000000000E+00  0.45593999997E+02  0.45594000000E+02  0.51100000000E-03 0. -1.
         11   -1    0    0    0    0 -0.00000000000E+00 -0.00000000000E+00 -0.45593999997E+02  0.45594000000E+02  0.51100000000E-03 0.  1.
    9900012    2    1    2    0    0  0.92636162743E+01 -0.10956169013E+02 -0.28475732418E+02  0.59301959752E+02  0.50000028678E+02 0.  0.
         12    1    1    2    0    0 -0.92636162743E+01  0.10956169013E+02  0.28475732418E+02  0.31886040248E+02  0.00000000000E+00 0. -1.
         11    1    3    3    0    0 -0.18726295749E+01 -0.69477951078E+01 -0.23356334685E+01  0.75653012065E+01  0.51100000000E-03 0. -1.
        -11    1    3    3    0    0 -0.14631145436E+01  0.10123668305E+02  0.78063843306E+01  0.12867361839E+02  0.51100000000E-03 0.  1.
        -12    1    3    3    0    0  0.12599360393E+02 -0.14132042211E+02 -0.33946483280E+02  0.38869296707E+02  0.00000000000E+00 0.  1.
</event>
<event>
 7    1  0.3449603E-013  0.5930194E+02  0.7816164E-02  0.1266605E+00
        -11   -1    0    0    0    0  0.00000000000E+00  0.00000000000E+00  0.45593999997E+02  0.45594000000E+02  0.51100000000E-03 0.  1.
         11   -1    0    0    0    0 -0.00000000000E+00 -0.00000000000E+00 -0.45593999997E+02  0.45594000000E+02  0.51100000000E-03 0. -1.
    9900012    2    1    2    0    0 -0.12938000112E+02  0.21742096331E+02  0.19406448666E+02  0.59301939572E+02  0.49999991874E+02 0.  0.
         12    1    1    2    0    0  0.12938000112E+02 -0.21742096331E+02 -0.19406448666E+02  0.31886060428E+02  0.00000000000E+00 0. -1.
         11    1    3    3    0    0 -0.84603363112E+01 -0.15675357336E+01  0.78491719704E+01  0.11646628682E+02  0.51100000000E-03 0.  1.
        -11    1    3    3    0    0  0.10818323937E+02  0.23214640664E+02  0.17741362044E+02  0.31156244982E+02  0.51100000000E-03 0. -1.
         12    1    3    3    0    0 -0.15295987738E+02  0.94991400041E-01 -0.61840853482E+01  0.16499065908E+02  0.00000000000E+00 0. -1.
</event>
<event>
 7    1  0.3449603E-013  0.5930193E+02  0.7816164E-02  0.1266605E+00
        -11   -1    0    0    0    0  0.00000000000E+00  0.00000000000E+00  0.45593999997E+02  0.45594000000E+02  0.51100000000E-03 0. -1.
         11   -1    0    0    0    0 -0.00000000000E+00 -0.00000000000E+00 -0.45593999997E+02  0.45594000000E+02  0.51100000000E-03 0.  1.
    9900012    2    1    2    0    0 -0.12553347697E+02  0.19568092353E+02 -0.21822578689E+02  0.59301925965E+02  0.49999967057E+02 0.  0.
         12    1    1    2    0    0  0.12553347697E+02 -0.19568092353E+02  0.21822578689E+02  0.31886074035E+02  0.00000000000E+00 0. -1.
         11    1    3    3    0    0  0.13190661446E+02  0.71585023931E+01 -0.50902849597E+01  0.15847671978E+02  0.51100000000E-03 0. -1.
        -11    1    3    3    0    0  0.57083478193E+01  0.20457176035E+01  0.57035049603E+00  0.60906071363E+01  0.51100000000E-03 0.  1.
        -12    1    3    3    0    0 -0.31452356963E+02  0.10363872356E+02 -0.17302644225E+02  0.37363646850E+02  0.00000000000E+00 0.  1.
</event>
<event>
 7    1  0.3449603E-013  0.5930194E+02  0.7816164E-02  0.1266605E+00
        -11   -1    0    0    0    0  0.00000000000E+00  0.00000000000E+00  0.45593999997E+02  0.45594000000E+02  0.51100000000E-03 0. -1.
         11   -1    0    0    0    0 -0.00000000000E+00 -0.00000000000E+00 -0.45593999997E+02  0.45594000000E+02  0.51100000000E-03 0.  1.
    9900012    2    1    2    0    0  0.26633765361E+01  0.29511955634E+02  0.11775908737E+02  0.59301935231E+02  0.49999983957E+02 0.  0.
         12    1    1    2    0    0 -0.26633765361E+01 -0.29511955634E+02 -0.11775908737E+02  0.31886064769E+02  0.00000000000E+00 0. -1.
         11    1    3    3    0    0  0.99065966878E+01  0.47492740917E+01  0.11780052208E+02  0.16107945015E+02  0.51100000000E-03 0. -1.
        -11    1    3    3    0    0  0.11635844287E+02  0.14442784951E+01 -0.50561367350E+01  0.12768842218E+02  0.51100000000E-03 0.  1.
        -12    1    3    3    0    0 -0.18879064439E+02  0.23318403047E+02  0.50519932636E+01  0.30425147998E+02  0.00000000000E+00 0.  1.
</event>
<event>
 7    1  0.3449603E-013  0.5930193E+02  0.7816164E-02  0.1266605E+00
        -11   -1    0    0    0    0  0.00000000000E+00  0.00000000000E+00  0.45593999997E+02  0.45594000000E+02  0.51100000000E-03 0.  1.
         11   -1    0    0    0    0 -0.00000000000E+00 -0.00000000000E+00 -0.45593999997E+02  0.45594000000E+02  0.51100000000E-03 0. -1.
    9900012    2    1    2    0    0  0.20183302715E+01  0.13107089911E+02  0.28997447728E+02  0.59301930349E+02  0.49999975054E+02 0.  0.
         12    1    1    2    0    0 -0.20183302715E+01 -0.13107089911E+02 -0.28997447728E+02  0.31886069651E+02  0.00000000000E+00 0. -1.
         11    1    3    3    0    0 -0.12026615405E+01 -0.49895707342E+01  0.15536971314E+02  0.16362753092E+02  0.51100000000E-03 0. -1.
        -11    1    3    3    0    0 -0.78820191749E+01  0.21408531082E+01  0.20655419331E+02  0.22211614672E+02  0.51100000000E-03 0.  1.
         12    1    3    3    0    0  0.11103010987E+02  0.15955807537E+02 -0.71949429171E+01  0.20727562585E+02  0.00000000000E+00 0. -1.
</event>
<event>
 7    1  0.3449603E-013  0.5930193E+02  0.7816164E-02  0.1266605E+00
        -11   -1    0    0    0    0  0.00000000000E+00  0.00000000000E+00  0.45593999997E+02  0.45594000000E+02  0.51100000000E-03 0.  1.
         11   -1    0    0    0    0 -0.00000000000E+00 -0.00000000000E+00 -0.45593999997E+02  0.45594000000E+02  0.51100000000E-03 0. -1.
    9900012    2    1    2    0    0  0.18385321911E+02 -0.40765739888E+01  0.25730973081E+02  0.59301929484E+02  0.49999973476E+02 0.  0.
         12    1    1    2    0    0 -0.18385321911E+02  0.40765739888E+01 -0.25730973081E+02  0.31886070516E+02  0.00000000000E+00 0. -1.
         11    1    3    3    0    0  0.20319870874E+02 -0.29091766871E+01  0.28544510624E+02  0.35158918476E+02  0.51100000000E-03 0. -1.
        -11    1    3    3    0    0  0.67314126507E+01  0.10930557213E+01  0.77306326429E+01  0.10308703527E+02  0.51100000000E-03 0.  1.
         12    1    3    3    0    0 -0.86659616142E+01 -0.22604530230E+01 -0.10544170186E+02  0.13834307481E+02  0.00000000000E+00 0. -1.
</event>
<event>
 7    1  0.3449603E-013  0.5930195E+02  0.7816164E-02  0.1266605E+00
        -11   -1    0    0    0    0  0.00000000000E+00  0.00000000000E+00  0.45593999997E+02  0.45594000000E+02  0.51100000000E-03 0.  1.
         11   -1    0    0    0    0 -0.00000000000E+00 -0.00000000000E+00 -0.45593999997E+02  0.45594000000E+02  0.51100000000E-03 0. -1.
    9900012    2    1    2    0    0  0.26196114794E+00 -0.30161103511E+02  0.10342128993E+02  0.59301946297E+02  0.50000004138E+02 0.  0.
         12    1    1    2    0    0 -0.26196114794E+00  0.30161103511E+02 -0.10342128993E+02  0.31886053703E+02  0.00000000000E+00 0. -1.
         11    1    3    3    0    0 -0.85298961644E+01 -0.24499251283E+02  0.15020985858E+02  0.29976698591E+02  0.51100000000E-03 0. -1.
        -11    1    3    3    0    0 -0.55575744548E+01 -0.45252826613E+01  0.75701282550E+01  0.10424569969E+02  0.51100000000E-03 0.  1.
         12    1    3    3    0    0  0.14349431767E+02 -0.11365695668E+01 -0.12248985120E+02  0.18900677736E+02  0.00000000000E+00 0. -1.
</event>
<event>
 7    1  0.3449603E-013  0.5930196E+02  0.7816164E-02  0.1266605E+00
        -11   -1    0    0    0    0  0.00000000000E+00  0.00000000000E+00  0.45593999997E+02  0.45594000000E+02  0.51100000000E-03 0. -1.
         11   -1    0    0    0    0 -0.00000000000E+00 -0.00000000000E+00 -0.45593999997E+02  0.45594000000E+02  0.51100000000E-03 0.  1.
    9900012    2    1    2    0    0 -0.62078477318E+01  0.16322360135E+02 -0.26678882532E+02  0.59301959371E+02  0.50000027983E+02 0.  0.
         12    1    1    2    0    0  0.62078477318E+01 -0.16322360135E+02  0.26678882532E+02  0.31886040629E+02  0.00000000000E+00 0. -1.
         11    1    3    3    0    0 -0.12139726158E+02  0.41730475950E+01  0.71670653101E+01  0.14702180207E+02  0.51100000000E-03 0. -1.
        -11    1    3    3    0    0 -0.69189315018E+01 -0.32082095573E+01 -0.38747783787E+01  0.85544216307E+01  0.51100000000E-03 0.  1.
         12    1    3    3    0    0  0.12850809928E+02  0.15357522097E+02 -0.29971169463E+02  0.36045357534E+02  0.00000000000E+00 0. -1.
</event>
<event>
 7    1  0.3449603E-013  0.5930197E+02  0.7816164E-02  0.1266605E+00
        -11   -1    0    0    0    0  0.00000000000E+00  0.00000000000E+00  0.45593999997E+02  0.45594000000E+02  0.51100000000E-03 0. -1.
         11   -1    0    0    0    0 -0.00000000000E+00 -0.00000000000E+00 -0.45593999997E+02  0.45594000000E+02  0.51100000000E-03 0.  1.
    9900012    2    1    2    0    0 -0.28192662765E+02 -0.14728106106E+02 -0.22305930210E+01  0.59301970325E+02  0.50000047959E+02 0.  0.
         12    1    1    2    0    0  0.28192662765E+02  0.14728106106E+02  0.22305930210E+01  0.31886029675E+02  0.00000000000E+00 0. -1.
         11    1    3    3    0    0 -0.23736888813E+01  0.76993782398E+01  0.18653543822E+01  0.82700889607E+01  0.51100000000E-03 0. -1.
        -11    1    3    3    0    0  0.13433828377E+01  0.81485434266E+01 -0.58099678817E+01  0.10097483076E+02  0.51100000000E-03 0.  1.
         12    1    3    3    0    0 -0.27162356721E+02 -0.30576027772E+02  0.17140204784E+01  0.40934398288E+02  0.00000000000E+00 0. -1.
</event>
<event>
 7    1  0.3449603E-013  0.5930160E+02  0.7816164E-02  0.1266606E+00
        -11   -1    0    0    0    0  0.00000000000E+00  0.00000000000E+00  0.45593999997E+02  0.45594000000E+02  0.51100000000E-03 0.  1.
         11   -1    0    0    0    0 -0.00000000000E+00 -0.00000000000E+00 -0.45593999997E+02  0.45594000000E+02  0.51100000000E-03 0. -1.
    9900012    2    1    2    0    0 -0.95824245705E+01 -0.80521808569E+01  0.29327151724E+02  0.59301603129E+02  0.49999378278E+02 0.  0.
         12    1    1    2    0    0  0.95824245705E+01  0.80521808569E+01 -0.29327151724E+02  0.31886396871E+02  0.00000000000E+00 0. -1.
         11    1    3    3    0    0 -0.32684080157E+01 -0.68460465493E+01 -0.85575343389E+01  0.11436006232E+02  0.51100000000E-03 0. -1.
        -11    1    3    3    0    0  0.89542985549E+01 -0.37591993169E+01  0.37965760331E+01  0.10427129612E+02  0.51100000000E-03 0.  1.
         12    1    3    3    0    0 -0.15268315110E+02  0.25530650093E+01  0.34088110030E+02  0.37438467285E+02  0.00000000000E+00 0. -1.
</event>
<event>
 7    1  0.3449603E-013  0.5930193E+02  0.7816164E-02  0.1266605E+00
        -11   -1    0    0    0    0  0.00000000000E+00  0.00000000000E+00  0.45593999997E+02  0.45594000000E+02  0.51100000000E-03 0. -1.
         11   -1    0    0    0    0 -0.00000000000E+00 -0.00000000000E+00 -0.45593999997E+02  0.45594000000E+02  0.51100000000E-03 0.  1.
    9900012    2    1    2    0    0  0.24513495226E+02  0.19338706979E+02  0.64671768530E+01  0.59301930749E+02  0.49999975783E+02 0.  0.
         12    1    1    2    0    0 -0.24513495226E+02 -0.19338706979E+02 -0.64671768530E+01  0.31886069251E+02  0.00000000000E+00 0. -1.
         11    1    3    3    0    0  0.13950847856E+01  0.37283612856E+01  0.70650516998E+01  0.81093708274E+01  0.51100000000E-03 0. -1.
        -11    1    3    3    0    0 -0.18539007820E+01  0.24580971949E+02 -0.59211948577E+00  0.24657893986E+02  0.51100000000E-03 0.  1.
         12    1    3    3    0    0  0.24972311222E+02 -0.89706262555E+01 -0.57553609949E-02  0.26534665936E+02  0.00000000000E+00 0. -1.
</event>
<event>
 7    1  0.3449603E-013  0.5930194E+02  0.7816164E-02  0.1266605E+00
        -11   -1    0    0    0    0  0.00000000000E+00  0.00000000000E+00  0.45593999997E+02  0.45594000000E+02  0.51100000000E-03 0.  1.
         11   -1    0    0    0    0 -0.00000000000E+00 -0.00000000000E+00 -0.45593999997E+02  0.45594000000E+02  0.51100000000E-03 0. -1.
    9900012    2    1    2    0    0  0.24932549244E+02 -0.16787911201E+02  0.10642128461E+02  0.59301939214E+02  0.49999991220E+02 0.  0.
         12    1    1    2    0    0 -0.24932549244E+02  0.16787911201E+02 -0.10642128461E+02  0.31886060786E+02  0.00000000000E+00 0. -1.
         11    1    3    3    0    0  0.13698333659E+02  0.74051310743E+01 -0.75930269474E+01  0.17324386562E+02  0.51100000000E-03 0. -1.
        -11    1    3    3    0    0  0.83500711229E+00 -0.21648862173E+02  0.10000637522E+01  0.21688028910E+02  0.51100000000E-03 0.  1.
        -12    1    3    3    0    0  0.10399208472E+02 -0.25441801031E+01  0.17235091656E+02  0.20289523741E+02  0.00000000000E+00 0.  1.
</event>
<event>
 7    1  0.3449603E-013  0.5930194E+02  0.7816164E-02  0.1266605E+00
        -11   -1    0    0    0    0  0.00000000000E+00  0.00000000000E+00  0.45593999997E+02  0.45594000000E+02  0.51100000000E-03 0.  1.
         11   -1    0    0    0    0 -0.00000000000E+00 -0.00000000000E+00 -0.45593999997E+02  0.45594000000E+02  0.51100000000E-03 0. -1.
    9900012    2    1    2    0    0  0.11221440020E+02  0.11766085383E+02  0.27429172295E+02  0.59301937619E+02  0.49999988312E+02 0.  0.
         12    1    1    2    0    0 -0.11221440020E+02 -0.11766085383E+02 -0.27429172295E+02  0.31886062381E+02  0.00000000000E+00 0. -1.
         11    1    3    3    0    0  0.56836058091E+01  0.11745788277E+02  0.13647278032E+02  0.18881607855E+02  0.51100000000E-03 0. -1.
        -11    1    3    3    0    0  0.76723447919E+01  0.75088123737E+01  0.24744942173E+02  0.26973307200E+02  0.51100000000E-03 0.  1.
         12    1    3    3    0    0 -0.21345105812E+01 -0.74885152680E+01 -0.10963047911E+02  0.13447022564E+02  0.00000000000E+00 0. -1.
</event>
<event>
 7    1  0.3631301E-013  0.5930206E+02  0.7816164E-02  0.1266604E+00
        -11   -1    0    0    0    0  0.00000000000E+00  0.00000000000E+00  0.45593999997E+02  0.45594000000E+02  0.51100000000E-03 0. -1.
         11   -1    0    0    0    0 -0.00000000000E+00 -0.00000000000E+00 -0.45593999997E+02  0.45594000000E+02  0.51100000000E-03 0.  1.
    9900012    2    1    2    0    0  0.16011997740E+02 -0.15009916697E+02 -0.23130748829E+02  0.59302059332E+02  0.50000210288E+02 0.  0.
         12    1    1    2    0    0 -0.16011997740E+02  0.15009916697E+02  0.23130748829E+02  0.31885940668E+02  0.00000000000E+00 0. -1.
         11    1    3    3    0    0  0.25764676168E+01 -0.14349955182E+02 -0.11570034910E+02  0.18612498682E+02  0.51100000000E-03 0. -1.
        -11    1    3    3    0    0  0.46007695274E+01 -0.11010138780E+02 -0.20982423821E+02  0.24138192680E+02  0.51100000000E-03 0.  1.
         12    1    3    3    0    0  0.88347605954E+01  0.10350177266E+02  0.94217099018E+01  0.16551367970E+02  0.00000000000E+00 0. -1.
</event>
<event>
 7    1  0.3449603E-013  0.5930196E+02  0.7816164E-02  0.1266605E+00
        -11   -1    0    0    0    0  0.00000000000E+00  0.00000000000E+00  0.45593999997E+02  0.45594000000E+02  0.51100000000E-03 0. -1.
         11   -1    0    0    0    0 -0.00000000000E+00 -0.00000000000E+00 -0.45593999997E+02  0.45594000000E+02  0.51100000000E-03 0.  1.
    9900012    2    1    2    0    0 -0.15408602070E+02  0.18711827103E+02 -0.20716219779E+02  0.59301964605E+02  0.50000037529E+02 0.  0.
         12    1    1    2    0    0  0.15408602070E+02 -0.18711827103E+02  0.20716219779E+02  0.31886035395E+02  0.00000000000E+00 0. -1.
         11    1    3    3    0    0  0.33570429795E+01  0.54750553435E+01  0.49664042346E+01  0.81185675992E+01  0.51100000000E-03 0. -1.
        -11    1    3    3    0    0 -0.15802219602E+02 -0.11930185127E+01  0.54364795261E+01  0.16753768156E+02  0.51100000000E-03 0.  1.
        -12    1    3    3    0    0 -0.29634254475E+01  0.14429790272E+02 -0.31119103539E+02  0.34429628850E+02  0.00000000000E+00 0.  1.
</event>
<event>
 7    1  0.3449603E-013  0.5930194E+02  0.7816164E-02  0.1266605E+00
        -11   -1    0    0    0    0  0.00000000000E+00  0.00000000000E+00  0.45593999997E+02  0.45594000000E+02  0.51100000000E-03 0. -1.
         11   -1    0    0    0    0 -0.00000000000E+00 -0.00000000000E+00 -0.45593999997E+02  0.45594000000E+02  0.51100000000E-03 0.  1.
    9900012    2    1    2    0    0  0.14392448142E+02  0.21176153088E+02 -0.19003919624E+02  0.59301937461E+02  0.49999988025E+02 0.  0.
         12    1    1    2    0    0 -0.14392448142E+02 -0.21176153088E+02  0.19003919624E+02  0.31886062539E+02  0.00000000000E+00 0. -1.
         11    1    3    3    0    0 -0.84813415054E+01 -0.16496038021E+01 -0.69951267089E+01  0.11116930528E+02  0.51100000000E-03 0. -1.
        -11    1    3    3    0    0 -0.43920155888E+01 -0.41446524528E+01  0.33110401304E+01  0.68870118261E+01  0.51100000000E-03 0.  1.
        -12    1    3    3    0    0  0.27265805236E+02  0.26970409343E+02 -0.15319833046E+02  0.41297995107E+02  0.00000000000E+00 0.  1.
</event>
<event>
 7    1  0.3449603E-013  0.5930194E+02  0.7816164E-02  0.1266605E+00
        -11   -1    0    0    0    0  0.00000000000E+00  0.00000000000E+00  0.45593999997E+02  0.45594000000E+02  0.51100000000E-03 0. -1.
         11   -1    0    0    0    0 -0.00000000000E+00 -0.00000000000E+00 -0.45593999997E+02  0.45594000000E+02  0.51100000000E-03 0.  1.
    9900012    2    1    2    0    0 -0.30787577706E+02 -0.31939097356E+01 -0.76579826067E+01  0.59301941950E+02  0.49999996210E+02 0.  0.
         12    1    1    2    0    0  0.30787577706E+02  0.31939097356E+01  0.76579826067E+01  0.31886058050E+02  0.00000000000E+00 0. -1.
         11    1    3    3    0    0 -0.22282822898E+01  0.99900484621E+01 -0.80792375098E+01  0.13039953575E+02  0.51100000000E-03 0. -1.
        -11    1    3    3    0    0 -0.16179166303E+02  0.88816892004E+01  0.76025872525E+01  0.19961191310E+02  0.51100000000E-03 0.  1.
         12    1    3    3    0    0 -0.12380129113E+02 -0.22065647398E+02 -0.71813323494E+01  0.26300797065E+02  0.00000000000E+00 0. -1.
</event>
<event>
 7    1  0.3449603E-013  0.5930193E+02  0.7816164E-02  0.1266605E+00
        -11   -1    0    0    0    0  0.00000000000E+00  0.00000000000E+00  0.45593999997E+02  0.45594000000E+02  0.51100000000E-03 0.  1.
         11   -1    0    0    0    0 -0.00000000000E+00 -0.00000000000E+00 -0.45593999997E+02  0.45594000000E+02  0.51100000000E-03 0. -1.
    9900012    2    1    2    0    0 -0.88258829387E+01 -0.18415451103E+02  0.24488695868E+02  0.59301932912E+02  0.49999979728E+02 0.  0.
         12    1    1    2    0    0  0.88258829387E+01  0.18415451103E+02 -0.24488695868E+02  0.31886067088E+02  0.00000000000E+00 0. -1.
         11    1    3    3    0    0 -0.13494007627E+02 -0.40541138985E+01 -0.95550275749E+00  0.14122218916E+02  0.51100000000E-03 0. -1.
        -11    1    3    3    0    0 -0.76802743013E+01 -0.26557402192E+01 -0.55371517089E+01  0.98335964307E+01  0.51100000000E-03 0.  1.
        -12    1    3    3    0    0  0.12348398989E+02 -0.11705596985E+02  0.30981350335E+02  0.35346117566E+02  0.00000000000E+00 0.  1.
</event>
<event>
 7    1  0.3449603E-013  0.5930194E+02  0.7816164E-02  0.1266605E+00
        -11   -1    0    0    0    0  0.00000000000E+00  0.00000000000E+00  0.45593999997E+02  0.45594000000E+02  0.51100000000E-03 0. -1.
         11   -1    0    0    0    0 -0.00000000000E+00 -0.00000000000E+00 -0.45593999997E+02  0.45594000000E+02  0.51100000000E-03 0.  1.
    9900012    2    1    2    0    0 -0.25362597924E+02  0.45631203242E+01 -0.18778639422E+02  0.59301941306E+02  0.49999995036E+02 0.  0.
         12    1    1    2    0    0  0.25362597924E+02 -0.45631203242E+01  0.18778639422E+02  0.31886058694E+02  0.00000000000E+00 0. -1.
         11    1    3    3    0    0 -0.10424724023E+02  0.11525950649E+02  0.36138159255E+01  0.15955628321E+02  0.51100000000E-03 0. -1.
        -11    1    3    3    0    0 -0.15466731501E+02  0.83080934632E+01 -0.17217830668E+01  0.17641109305E+02  0.51100000000E-03 0.  1.
        -12    1    3    3    0    0  0.52885760085E+00 -0.15270923788E+02 -0.20670672280E+02  0.25705203680E+02  0.00000000000E+00 0.  1.
</event>
<event>
 7    1  0.3449603E-013  0.5930197E+02  0.7816164E-02  0.1266605E+00
        -11   -1    0    0    0    0  0.00000000000E+00  0.00000000000E+00  0.45593999997E+02  0.45594000000E+02  0.51100000000E-03 0.  1.
         11   -1    0    0    0    0 -0.00000000000E+00 -0.00000000000E+00 -0.45593999997E+02  0.45594000000E+02  0.51100000000E-03 0. -1.
    9900012    2    1    2    0    0 -0.86229744460E+01  0.40150547903E+01  0.30434229007E+02  0.59301974088E+02  0.50000054822E+02 0.  0.
         12    1    1    2    0    0  0.86229744460E+01 -0.40150547903E+01 -0.30434229007E+02  0.31886025912E+02  0.00000000000E+00 0. -1.
         11    1    3    3    0    0  0.33533700519E+01 -0.10767486359E+02  0.24760947316E+01  0.11546207108E+02  0.51100000000E-03 0. -1.
        -11    1    3    3    0    0 -0.97399514837E+01  0.63333184476E+01 -0.57286762206E+01  0.12953582862E+02  0.51100000000E-03 0.  1.
        -12    1    3    3    0    0 -0.22363930142E+01  0.84492227018E+01  0.33686810496E+02  0.34802184117E+02  0.00000000000E+00 0.  1.
</event>
<event>
 7    1  0.3449603E-013  0.5930196E+02  0.7816164E-02  0.1266605E+00
        -11   -1    0    0    0    0  0.00000000000E+00  0.00000000000E+00  0.45593999997E+02  0.45594000000E+02  0.51100000000E-03 0. -1.
         11   -1    0    0    0    0 -0.00000000000E+00 -0.00000000000E+00 -0.45593999997E+02  0.45594000000E+02  0.51100000000E-03 0.  1.
    9900012    2    1    2    0    0 -0.26531120240E+02  0.17651709363E+02 -0.11119338030E+01  0.59301959458E+02  0.50000028142E+02 0.  0.
         12    1    1    2    0    0  0.26531120240E+02 -0.17651709363E+02  0.11119338030E+01  0.31886040542E+02  0.00000000000E+00 0. -1.
         11    1    3    3    0    0 -0.90560600346E+00  0.11565790930E+02  0.10536385442E+02  0.15671728064E+02  0.51100000000E-03 0. -1.
        -11    1    3    3    0    0 -0.59126821305E+01  0.17805655375E+02 -0.80513788199E+01  0.20416313929E+02  0.51100000000E-03 0.  1.
        -12    1    3    3    0    0 -0.19712832106E+02 -0.11719736942E+02 -0.35969404251E+01  0.23213917465E+02  0.00000000000E+00 0.  1.
</event>
<event>
 7    1  0.3449603E-013  0.5930194E+02  0.7816164E-02  0.1266605E+00
        -11   -1    0    0    0    0  0.00000000000E+00  0.00000000000E+00  0.45593999997E+02  0.45594000000E+02  0.51100000000E-03 0.  1.
         11   -1    0    0    0    0 -0.00000000000E+00 -0.00000000000E+00 -0.45593999997E+02  0.45594000000E+02  0.51100000000E-03 0. -1.
    9900012    2    1    2    0    0 -0.41701957949E+00  0.31657215602E+02  0.37905003143E+01  0.59301935683E+02  0.49999984780E+02 0.  0.
         12    1    1    2    0    0  0.41701957949E+00 -0.31657215602E+02 -0.37905003143E+01  0.31886064317E+02  0.00000000000E+00 0. -1.
         11    1    3    3    0    0 -0.24580532438E+01 -0.37296193516E+01  0.39393100133E+01  0.59556905476E+01  0.51100000000E-03 0. -1.
        -11    1    3    3    0    0 -0.97140982416E+01  0.13786719698E+02  0.16543381242E+02  0.23624580586E+02  0.51100000000E-03 0.  1.
         12    1    3    3    0    0  0.11755131906E+02  0.21600115256E+02 -0.16692190941E+02  0.29721664549E+02  0.00000000000E+00 0. -1.
</event>
<event>
 7    1  0.3449603E-013  0.5930199E+02  0.7816164E-02  0.1266605E+00
        -11   -1    0    0    0    0  0.00000000000E+00  0.00000000000E+00  0.45593999997E+02  0.45594000000E+02  0.51100000000E-03 0.  1.
         11   -1    0    0    0    0 -0.00000000000E+00 -0.00000000000E+00 -0.45593999997E+02  0.45594000000E+02  0.51100000000E-03 0. -1.
    9900012    2    1    2    0    0 -0.25185586122E+02 -0.28724543249E+01  0.19343034862E+02  0.59301988336E+02  0.50000080808E+02 0.  0.
         12    1    1    2    0    0  0.25185586122E+02  0.28724543249E+01 -0.19343034862E+02  0.31886011664E+02  0.00000000000E+00 0. -1.
         11    1    3    3    0    0 -0.14364526744E+01 -0.20415909810E+02  0.37938954521E+01  0.20815052550E+02  0.51100000000E-03 0. -1.
        -11    1    3    3    0    0 -0.58951516812E+01 -0.30058782140E+01  0.77065193060E+01  0.10157684641E+02  0.51100000000E-03 0.  1.
        -12    1    3    3    0    0 -0.17853981766E+02  0.20549333700E+02  0.78426201038E+01  0.28329251146E+02  0.00000000000E+00 0.  1.
</event>
<event>
 7    1  0.3449603E-013  0.5930193E+02  0.7816164E-02  0.1266605E+00
        -11   -1    0    0    0    0  0.00000000000E+00  0.00000000000E+00  0.45593999997E+02  0.45594000000E+02  0.51100000000E-03 0. -1.
         11   -1    0    0    0    0 -0.00000000000E+00 -0.00000000000E+00 -0.45593999997E+02  0.45594000000E+02  0.51100000000E-03 0.  1.
    9900012    2    1    2    0    0 -0.42251854796E+01 -0.26282308639E+02 -0.17553052043E+02  0.59301928185E+02  0.49999971107E+02 0.  0.
         12    1    1    2    0    0  0.42251854796E+01  0.26282308639E+02  0.17553052043E+02  0.31886071815E+02  0.00000000000E+00 0. -1.
         11    1    3    3    0    0 -0.63036060749E+01 -0.17440909396E+02 -0.52284463040E+01  0.19268041445E+02  0.51100000000E-03 0. -1.
        -11    1    3    3    0    0 -0.15631278039E+02  0.13335491437E+01  0.87981057066E+00  0.15712710566E+02  0.51100000000E-03 0.  1.
        -12    1    3    3    0    0  0.17709698634E+02 -0.10174948387E+02 -0.13204416310E+02  0.24321176174E+02  0.00000000000E+00 0.  1.
</event>
<event>
 7    1  0.3449603E-013  0.5930193E+02  0.7816164E-02  0.1266605E+00
        -11   -1    0    0    0    0  0.00000000000E+00  0.00000000000E+00  0.45593999997E+02  0.45594000000E+02  0.51100000000E-03 0.  1.
         11   -1    0    0    0    0 -0.00000000000E+00 -0.00000000000E+00 -0.45593999997E+02  0.45594000000E+02  0.51100000000E-03 0. -1.
    9900012    2    1    2    0    0 -0.20012082878E+01 -0.13815752602E+01  0.31793203435E+02  0.59301931420E+02  0.49999977007E+02 0.  0.
         12    1    1    2    0    0  0.20012082878E+01  0.13815752602E+01 -0.31793203435E+02  0.31886068580E+02  0.00000000000E+00 0. -1.
         11    1    3    3    0    0 -0.70218509585E+01 -0.62534460346E+01  0.17416983516E+02  0.19793011223E+02  0.51100000000E-03 0. -1.
        -11    1    3    3    0    0 -0.42404681281E+01 -0.42743914994E+01  0.23078902171E+02  0.23851367221E+02  0.51100000000E-03 0.  1.
        -12    1    3    3    0    0  0.92611107988E+01  0.91462622737E+01 -0.87026822527E+01  0.15657552976E+02  0.00000000000E+00 0.  1.
</event>
<event>
 7    1  0.3449603E-013  0.5930194E+02  0.7816164E-02  0.1266605E+00
        -11   -1    0    0    0    0  0.00000000000E+00  0.00000000000E+00  0.45593999997E+02  0.45594000000E+02  0.51100000000E-03 0.  1.
         11   -1    0    0    0    0 -0.00000000000E+00 -0.00000000000E+00 -0.45593999997E+02  0.45594000000E+02  0.51100000000E-03 0. -1.
    9900012    2    1    2    0    0 -0.11061520473E+02 -0.27684572514E+02  0.11310514208E+02  0.59301944708E+02  0.50000001240E+02 0.  0.
         12    1    1    2    0    0  0.11061520473E+02  0.27684572514E+02 -0.11310514208E+02  0.31886055292E+02  0.00000000000E+00 0. -1.
         11    1    3    3    0    0 -0.17987847277E+00 -0.14128392187E+02  0.17365311106E+01  0.14235847802E+02  0.51100000000E-03 0. -1.
        -11    1    3    3    0    0 -0.23988102349E+02 -0.14206707236E+02  0.14026100688E+02  0.31208830250E+02  0.51100000000E-03 0.  1.
         12    1    3    3    0    0  0.13106460349E+02  0.65052690953E+00 -0.44521175915E+01  0.13857266656E+02  0.00000000000E+00 0. -1.
</event>
<event>
 7    1  0.3449603E-013  0.5930194E+02  0.7816164E-02  0.1266605E+00
        -11   -1    0    0    0    0  0.00000000000E+00  0.00000000000E+00  0.45593999997E+02  0.45594000000E+02  0.51100000000E-03 0. -1.
         11   -1    0    0    0    0 -0.00000000000E+00 -0.00000000000E+00 -0.45593999997E+02  0.45594000000E+02  0.51100000000E-03 0.  1.
    9900012    2    1    2    0    0  0.18019226653E+02 -0.23929242880E+02 -0.10927921075E+02  0.59301942655E+02  0.49999997497E+02 0.  0.
         12    1    1    2    0    0 -0.18019226653E+02  0.23929242880E+02  0.10927921075E+02  0.31886057345E+02  0.00000000000E+00 0. -1.
         11    1    3    3    0    0  0.54043092672E+01 -0.88459395926E+00 -0.61809918961E+01  0.82579492738E+01  0.51100000000E-03 0. -1.
        -11    1    3    3    0    0  0.15502657328E+02 -0.18070607711E+02 -0.22270032139E+02  0.32601128493E+02  0.51100000000E-03 0.  1.
        -12    1    3    3    0    0 -0.28877399427E+01 -0.49740412097E+01  0.17523102960E+02  0.18442864888E+02  0.00000000000E+00 0.  1.
</event>
<event>
 7    1  0.3449603E-013  0.5930196E+02  0.7816164E-02  0.1266605E+00
        -11   -1    0    0    0    0  0.00000000000E+00  0.00000000000E+00  0.45593999997E+02  0.45594000000E+02  0.51100000000E-03 0. -1.
         11   -1    0    0    0    0 -0.00000000000E+00 -0.00000000000E+00 -0.45593999997E+02  0.45594000000E+02  0.51100000000E-03 0.  1.
    9900012    2    1    2    0    0  0.12153266693E+02 -0.11894168575E+02 -0.26973073421E+02  0.59301955605E+02  0.50000021115E+02 0.  0.
         12    1    1    2    0    0 -0.12153266693E+02  0.11894168575E+02  0.26973073421E+02  0.31886044395E+02  0.00000000000E+00 0. -1.
         11    1    3    3    0    0  0.29679473983E+01 -0.12181487030E+02 -0.13076584322E+02  0.18116136338E+02  0.51100000000E-03 0. -1.
        -11    1    3    3    0    0 -0.11721576328E+02 -0.67978004160E+01  0.23821246767E+01  0.13757905376E+02  0.51100000000E-03 0.  1.
         12    1    3    3    0    0  0.20906895622E+02  0.70851188709E+01 -0.16278613775E+02  0.27427913891E+02  0.00000000000E+00 0. -1.
</event>
<event>
 7    1  0.3449603E-013  0.5930188E+02  0.7816164E-02  0.1266605E+00
        -11   -1    0    0    0    0  0.00000000000E+00  0.00000000000E+00  0.45593999997E+02  0.45594000000E+02  0.51100000000E-03 0.  1.
         11   -1    0    0    0    0 -0.00000000000E+00 -0.00000000000E+00 -0.45593999997E+02  0.45594000000E+02  0.51100000000E-03 0. -1.
    9900012    2    1    2    0    0 -0.15365429560E+02 -0.13594957010E+02  0.24409119866E+02  0.59301883675E+02  0.49999889931E+02 0.  0.
         12    1    1    2    0    0  0.15365429560E+02  0.13594957010E+02 -0.24409119866E+02  0.31886116325E+02  0.00000000000E+00 0. -1.
         11    1    3    3    0    0 -0.55119646288E+01  0.30768255841E+01 -0.11088250698E+02  0.12759228564E+02  0.51100000000E-03 0. -1.
        -11    1    3    3    0    0 -0.12396639191E+02 -0.10789747566E+02  0.79438981558E+01  0.18253789577E+02  0.51100000000E-03 0.  1.
         12    1    3    3    0    0  0.25431742603E+01 -0.58820350288E+01  0.27553472409E+02  0.28288865533E+02  0.00000000000E+00 0. -1.
</event>
<event>
 7    1  0.3449603E-013  0.5930197E+02  0.7816164E-02  0.1266605E+00
        -11   -1    0    0    0    0  0.00000000000E+00  0.00000000000E+00  0.45593999997E+02  0.45594000000E+02  0.51100000000E-03 0. -1.
         11   -1    0    0    0    0 -0.00000000000E+00 -0.00000000000E+00 -0.45593999997E+02  0.45594000000E+02  0.51100000000E-03 0.  1.
    9900012    2    1    2    0    0  0.17861993133E+02  0.18946969627E+02 -0.18403272405E+02  0.59301970270E+02  0.50000047860E+02 0.  0.
         12    1    1    2    0    0 -0.17861993133E+02 -0.18946969627E+02  0.18403272405E+02  0.31886029730E+02  0.00000000000E+00 0. -1.
         11    1    3    3    0    0  0.27728575694E+01  0.20993824291E+02  0.29086721434E+01  0.21374980032E+02  0.51100000000E-03 0. -1.
        -11    1    3    3    0    0 -0.22313141038E+01  0.53539307128E+01  0.35009510834E+01  0.67749535391E+01  0.51100000000E-03 0.  1.
        -12    1    3    3    0    0  0.17320449667E+02 -0.74007853769E+01 -0.24812895632E+02  0.31152036699E+02  0.00000000000E+00 0.  1.
</event>
<event>
 7    1  0.3449603E-013  0.5930192E+02  0.7816164E-02  0.1266605E+00
        -11   -1    0    0    0    0  0.00000000000E+00  0.00000000000E+00  0.45593999997E+02  0.45594000000E+02  0.51100000000E-03 0. -1.
         11   -1    0    0    0    0 -0.00000000000E+00 -0.00000000000E+00 -0.45593999997E+02  0.45594000000E+02  0.51100000000E-03 0.  1.
    9900012    2    1    2    0    0  0.18467543755E+02  0.24944513751E+02  0.73104711926E+01  0.59301922667E+02  0.49999961044E+02 0.  0.
         12    1    1    2    0    0 -0.18467543755E+02 -0.24944513751E+02 -0.73104711926E+01  0.31886077333E+02  0.00000000000E+00 0. -1.
         11    1    3    3    0    0  0.50952498266E+01  0.83996310162E+01  0.23402245489E+00  0.98270106733E+01  0.51100000000E-03 0. -1.
        -11    1    3    3    0    0  0.13843795761E+02  0.30461562239E+02  0.10623115458E+02  0.35105669591E+02  0.51100000000E-03 0.  1.
         12    1    3    3    0    0 -0.47150183321E+00 -0.13916679505E+02 -0.35466667198E+01  0.14369242403E+02  0.00000000000E+00 0. -1.
</event>
<event>
 7    1  0.3449603E-013  0.5930194E+02  0.7816164E-02  0.1266605E+00
        -11   -1    0    0    0    0  0.00000000000E+00  0.00000000000E+00  0.45593999997E+02  0.45594000000E+02  0.51100000000E-03 0.  1.
         11   -1    0    0    0    0 -0.00000000000E+00 -0.00000000000E+00 -0.45593999997E+02  0.45594000000E+02  0.51100000000E-03 0. -1.
    9900012    2    1    2    0    0 -0.23285722621E+02 -0.21592185255E+02 -0.28763247257E+01  0.59301943706E+02  0.49999999413E+02 0.  0.
         12    1    1    2    0    0  0.23285722621E+02  0.21592185255E+02  0.28763247257E+01  0.31886056294E+02  0.00000000000E+00 0. -1.
         11    1    3    3    0    0 -0.17144889626E+02 -0.25651865631E+02 -0.40825218678E+01  0.31122860340E+02  0.51100000000E-03 0. -1.
        -11    1    3    3    0    0 -0.13496964146E+02  0.34244765117E+01 -0.82474221526E+01  0.16183789821E+02  0.51100000000E-03 0.  1.
        -12    1    3    3    0    0  0.73561311517E+01  0.63520386445E+00  0.94536192946E+01  0.11995293545E+02  0.00000000000E+00 0.  1.
</event>
<event>
 7    1  0.3449603E-013  0.5930194E+02  0.7816164E-02  0.1266605E+00
        -11   -1    0    0    0    0  0.00000000000E+00  0.00000000000E+00  0.45593999997E+02  0.45594000000E+02  0.51100000000E-03 0.  1.
         11   -1    0    0    0    0 -0.00000000000E+00 -0.00000000000E+00 -0.45593999997E+02  0.45594000000E+02  0.51100000000E-03 0. -1.
    9900012    2    1    2    0    0  0.26448240709E+02  0.62647540869E+01  0.16672268954E+02  0.59301935137E+02  0.49999983785E+02 0.  0.
         12    1    1    2    0    0 -0.26448240709E+02 -0.62647540869E+01 -0.16672268954E+02  0.31886064863E+02  0.00000000000E+00 0. -1.
         11    1    3    3    0    0  0.15770585384E+02  0.11240354735E+02  0.27379907378E+01  0.19558975726E+02  0.51100000000E-03 0.  1.
        -11    1    3    3    0    0  0.14131847502E+02  0.12769615031E+02  0.85684105443E+01  0.20885158400E+02  0.51100000000E-03 0. -1.
         12    1    3    3    0    0 -0.34541921764E+01 -0.17745215679E+02  0.53658676722E+01  0.18857801011E+02  0.00000000000E+00 0. -1.
</event>
<event>
 7    1  0.3449603E-013  0.5930197E+02  0.7816164E-02  0.1266605E+00
        -11   -1    0    0    0    0  0.00000000000E+00  0.00000000000E+00  0.45593999997E+02  0.45594000000E+02  0.51100000000E-03 0.  1.
         11   -1    0    0    0    0 -0.00000000000E+00 -0.00000000000E+00 -0.45593999997E+02  0.45594000000E+02  0.51100000000E-03 0. -1.
    9900012    2    1    2    0    0 -0.13181972776E+02  0.27173135034E+01  0.28906237444E+02  0.59301972306E+02  0.50000051572E+02 0.  0.
         12    1    1    2    0    0  0.13181972776E+02 -0.27173135034E+01 -0.28906237444E+02  0.31886027694E+02  0.00000000000E+00 0. -1.
         11    1    3    3    0    0  0.34128043597E+01  0.19596013194E+02  0.25379555715E+02  0.32245508451E+02  0.51100000000E-03 0. -1.
        -11    1    3    3    0    0 -0.61135315241E+01 -0.17988192509E+01  0.57175470077E+01  0.85616214843E+01  0.51100000000E-03 0.  1.
        -12    1    3    3    0    0 -0.10481245612E+02 -0.15079880439E+02 -0.21908652789E+01  0.18494842371E+02  0.00000000000E+00 0.  1.
</event>
<event>
 7    1  0.3449603E-013  0.5930194E+02  0.7816164E-02  0.1266605E+00
        -11   -1    0    0    0    0  0.00000000000E+00  0.00000000000E+00  0.45593999997E+02  0.45594000000E+02  0.51100000000E-03 0.  1.
         11   -1    0    0    0    0 -0.00000000000E+00 -0.00000000000E+00 -0.45593999997E+02  0.45594000000E+02  0.51100000000E-03 0. -1.
    9900012    2    1    2    0    0  0.31779222094E+02  0.25823407518E+01 -0.36478311109E+00  0.59301944938E+02  0.50000001661E+02 0.  0.
         12    1    1    2    0    0 -0.31779222094E+02 -0.25823407518E+01  0.36478311109E+00  0.31886055062E+02  0.00000000000E+00 0. -1.
         11    1    3    3    0    0  0.26574980226E+02  0.78520649181E+01 -0.63422003823E+01  0.28427240518E+02  0.51100000000E-03 0. -1.
        -11    1    3    3    0    0 -0.82404764367E+00  0.11369455071E+02 -0.18055541315E+01  0.11541385927E+02  0.51100000000E-03 0.  1.
         12    1    3    3    0    0  0.60282895120E+01 -0.16639179237E+02  0.77829714028E+01  0.19333318494E+02  0.00000000000E+00 0. -1.
</event>
<event>
 7    1  0.3449603E-013  0.5930190E+02  0.7816164E-02  0.1266605E+00
        -11   -1    0    0    0    0  0.00000000000E+00  0.00000000000E+00  0.45593999997E+02  0.45594000000E+02  0.51100000000E-03 0.  1.
         11   -1    0    0    0    0 -0.00000000000E+00 -0.00000000000E+00 -0.45593999997E+02  0.45594000000E+02  0.51100000000E-03 0. -1.
    9900012    2    1    2    0    0  0.78262470644E+01  0.18860401030E+02  0.24489973727E+02  0.59301895137E+02  0.49999910836E+02 0.  0.
         12    1    1    2    0    0 -0.78262470644E+01 -0.18860401030E+02 -0.24489973727E+02  0.31886104863E+02  0.00000000000E+00 0. -1.
         11    1    3    3    0    0  0.14897785499E+02 -0.96078793957E+01  0.16489527327E+01  0.17803775011E+02  0.51100000000E-03 0. -1.
        -11    1    3    3    0    0 -0.10348080800E+02  0.82409365276E+01  0.13752142971E+02  0.19081856504E+02  0.51100000000E-03 0.  1.
        -12    1    3    3    0    0  0.32765423645E+01  0.20227343898E+02  0.90888780235E+01  0.22416263622E+02  0.00000000000E+00 0.  1.
</event>
<event>
 7    1  0.3449603E-013  0.5930170E+02  0.7816164E-02  0.1266606E+00
        -11   -1    0    0    0    0  0.00000000000E+00  0.00000000000E+00  0.45593999997E+02  0.45594000000E+02  0.51100000000E-03 0.  1.
         11   -1    0    0    0    0 -0.00000000000E+00 -0.00000000000E+00 -0.45593999997E+02  0.45594000000E+02  0.51100000000E-03 0. -1.
    9900012    2    1    2    0    0 -0.15333008681E+02  0.41756155488E+01  0.27644158248E+02  0.59301695641E+02  0.49999547000E+02 0.  0.
         12    1    1    2    0    0  0.15333008681E+02 -0.41756155488E+01 -0.27644158248E+02  0.31886304359E+02  0.00000000000E+00 0. -1.
         11    1    3    3    0    0  0.76896859990E+01 -0.70114240637E+01  0.11453613058E+02  0.15475031196E+02  0.51100000000E-03 0. -1.
        -11    1    3    3    0    0  0.60005452717E+01 -0.34923562734E+01 -0.10396299807E+01  0.70202511819E+01  0.51100000000E-03 0.  1.
        -12    1    3    3    0    0 -0.29023239952E+02  0.14679395886E+02  0.17230175171E+02  0.36806413263E+02  0.00000000000E+00 0.  1.
</event>
<event>
 7    1  0.3449603E-013  0.5930194E+02  0.7816164E-02  0.1266605E+00
        -11   -1    0    0    0    0  0.00000000000E+00  0.00000000000E+00  0.45593999997E+02  0.45594000000E+02  0.51100000000E-03 0. -1.
         11   -1    0    0    0    0 -0.00000000000E+00 -0.00000000000E+00 -0.45593999997E+02  0.45594000000E+02  0.51100000000E-03 0.  1.
    9900012    2    1    2    0    0  0.21623698781E+02  0.29403065178E+01 -0.23248468590E+02  0.59301936537E+02  0.49999986339E+02 0.  0.
         12    1    1    2    0    0 -0.21623698781E+02 -0.29403065178E+01  0.23248468590E+02  0.31886063463E+02  0.00000000000E+00 0. -1.
         11    1    3    3    0    0 -0.97534063970E+01  0.45712389262E+01  0.50440472978E+00  0.10783301260E+02  0.51100000000E-03 0. -1.
        -11    1    3    3    0    0 -0.33935818180E+01  0.21259433722E+01  0.25596132001E+01  0.47526469227E+01  0.51100000000E-03 0.  1.
        -12    1    3    3    0    0  0.34770686996E+02 -0.37568757805E+01 -0.26312486520E+02  0.43765988355E+02  0.00000000000E+00 0.  1.
</event>
<event>
 7    1  0.3449603E-013  0.5930194E+02  0.7816164E-02  0.1266605E+00
        -11   -1    0    0    0    0  0.00000000000E+00  0.00000000000E+00  0.45593999997E+02  0.45594000000E+02  0.51100000000E-03 0.  1.
         11   -1    0    0    0    0 -0.00000000000E+00 -0.00000000000E+00 -0.45593999997E+02  0.45594000000E+02  0.51100000000E-03 0. -1.
    9900012    2    1    2    0    0 -0.21755238336E+02  0.20878985855E+02  0.10368131640E+02  0.59301943501E+02  0.49999999039E+02 0.  0.
         12    1    1    2    0    0  0.21755238336E+02 -0.20878985855E+02 -0.10368131640E+02  0.31886056499E+02  0.00000000000E+00 0. -1.
         11    1    3    3    0    0 -0.24599239075E+01  0.10172436117E+02  0.63228433239E+01  0.12227347633E+02  0.51100000000E-03 0. -1.
        -11    1    3    3    0    0 -0.90070321829E+00  0.22253582079E+02  0.10206399701E+02  0.24499056651E+02  0.51100000000E-03 0.  1.
         12    1    3    3    0    0 -0.18394611210E+02 -0.11547032341E+02 -0.61611113848E+01  0.22575539217E+02  0.00000000000E+00 0. -1.
</event>
<event>
 7    1  0.3449603E-013  0.5930191E+02  0.7816164E-02  0.1266605E+00
        -11   -1    0    0    0    0  0.00000000000E+00  0.00000000000E+00  0.45593999997E+02  0.45594000000E+02  0.51100000000E-03 0. -1.
         11   -1    0    0    0    0 -0.00000000000E+00 -0.00000000000E+00 -0.45593999997E+02  0.45594000000E+02  0.51100000000E-03 0.  1.
    9900012    2    1    2    0    0  0.21545499830E+02  0.17731884634E+02  0.15430313860E+02  0.59301907712E+02  0.49999933769E+02 0.  0.
         12    1    1    2    0    0 -0.21545499830E+02 -0.17731884634E+02 -0.15430313860E+02  0.31886092288E+02  0.00000000000E+00 0. -1.
         11    1    3    3    0    0 -0.11169905840E+01  0.22974044548E+02  0.70616182463E+01  0.24060773956E+02  0.51100000000E-03 0. -1.
        -11    1    3    3    0    0 -0.32938100796E+01  0.52658422572E+01  0.19783010283E+01  0.65185853325E+01  0.51100000000E-03 0.  1.
        -12    1    3    3    0    0  0.25956300494E+02 -0.10508002172E+02  0.63903945853E+01  0.28722548423E+02  0.00000000000E+00 0.  1.
</event>
<event>
 7    1  0.3449603E-013  0.5930197E+02  0.7816164E-02  0.1266605E+00
        -11   -1    0    0    0    0  0.00000000000E+00  0.00000000000E+00  0.45593999997E+02  0.45594000000E+02  0.51100000000E-03 0.  1.
         11   -1    0    0    0    0 -0.00000000000E+00 -0.00000000000E+00 -0.45593999997E+02  0.45594000000E+02  0.51100000000E-03 0. -1.
    9900012    2    1    2    0    0 -0.11882548825E+02 -0.99535927643E+01  0.27864847891E+02  0.59301972911E+02  0.50000052677E+02 0.  0.
         12    1    1    2    0    0  0.11882548825E+02  0.99535927643E+01 -0.27864847891E+02  0.31886027089E+02  0.00000000000E+00 0. -1.
         11    1    3    3    0    0 -0.11133100041E+01 -0.50863562604E+01 -0.98715198166E+01  0.11160527896E+02  0.51100000000E-03 0. -1.
        -11    1    3    3    0    0  0.30386911192E+01  0.68397592652E+01  0.14977056296E+01  0.76327631260E+01  0.51100000000E-03 0.  1.
         12    1    3    3    0    0 -0.13807929940E+02 -0.11706995769E+02  0.36238662078E+02  0.40508681889E+02  0.00000000000E+00 0. -1.
</event>
<event>
 7    1  0.3449603E-013  0.5930194E+02  0.7816164E-02  0.1266605E+00
        -11   -1    0    0    0    0  0.00000000000E+00  0.00000000000E+00  0.45593999997E+02  0.45594000000E+02  0.51100000000E-03 0.  1.
         11   -1    0    0    0    0 -0.00000000000E+00 -0.00000000000E+00 -0.45593999997E+02  0.45594000000E+02  0.51100000000E-03 0. -1.
    9900012    2    1    2    0    0  0.31463967231E+02 -0.34551512281E+01  0.38473074063E+01  0.59301935987E+02  0.49999985336E+02 0.  0.
         12    1    1    2    0    0 -0.31463967231E+02  0.34551512281E+01 -0.38473074063E+01  0.31886064013E+02  0.00000000000E+00 0. -1.
         11    1    3    3    0    0 -0.32445311696E+01  0.69810258173E+01  0.13135501904E+02  0.15225081757E+02  0.51100000000E-03 0.  1.
        -11    1    3    3    0    0  0.50411936250E+01 -0.90074342586E+01  0.45852820778E+01  0.11294791591E+02  0.51100000000E-03 0. -1.
        -12    1    3    3    0    0  0.29667304776E+02 -0.14287427868E+01 -0.13873476576E+02  0.32782062640E+02  0.00000000000E+00 0.  1.
</event>
<event>
 7    1  0.3449603E-013  0.5930195E+02  0.7816164E-02  0.1266605E+00
        -11   -1    0    0    0    0  0.00000000000E+00  0.00000000000E+00  0.45593999997E+02  0.45594000000E+02  0.51100000000E-03 0.  1.
         11   -1    0    0    0    0 -0.00000000000E+00 -0.00000000000E+00 -0.45593999997E+02  0.45594000000E+02  0.51100000000E-03 0. -1.
    9900012    2    1    2    0    0 -0.24550339100E+02 -0.15825797899E+02  0.12788484715E+02  0.59301947087E+02  0.50000005580E+02 0.  0.
         12    1    1    2    0    0  0.24550339100E+02  0.15825797899E+02 -0.12788484715E+02  0.31886052913E+02  0.00000000000E+00 0. -1.
         11    1    3    3    0    0  0.33136166745E+01  0.56118196241E+01 -0.21535141212E+01  0.68636869313E+01  0.51100000000E-03 0. -1.
        -11    1    3    3    0    0 -0.39521376256E+01 -0.16546568252E+02 -0.81277520031E+01  0.18853876673E+02  0.51100000000E-03 0.  1.
        -12    1    3    3    0    0 -0.23911818148E+02 -0.48910492710E+01  0.23069750839E+02  0.33584383483E+02  0.00000000000E+00 0.  1.
</event>
<event>
 7    1  0.3449603E-013  0.5930195E+02  0.7816164E-02  0.1266605E+00
        -11   -1    0    0    0    0  0.00000000000E+00  0.00000000000E+00  0.45593999997E+02  0.45594000000E+02  0.51100000000E-03 0.  1.
         11   -1    0    0    0    0 -0.00000000000E+00 -0.00000000000E+00 -0.45593999997E+02  0.45594000000E+02  0.51100000000E-03 0. -1.
    9900012    2    1    2    0    0  0.25375036534E+02  0.72439780561E+01  0.17898402229E+02  0.59301945062E+02  0.50000001886E+02 0.  0.
         12    1    1    2    0    0 -0.25375036534E+02 -0.72439780561E+01 -0.17898402229E+02  0.31886054938E+02  0.00000000000E+00 0. -1.
         11    1    3    3    0    0 -0.45557439504E+01  0.81113046336E+00 -0.23299913324E+01  0.51808875147E+01  0.51100000000E-03 0. -1.
        -11    1    3    3    0    0  0.29074290698E+02  0.20676746974E+02  0.11955919684E+02  0.37626935310E+02  0.51100000000E-03 0.  1.
         12    1    3    3    0    0  0.85648978578E+00 -0.14243899381E+02  0.82724738774E+01  0.16494122238E+02  0.00000000000E+00 0. -1.
</event>
<event>
 7    1  0.3449603E-013  0.5930193E+02  0.7816164E-02  0.1266605E+00
        -11   -1    0    0    0    0  0.00000000000E+00  0.00000000000E+00  0.45593999997E+02  0.45594000000E+02  0.51100000000E-03 0.  1.
         11   -1    0    0    0    0 -0.00000000000E+00 -0.00000000000E+00 -0.45593999997E+02  0.45594000000E+02  0.51100000000E-03 0. -1.
    9900012    2    1    2    0    0 -0.31600711864E+02 -0.42221881366E+01  0.53842349484E+00  0.59301925252E+02  0.49999965758E+02 0.  0.
         12    1    1    2    0    0  0.31600711864E+02  0.42221881366E+01 -0.53842349484E+00  0.31886074748E+02  0.00000000000E+00 0. -1.
         11    1    3    3    0    0 -0.64562565991E+01  0.66441115092E+01 -0.27717191019E+00  0.92684568052E+01  0.51100000000E-03 0. -1.
        -11    1    3    3    0    0  0.59305815356E+01  0.95760157427E+01 -0.51094940552E+01  0.12368460075E+02  0.51100000000E-03 0.  1.
         12    1    3    3    0    0 -0.31075036800E+02 -0.20442315388E+02  0.59250894603E+01  0.37665008372E+02  0.00000000000E+00 0. -1.
</event>
<event>
 7    1  0.3449603E-013  0.5930197E+02  0.7816164E-02  0.1266605E+00
        -11   -1    0    0    0    0  0.00000000000E+00  0.00000000000E+00  0.45593999997E+02  0.45594000000E+02  0.51100000000E-03 0.  1.
         11   -1    0    0    0    0 -0.00000000000E+00 -0.00000000000E+00 -0.45593999997E+02  0.45594000000E+02  0.51100000000E-03 0. -1.
    9900012    2    1    2    0    0 -0.13325558601E+02 -0.37257119926E+01  0.28727470718E+02  0.59301968329E+02  0.50000044320E+02 0.  0.
         12    1    1    2    0    0  0.13325558601E+02  0.37257119926E+01 -0.28727470718E+02  0.31886031671E+02  0.00000000000E+00 0. -1.
         11    1    3    3    0    0  0.11427022660E+01  0.11510804290E+02  0.11579165223E+02  0.16367084389E+02  0.51100000000E-03 0. -1.
        -11    1    3    3    0    0  0.16501460270E-01  0.10067884153E+02  0.59950417434E+01  0.11717640094E+02  0.51100000000E-03 0.  1.
        -12    1    3    3    0    0 -0.14484762327E+02 -0.25304400435E+02  0.11153263751E+02  0.31217243846E+02  0.00000000000E+00 0.  1.
</event>
<event>
 7    1  0.3449603E-013  0.5930195E+02  0.7816164E-02  0.1266605E+00
        -11   -1    0    0    0    0  0.00000000000E+00  0.00000000000E+00  0.45593999997E+02  0.45594000000E+02  0.51100000000E-03 0.  1.
         11   -1    0    0    0    0 -0.00000000000E+00 -0.00000000000E+00 -0.45593999997E+02  0.45594000000E+02  0.51100000000E-03 0. -1.
    9900012    2    1    2    0    0  0.14120187148E+02 -0.94549055907E+01  0.26980463172E+02  0.59301947911E+02  0.50000007083E+02 0.  0.
         12    1    1    2    0    0 -0.14120187148E+02  0.94549055907E+01 -0.26980463172E+02  0.31886052089E+02  0.00000000000E+00 0. -1.
         11    1    3    3    0    0  0.25535486999E+01 -0.78807474686E+01 -0.10685247380E+01  0.83527562519E+01  0.51100000000E-03 0. -1.
        -11    1    3    3    0    0  0.24634908099E+02 -0.73499454973E+01  0.92163931568E+01  0.27310113492E+02  0.51100000000E-03 0.  1.
         12    1    3    3    0    0 -0.13068269651E+02  0.57757873752E+01  0.18832594753E+02  0.23639078168E+02  0.00000000000E+00 0. -1.
</event>
<event>
 7    1  0.3449603E-013  0.5930193E+02  0.7816164E-02  0.1266605E+00
        -11   -1    0    0    0    0  0.00000000000E+00  0.00000000000E+00  0.45593999997E+02  0.45594000000E+02  0.51100000000E-03 0.  1.
         11   -1    0    0    0    0 -0.00000000000E+00 -0.00000000000E+00 -0.45593999997E+02  0.45594000000E+02  0.51100000000E-03 0. -1.
    9900012    2    1    2    0    0  0.26027446770E+02 -0.30581446782E+01  0.18164283381E+02  0.59301930550E+02  0.49999975420E+02 0.  0.
         12    1    1    2    0    0 -0.26027446770E+02  0.30581446782E+01 -0.18164283381E+02  0.31886069450E+02  0.00000000000E+00 0. -1.
         11    1    3    3    0    0  0.13596479101E+01  0.18886982269E+01  0.10706357053E+02  0.10956363678E+02  0.51100000000E-03 0.  1.
        -11    1    3    3    0    0  0.27920537585E+02  0.86829258595E+01 -0.49180333651E+01  0.29650239003E+02  0.51100000000E-03 0. -1.
         12    1    3    3    0    0 -0.32527387254E+01 -0.13629768765E+02  0.12375959693E+02  0.18695327869E+02  0.00000000000E+00 0. -1.
</event>
<event>
 7    1  0.3802694E-013  0.5930196E+02  0.7816164E-02  0.1266605E+00
        -11   -1    0    0    0    0  0.00000000000E+00  0.00000000000E+00  0.45593999997E+02  0.45594000000E+02  0.51100000000E-03 0. -1.
         11   -1    0    0    0    0 -0.00000000000E+00 -0.00000000000E+00 -0.45593999997E+02  0.45594000000E+02  0.51100000000E-03 0.  1.
    9900012    2    1    2    0    0 -0.29720704973E+02 -0.81306957930E+00 -0.11521206717E+02  0.59301959317E+02  0.50000027883E+02 0.  0.
         12    1    1    2    0    0  0.29720704973E+02  0.81306957930E+00  0.11521206717E+02  0.31886040683E+02  0.00000000000E+00 0. -1.
         11    1    3    3    0    0 -0.63239967839E+01  0.10175876856E+02 -0.90406988689E+01  0.15009185235E+02  0.51100000000E-03 0. -1.
        -11    1    3    3    0    0 -0.22696080269E+02  0.88579284837E+01 -0.12489155257E+01  0.24395383720E+02  0.51100000000E-03 0.  1.
         12    1    3    3    0    0 -0.70062792029E+00 -0.19846874919E+02 -0.12315923223E+01  0.19897390361E+02  0.00000000000E+00 0. -1.
</event>
<event>
 7    1  0.3449603E-013  0.5930187E+02  0.7816164E-02  0.1266605E+00
        -11   -1    0    0    0    0  0.00000000000E+00  0.00000000000E+00  0.45593999997E+02  0.45594000000E+02  0.51100000000E-03 0. -1.
         11   -1    0    0    0    0 -0.00000000000E+00 -0.00000000000E+00 -0.45593999997E+02  0.45594000000E+02  0.51100000000E-03 0.  1.
    9900012    2    1    2    0    0 -0.31241795643E+02  0.47038774608E+01 -0.43068227672E+01  0.59301874796E+02  0.49999873737E+02 0.  0.
         12    1    1    2    0    0  0.31241795643E+02 -0.47038774608E+01  0.43068227672E+01  0.31886125204E+02  0.00000000000E+00 0. -1.
         11    1    3    3    0    0 -0.39020008947E+02  0.42265981436E+01 -0.59566882319E+00  0.39252771261E+02  0.51100000000E-03 0. -1.
        -11    1    3    3    0    0 -0.35154523279E+01  0.61091205773E+01 -0.18984263114E+01  0.72995740984E+01  0.51100000000E-03 0.  1.
         12    1    3    3    0    0  0.11293665631E+02 -0.56318412601E+01 -0.18127276325E+01  0.12749529436E+02  0.00000000000E+00 0. -1.
</event>
<event>
 7    1  0.3990839E-013  0.5930194E+02  0.7816164E-02  0.1266605E+00
        -11   -1    0    0    0    0  0.00000000000E+00  0.00000000000E+00  0.45593999997E+02  0.45594000000E+02  0.51100000000E-03 0. -1.
         11   -1    0    0    0    0 -0.00000000000E+00 -0.00000000000E+00 -0.45593999997E+02  0.45594000000E+02  0.51100000000E-03 0.  1.
    9900012    2    1    2    0    0  0.19192381696E+01 -0.23887126039E+02 -0.21034320931E+02  0.59301938428E+02  0.49999989787E+02 0.  0.
         12    1    1    2    0    0 -0.19192381696E+01  0.23887126039E+02  0.21034320931E+02  0.31886061572E+02  0.00000000000E+00 0. -1.
         11    1    3    3    0    0 -0.78887613229E+01  0.60227362106E+01 -0.26894671011E+01  0.10282953867E+02  0.51100000000E-03 0. -1.
        -11    1    3    3    0    0  0.20772913052E+01 -0.26009357910E+01 -0.20298641802E+02  0.20569756086E+02  0.51100000000E-03 0.  1.
         12    1    3    3    0    0  0.77307081873E+01 -0.27308926459E+02  0.19537879721E+01  0.28449228475E+02  0.00000000000E+00 0. -1.
</event>
<event>
 7    1  0.3449603E-013  0.5930195E+02  0.7816164E-02  0.1266605E+00
        -11   -1    0    0    0    0  0.00000000000E+00  0.00000000000E+00  0.45593999997E+02  0.45594000000E+02  0.51100000000E-03 0. -1.
         11   -1    0    0    0    0 -0.00000000000E+00 -0.00000000000E+00 -0.45593999997E+02  0.45594000000E+02  0.51100000000E-03 0.  1.
    9900012    2    1    2    0    0  0.16778835672E+01  0.31705047453E+02 -0.29487491384E+01  0.59301945858E+02  0.50000003338E+02 0.  0.
         12    1    1    2    0    0 -0.16778835672E+01 -0.31705047453E+02  0.29487491384E+01  0.31886054142E+02  0.00000000000E+00 0. -1.
         11    1    3    3    0    0 -0.62775335971E+01  0.33499881673E+02  0.11548859286E+02  0.35986464833E+02  0.51100000000E-03 0.  1.
        -11    1    3    3    0    0  0.55522165382E+01  0.63669031007E+01 -0.11553082935E+02  0.14312172761E+02  0.51100000000E-03 0. -1.
        -12    1    3    3    0    0  0.24032006261E+01 -0.81617373203E+01 -0.29445254896E+01  0.90033082639E+01  0.00000000000E+00 0.  1.
</event>
<event>
 7    1  0.3449603E-013  0.5930195E+02  0.7816164E-02  0.1266605E+00
        -11   -1    0    0    0    0  0.00000000000E+00  0.00000000000E+00  0.45593999997E+02  0.45594000000E+02  0.51100000000E-03 0.  1.
         11   -1    0    0    0    0 -0.00000000000E+00 -0.00000000000E+00 -0.45593999997E+02  0.45594000000E+02  0.51100000000E-03 0. -1.
    9900012    2    1    2    0    0  0.57898655980E+01 -0.17073849207E+01  0.31309463707E+02  0.59301949373E+02  0.50000009749E+02 0.  0.
         12    1    1    2    0    0 -0.57898655980E+01  0.17073849207E+01 -0.31309463707E+02  0.31886050627E+02  0.00000000000E+00 0. -1.
         11    1    3    3    0    0 -0.50937033032E+01  0.67952351658E+01  0.55844202426E+01  0.10163994491E+02  0.51100000000E-03 0. -1.
        -11    1    3    3    0    0 -0.85801495753E+01 -0.30887053797E+01  0.27388692130E+02  0.28866927867E+02  0.51100000000E-03 0.  1.
        -12    1    3    3    0    0  0.19463718477E+02 -0.54139147068E+01 -0.16636486647E+01  0.20271027016E+02  0.00000000000E+00 0.  1.
</event>
<event>
 7    1  0.4040883E-013  0.5930196E+02  0.7816164E-02  0.1266605E+00
        -11   -1    0    0    0    0  0.00000000000E+00  0.00000000000E+00  0.45593999997E+02  0.45594000000E+02  0.51100000000E-03 0.  1.
         11   -1    0    0    0    0 -0.00000000000E+00 -0.00000000000E+00 -0.45593999997E+02  0.45594000000E+02  0.51100000000E-03 0. -1.
    9900012    2    1    2    0    0  0.14159528831E+01 -0.19772414356E+02  0.24975317128E+02  0.59301956694E+02  0.50000023101E+02 0.  0.
         12    1    1    2    0    0 -0.14159528831E+01  0.19772414356E+02 -0.24975317128E+02  0.31886043306E+02  0.00000000000E+00 0. -1.
         11    1    3    3    0    0 -0.53375520724E+01 -0.12031842457E+02 -0.57518145403E+01  0.14364472347E+02  0.51100000000E-03 0. -1.
        -11    1    3    3    0    0 -0.12270416405E+02 -0.59473556805E+01  0.11623207691E+02  0.17917397011E+02  0.51100000000E-03 0.  1.
         12    1    3    3    0    0  0.19023921361E+02 -0.17932162182E+01  0.19103923977E+02  0.27020087337E+02  0.00000000000E+00 0. -1.
</event>
<event>
 7    1  0.3449603E-013  0.5930198E+02  0.7816164E-02  0.1266605E+00
        -11   -1    0    0    0    0  0.00000000000E+00  0.00000000000E+00  0.45593999997E+02  0.45594000000E+02  0.51100000000E-03 0.  1.
         11   -1    0    0    0    0 -0.00000000000E+00 -0.00000000000E+00 -0.45593999997E+02  0.45594000000E+02  0.51100000000E-03 0. -1.
    9900012    2    1    2    0    0  0.26169302345E+02  0.17275064081E+02  0.57842966698E+01  0.59301979361E+02  0.50000064439E+02 0.  0.
         12    1    1    2    0    0 -0.26169302345E+02 -0.17275064081E+02 -0.57842966698E+01  0.31886020639E+02  0.00000000000E+00 0. -1.
         11    1    3    3    0    0 -0.15543878648E+01 -0.10656852547E+02 -0.66671230075E+01  0.12666300064E+02  0.51100000000E-03 0. -1.
        -11    1    3    3    0    0  0.12518447285E+02 -0.50541803313E+00  0.17002564325E+01  0.12643490104E+02  0.51100000000E-03 0.  1.
        -12    1    3    3    0    0  0.15205242925E+02  0.28437334661E+02  0.10751163245E+02  0.33992189194E+02  0.00000000000E+00 0.  1.
</event>
<event>
 7    1  0.3449603E-013  0.5930191E+02  0.7816164E-02  0.1266605E+00
        -11   -1    0    0    0    0  0.00000000000E+00  0.00000000000E+00  0.45593999997E+02  0.45594000000E+02  0.51100000000E-03 0.  1.
         11   -1    0    0    0    0 -0.00000000000E+00 -0.00000000000E+00 -0.45593999997E+02  0.45594000000E+02  0.51100000000E-03 0. -1.
    9900012    2    1    2    0    0 -0.32806988699E+01 -0.30545227413E+02 -0.85410214264E+01  0.59301906639E+02  0.49999931813E+02 0.  0.
         12    1    1    2    0    0  0.32806988699E+01  0.30545227413E+02  0.85410214264E+01  0.31886093361E+02  0.00000000000E+00 0. -1.
         11    1    3    3    0    0 -0.27003436638E+01  0.12097686888E+01  0.49559857504E+01  0.57721045730E+01  0.51100000000E-03 0. -1.
        -11    1    3    3    0    0 -0.13615032909E+02  0.33879527380E+01 -0.11985394861E+01  0.14081329555E+02  0.51100000000E-03 0.  1.
        -12    1    3    3    0    0  0.13034677703E+02 -0.35142948840E+02 -0.12298467691E+02  0.39448472512E+02  0.00000000000E+00 0.  1.
</event>
<event>
 7    1  0.3449603E-013  0.5930171E+02  0.7816164E-02  0.1266606E+00
        -11   -1    0    0    0    0  0.00000000000E+00  0.00000000000E+00  0.45593999997E+02  0.45594000000E+02  0.51100000000E-03 0. -1.
         11   -1    0    0    0    0 -0.00000000000E+00 -0.00000000000E+00 -0.45593999997E+02  0.45594000000E+02  0.51100000000E-03 0.  1.
    9900012    2    1    2    0    0 -0.27154647645E+02 -0.15579807407E+02  0.60522837250E+01  0.59301711005E+02  0.49999575021E+02 0.  0.
         12    1    1    2    0    0  0.27154647645E+02  0.15579807407E+02 -0.60522837250E+01  0.31886288995E+02  0.00000000000E+00 0. -1.
         11    1    3    3    0    0 -0.11433451306E+02  0.11595379903E+02 -0.11194183648E+02  0.19760728521E+02  0.51100000000E-03 0. -1.
        -11    1    3    3    0    0 -0.11628110975E+02 -0.81088731888E+01  0.10921696991E+01  0.14218284853E+02  0.51100000000E-03 0.  1.
        -12    1    3    3    0    0 -0.40930853635E+01 -0.19066314122E+02  0.16154297674E+02  0.25322697631E+02  0.00000000000E+00 0.  1.
</event>
<event>
 7    1  0.3449603E-013  0.5930191E+02  0.7816164E-02  0.1266605E+00
        -11   -1    0    0    0    0  0.00000000000E+00  0.00000000000E+00  0.45593999997E+02  0.45594000000E+02  0.51100000000E-03 0. -1.
         11   -1    0    0    0    0 -0.00000000000E+00 -0.00000000000E+00 -0.45593999997E+02  0.45594000000E+02  0.51100000000E-03 0.  1.
    9900012    2    1    2    0    0  0.10733017043E+02  0.28502411659E+02 -0.94412550665E+01  0.59301914909E+02  0.49999946894E+02 0.  0.
         12    1    1    2    0    0 -0.10733017043E+02 -0.28502411659E+02  0.94412550665E+01  0.31886085091E+02  0.00000000000E+00 0. -1.
         11    1    3    3    0    0 -0.59727594775E+01  0.92949889791E+01  0.66705320695E+01  0.12906071217E+02  0.51100000000E-03 0. -1.
        -11    1    3    3    0    0 -0.94463215782E+01  0.12449392355E+02 -0.10444660857E+02  0.18796576870E+02  0.51100000000E-03 0.  1.
         12    1    3    3    0    0  0.26152098099E+02  0.67580303247E+01 -0.56671262792E+01  0.27599266822E+02  0.00000000000E+00 0. -1.
</event>
<event>
 7    1  0.3449603E-013  0.5930194E+02  0.7816164E-02  0.1266605E+00
        -11   -1    0    0    0    0  0.00000000000E+00  0.00000000000E+00  0.45593999997E+02  0.45594000000E+02  0.51100000000E-03 0. -1.
         11   -1    0    0    0    0 -0.00000000000E+00 -0.00000000000E+00 -0.45593999997E+02  0.45594000000E+02  0.51100000000E-03 0.  1.
    9900012    2    1    2    0    0 -0.67978293744E+01  0.24881532569E+02 -0.18746187634E+02  0.59301941950E+02  0.49999996210E+02 0.  0.
         12    1    1    2    0    0  0.67978293744E+01 -0.24881532569E+02  0.18746187634E+02  0.31886058050E+02  0.00000000000E+00 0. -1.
         11    1    3    3    0    0 -0.11051243592E+02 -0.36678620591E+01 -0.16211853869E+01  0.11756336136E+02  0.51100000000E-03 0. -1.
        -11    1    3    3    0    0  0.11554942192E+02 -0.30237501176E+01 -0.43284255492E+01  0.12704134045E+02  0.51100000000E-03 0.  1.
        -12    1    3    3    0    0 -0.73015279739E+01  0.31573144745E+02 -0.12796576698E+02  0.34841471769E+02  0.00000000000E+00 0.  1.
</event>
<event>
 7    1  0.3449603E-013  0.5930195E+02  0.7816164E-02  0.1266605E+00
        -11   -1    0    0    0    0  0.00000000000E+00  0.00000000000E+00  0.45593999997E+02  0.45594000000E+02  0.51100000000E-03 0. -1.
         11   -1    0    0    0    0 -0.00000000000E+00 -0.00000000000E+00 -0.45593999997E+02  0.45594000000E+02  0.51100000000E-03 0.  1.
    9900012    2    1    2    0    0 -0.25723283151E+02 -0.13559437179E+02  0.13083371099E+02  0.59301949257E+02  0.50000009537E+02 0.  0.
         12    1    1    2    0    0  0.25723283151E+02  0.13559437179E+02 -0.13083371099E+02  0.31886050743E+02  0.00000000000E+00 0. -1.
         11    1    3    3    0    0 -0.31692671873E+02  0.11202751202E+00  0.13090043025E+02  0.34289753969E+02  0.51100000000E-03 0. -1.
        -11    1    3    3    0    0 -0.37926427027E+01  0.99047574246E-01  0.59972302799E+01  0.70965287559E+01  0.51100000000E-03 0.  1.
        -12    1    3    3    0    0  0.97620314251E+01 -0.13770512265E+02 -0.60039022056E+01  0.17915666532E+02  0.00000000000E+00 0.  1.
</event>
<event>
 7    1  0.3449603E-013  0.5930191E+02  0.7816164E-02  0.1266605E+00
        -11   -1    0    0    0    0  0.00000000000E+00  0.00000000000E+00  0.45593999997E+02  0.45594000000E+02  0.51100000000E-03 0.  1.
         11   -1    0    0    0    0 -0.00000000000E+00 -0.00000000000E+00 -0.45593999997E+02  0.45594000000E+02  0.51100000000E-03 0. -1.
    9900012    2    1    2    0    0  0.14678038190E+02 -0.25433468131E+02  0.12426438677E+02  0.59301913936E+02  0.49999945120E+02 0.  0.
         12    1    1    2    0    0 -0.14678038190E+02  0.25433468131E+02 -0.12426438677E+02  0.31886086064E+02  0.00000000000E+00 0. -1.
         11    1    3    3    0    0 -0.26313715110E+01 -0.16510571433E+01 -0.62403376192E+01  0.69707904560E+01  0.51100000000E-03 0. -1.
        -11    1    3    3    0    0  0.23200150268E+02 -0.89495325029E+01 -0.33998934649E+01  0.25097816246E+02  0.51100000000E-03 0.  1.
        -12    1    3    3    0    0 -0.58907405669E+01 -0.14832878485E+02  0.22066669761E+02  0.27233307234E+02  0.00000000000E+00 0.  1.
</event>
<event>
 7    1  0.3449603E-013  0.5930195E+02  0.7816164E-02  0.1266605E+00
        -11   -1    0    0    0    0  0.00000000000E+00  0.00000000000E+00  0.45593999997E+02  0.45594000000E+02  0.51100000000E-03 0. -1.
         11   -1    0    0    0    0 -0.00000000000E+00 -0.00000000000E+00 -0.45593999997E+02  0.45594000000E+02  0.51100000000E-03 0.  1.
    9900012    2    1    2    0    0 -0.16520992635E+02 -0.16589239057E+02 -0.21646575801E+02  0.59301948284E+02  0.50000007763E+02 0.  0.
         12    1    1    2    0    0  0.16520992635E+02  0.16589239057E+02  0.21646575801E+02  0.31886051716E+02  0.00000000000E+00 0. -1.
         11    1    3    3    0    0 -0.18925607109E+02  0.85264308123E+01 -0.24828698336E+02  0.32362677395E+02  0.51100000000E-03 0. -1.
        -11    1    3    3    0    0 -0.94210736245E+00 -0.12656663945E+01 -0.17494653371E+01  0.23558664927E+01  0.51100000000E-03 0.  1.
        -12    1    3    3    0    0  0.33467218365E+01 -0.23850003474E+02  0.49315878727E+01  0.24583404397E+02  0.00000000000E+00 0.  1.
</event>
<event>
 7    1  0.3449603E-013  0.5930202E+02  0.7816164E-02  0.1266605E+00
        -11   -1    0    0    0    0  0.00000000000E+00  0.00000000000E+00  0.45593999997E+02  0.45594000000E+02  0.51100000000E-03 0.  1.
         11   -1    0    0    0    0 -0.00000000000E+00 -0.00000000000E+00 -0.45593999997E+02  0.45594000000E+02  0.51100000000E-03 0. -1.
    9900012    2    1    2    0    0  0.13743813448E+02  0.18156560828E+02  0.22319560627E+02  0.59302017252E+02  0.50000133544E+02 0.  0.
         12    1    1    2    0    0 -0.13743813448E+02 -0.18156560828E+02 -0.22319560627E+02  0.31885982748E+02  0.00000000000E+00 0. -1.
         11    1    3    3    0    0 -0.10862522584E+02 -0.62757063761E+01  0.18998779011E+02  0.22766916603E+02  0.51100000000E-03 0. -1.
        -11    1    3    3    0    0  0.16945864730E+01  0.10707952144E+01  0.32439885976E+01  0.38133565252E+01  0.51100000000E-03 0.  1.
         12    1    3    3    0    0  0.22911749559E+02  0.23361471990E+02  0.76793018054E-01  0.32721744125E+02  0.00000000000E+00 0. -1.
</event>
<event>
 7    1  0.3449603E-013  0.5930194E+02  0.7816164E-02  0.1266605E+00
        -11   -1    0    0    0    0  0.00000000000E+00  0.00000000000E+00  0.45593999997E+02  0.45594000000E+02  0.51100000000E-03 0.  1.
         11   -1    0    0    0    0 -0.00000000000E+00 -0.00000000000E+00 -0.45593999997E+02  0.45594000000E+02  0.51100000000E-03 0. -1.
    9900012    2    1    2    0    0  0.70008289642E+01 -0.31096412452E+02  0.84998180732E+00  0.59301938114E+02  0.49999989214E+02 0.  0.
         12    1    1    2    0    0 -0.70008289642E+01  0.31096412452E+02 -0.84998180732E+00  0.31886061886E+02  0.00000000000E+00 0. -1.
         11    1    3    3    0    0 -0.17444669742E+02 -0.48531078907E+01 -0.27959701154E+01  0.18321752312E+02  0.51100000000E-03 0. -1.
        -11    1    3    3    0    0 -0.16809453216E+01 -0.66920069673E+01  0.46707713651E+01  0.83321449718E+01  0.51100000000E-03 0.  1.
        -12    1    3    3    0    0  0.26126444028E+02 -0.19551297594E+02 -0.10248194424E+01  0.32648040830E+02  0.00000000000E+00 0.  1.
</event>
<event>
 7    1  0.3449603E-013  0.5930190E+02  0.7816164E-02  0.1266605E+00
        -11   -1    0    0    0    0  0.00000000000E+00  0.00000000000E+00  0.45593999997E+02  0.45594000000E+02  0.51100000000E-03 0. -1.
         11   -1    0    0    0    0 -0.00000000000E+00 -0.00000000000E+00 -0.45593999997E+02  0.45594000000E+02  0.51100000000E-03 0.  1.
    9900012    2    1    2    0    0 -0.15738955251E+02  0.27452433963E+02 -0.39208148249E+01  0.59301895946E+02  0.49999912310E+02 0.  0.
         12    1    1    2    0    0  0.15738955251E+02 -0.27452433963E+02  0.39208148249E+01  0.31886104054E+02  0.00000000000E+00 0. -1.
         11    1    3    3    0    0  0.15317514404E+01  0.98555939891E+00 -0.17423004574E+01  0.25205556826E+01  0.51100000000E-03 0. -1.
        -11    1    3    3    0    0 -0.87991716224E+01 -0.27924264454E+01 -0.19617868068E+02  0.21681416339E+02  0.51100000000E-03 0.  1.
        -12    1    3    3    0    0 -0.84715350688E+01  0.29259301009E+02  0.17439353700E+02  0.35099923924E+02  0.00000000000E+00 0.  1.
</event>
<event>
 7    1  0.3449603E-013  0.5930202E+02  0.7816164E-02  0.1266604E+00
        -11   -1    0    0    0    0  0.00000000000E+00  0.00000000000E+00  0.45593999997E+02  0.45594000000E+02  0.51100000000E-03 0. -1.
         11   -1    0    0    0    0 -0.00000000000E+00 -0.00000000000E+00 -0.45593999997E+02  0.45594000000E+02  0.51100000000E-03 0.  1.
    9900012    2    1    2    0    0 -0.21218375550E+02 -0.10067547251E+02 -0.21567121933E+02  0.59302020054E+02  0.50000138654E+02 0.  0.
         12    1    1    2    0    0  0.21218375550E+02  0.10067547251E+02  0.21567121933E+02  0.31885979946E+02  0.00000000000E+00 0. -1.
         11    1    3    3    0    0 -0.15876898971E+02  0.32250210237E+01 -0.57142852380E+01  0.17179340429E+02  0.51100000000E-03 0.  1.
        -11    1    3    3    0    0  0.15379345151E+02 -0.33521922786E+01 -0.38911241647E+01  0.16214262175E+02  0.51100000000E-03 0. -1.
         12    1    3    3    0    0 -0.20720821730E+02 -0.99403759961E+01 -0.11961712531E+02  0.25908417450E+02  0.00000000000E+00 0. -1.
</event>
<event>
 7    1  0.3449603E-013  0.5930166E+02  0.7816164E-02  0.1266606E+00
        -11   -1    0    0    0    0  0.00000000000E+00  0.00000000000E+00  0.45593999997E+02  0.45594000000E+02  0.51100000000E-03 0.  1.
         11   -1    0    0    0    0 -0.00000000000E+00 -0.00000000000E+00 -0.45593999997E+02  0.45594000000E+02  0.51100000000E-03 0. -1.
    9900012    2    1    2    0    0  0.89384856978E+01  0.58114573442E+01  0.30051107367E+02  0.59301660966E+02  0.49999483760E+02 0.  0.
         12    1    1    2    0    0 -0.89384856978E+01 -0.58114573442E+01 -0.30051107367E+02  0.31886339034E+02  0.00000000000E+00 0. -1.
         11    1    3    3    0    0  0.97285303538E+01  0.17336537522E+02  0.30507243960E+01  0.20112353311E+02  0.51100000000E-03 0. -1.
        -11    1    3    3    0    0  0.73984855479E+01  0.30665576334E+01  0.72889332157E+00  0.80419307294E+01  0.51100000000E-03 0.  1.
        -12    1    3    3    0    0 -0.81885302039E+01 -0.14591637811E+02  0.26271489649E+02  0.31147376925E+02  0.00000000000E+00 0.  1.
</event>
<event>
 7    1  0.3449603E-013  0.5930195E+02  0.7816164E-02  0.1266605E+00
        -11   -1    0    0    0    0  0.00000000000E+00  0.00000000000E+00  0.45593999997E+02  0.45594000000E+02  0.51100000000E-03 0.  1.
         11   -1    0    0    0    0 -0.00000000000E+00 -0.00000000000E+00 -0.45593999997E+02  0.45594000000E+02  0.51100000000E-03 0. -1.
    9900012    2    1    2    0    0  0.17706530971E+02 -0.18798474372E+02  0.18703382271E+02  0.59301946841E+02  0.50000005130E+02 0.  0.
         12    1    1    2    0    0 -0.17706530971E+02  0.18798474372E+02 -0.18703382271E+02  0.31886053159E+02  0.00000000000E+00 0. -1.
         11    1    3    3    0    0  0.91825589947E+00 -0.23576594543E+02  0.44590405855E+01  0.24012122925E+02  0.51100000000E-03 0. -1.
        -11    1    3    3    0    0  0.58247899205E+01 -0.11305315773E+02  0.70289153179E+01  0.14530794650E+02  0.51100000000E-03 0.  1.
         12    1    3    3    0    0  0.10963485151E+02  0.16083435944E+02  0.72154263676E+01  0.20759029266E+02  0.00000000000E+00 0. -1.
</event>
<event>
 7    1  0.3449603E-013  0.5930188E+02  0.7816164E-02  0.1266605E+00
        -11   -1    0    0    0    0  0.00000000000E+00  0.00000000000E+00  0.45593999997E+02  0.45594000000E+02  0.51100000000E-03 0.  1.
         11   -1    0    0    0    0 -0.00000000000E+00 -0.00000000000E+00 -0.45593999997E+02  0.45594000000E+02  0.51100000000E-03 0. -1.
    9900012    2    1    2    0    0 -0.14703305912E+02 -0.21188725989E+02  0.18750350223E+02  0.59301875318E+02  0.49999874689E+02 0.  0.
         12    1    1    2    0    0  0.14703305912E+02  0.21188725989E+02 -0.18750350223E+02  0.31886124682E+02  0.00000000000E+00 0. -1.
         11    1    3    3    0    0  0.55800135697E+01  0.47894073192E+01 -0.16795400711E+01  0.75429323886E+01  0.51100000000E-03 0. -1.
        -11    1    3    3    0    0 -0.17272848462E+02  0.37089781247E+01  0.87548394669E+01  0.19716871635E+02  0.51100000000E-03 0.  1.
        -12    1    3    3    0    0 -0.30104710198E+01 -0.29687111432E+02  0.11675050827E+02  0.32042071294E+02  0.00000000000E+00 0.  1.
</event>
<event>
 7    1  0.3449603E-013  0.5930196E+02  0.7816164E-02  0.1266605E+00
        -11   -1    0    0    0    0  0.00000000000E+00  0.00000000000E+00  0.45593999997E+02  0.45594000000E+02  0.51100000000E-03 0. -1.
         11   -1    0    0    0    0 -0.00000000000E+00 -0.00000000000E+00 -0.45593999997E+02  0.45594000000E+02  0.51100000000E-03 0.  1.
    9900012    2    1    2    0    0  0.49686266339E+01  0.29700541229E+02 -0.10483816189E+02  0.59301956003E+02  0.50000021839E+02 0.  0.
         12    1    1    2    0    0 -0.49686266339E+01 -0.29700541229E+02  0.10483816189E+02  0.31886043997E+02  0.00000000000E+00 0. -1.
         11    1    3    3    0    0 -0.52076508277E+00  0.32588715196E+00  0.12143465439E+01  0.13608954762E+01  0.51100000000E-03 0. -1.
        -11    1    3    3    0    0  0.40901648680E+01  0.18969908984E+02 -0.30649323518E+02  0.36276272243E+02  0.51100000000E-03 0.  1.
         12    1    3    3    0    0  0.13992268487E+01  0.10404745093E+02  0.18951160785E+02  0.21664788283E+02  0.00000000000E+00 0. -1.
</event>
<event>
 7    1  0.3449603E-013  0.5930198E+02  0.7816164E-02  0.1266605E+00
        -11   -1    0    0    0    0  0.00000000000E+00  0.00000000000E+00  0.45593999997E+02  0.45594000000E+02  0.51100000000E-03 0. -1.
         11   -1    0    0    0    0 -0.00000000000E+00 -0.00000000000E+00 -0.45593999997E+02  0.45594000000E+02  0.51100000000E-03 0.  1.
    9900012    2    1    2    0    0  0.17020597302E+02  0.26232597252E+02  0.62344648212E+01  0.59301977315E+02  0.50000060707E+02 0.  0.
         12    1    1    2    0    0 -0.17020597302E+02 -0.26232597252E+02 -0.62344648212E+01  0.31886022685E+02  0.00000000000E+00 0. -1.
         11    1    3    3    0    0 -0.11632794936E+01 -0.23915081672E+00  0.14397620765E+02  0.14446518482E+02  0.51100000000E-03 0. -1.
        -11    1    3    3    0    0  0.11168574858E+02  0.98837288326E+01 -0.18754528438E+02  0.23961583779E+02  0.51100000000E-03 0.  1.
         12    1    3    3    0    0  0.70153019376E+01  0.16588019236E+02  0.10591372494E+02  0.20893875053E+02  0.00000000000E+00 0. -1.
</event>
<event>
 7    1  0.3449603E-013  0.5930196E+02  0.7816164E-02  0.1266605E+00
        -11   -1    0    0    0    0  0.00000000000E+00  0.00000000000E+00  0.45593999997E+02  0.45594000000E+02  0.51100000000E-03 0. -1.
         11   -1    0    0    0    0 -0.00000000000E+00 -0.00000000000E+00 -0.45593999997E+02  0.45594000000E+02  0.51100000000E-03 0.  1.
    9900012    2    1    2    0    0 -0.16189215022E+01 -0.10879080694E+02 -0.29928984274E+02  0.59301962252E+02  0.50000033237E+02 0.  0.
         12    1    1    2    0    0  0.16189215022E+01  0.10879080694E+02  0.29928984274E+02  0.31886037748E+02  0.00000000000E+00 0. -1.
         11    1    3    3    0    0 -0.12153449557E+02 -0.46175498341E+01  0.52365562705E+00  0.13011622423E+02  0.51100000000E-03 0. -1.
        -11    1    3    3    0    0 -0.81987657290E+01  0.29943281832E+01  0.72479983676E+00  0.87584870733E+01  0.51100000000E-03 0.  1.
        -12    1    3    3    0    0  0.18733293784E+02 -0.92558590434E+01 -0.31177439738E+02  0.37531852755E+02  0.00000000000E+00 0.  1.
</event>
<event>
 7    1  0.3449603E-013  0.5930193E+02  0.7816164E-02  0.1266605E+00
        -11   -1    0    0    0    0  0.00000000000E+00  0.00000000000E+00  0.45593999997E+02  0.45594000000E+02  0.51100000000E-03 0.  1.
         11   -1    0    0    0    0 -0.00000000000E+00 -0.00000000000E+00 -0.45593999997E+02  0.45594000000E+02  0.51100000000E-03 0. -1.
    9900012    2    1    2    0    0  0.14816855633E+02  0.27928901840E+02 -0.41422750607E+01  0.59301933897E+02  0.49999981524E+02 0.  0.
         12    1    1    2    0    0 -0.14816855633E+02 -0.27928901840E+02  0.41422750607E+01  0.31886066103E+02  0.00000000000E+00 0. -1.
         11    1    3    3    0    0  0.22437128231E+02  0.26405964633E+01 -0.13290560614E+02  0.26211380633E+02  0.51100000000E-03 0. -1.
        -11    1    3    3    0    0 -0.43486469546E+01 -0.15404380894E+01  0.19075265710E+00  0.46173657729E+01  0.51100000000E-03 0.  1.
        -12    1    3    3    0    0 -0.32716256435E+01  0.26828743466E+02  0.89575328967E+01  0.28473187491E+02  0.00000000000E+00 0.  1.
</event>
<event>
 7    1  0.3449603E-013  0.5930194E+02  0.7816164E-02  0.1266605E+00
        -11   -1    0    0    0    0  0.00000000000E+00  0.00000000000E+00  0.45593999997E+02  0.45594000000E+02  0.51100000000E-03 0.  1.
         11   -1    0    0    0    0 -0.00000000000E+00 -0.00000000000E+00 -0.45593999997E+02  0.45594000000E+02  0.51100000000E-03 0. -1.
    9900012    2    1    2    0    0 -0.12617159171E+02  0.77726227745E+00  0.29273267692E+02  0.59301936530E+02  0.49999986327E+02 0.  0.
         12    1    1    2    0    0  0.12617159171E+02 -0.77726227745E+00 -0.29273267692E+02  0.31886063470E+02  0.00000000000E+00 0. -1.
         11    1    3    3    0    0 -0.12669132574E+02  0.16107022348E+01  0.25297357905E+02  0.28338270927E+02  0.51100000000E-03 0.  1.
        -11    1    3    3    0    0 -0.12979597833E+02 -0.84029218059E+01  0.36620962153E+01  0.15889934038E+02  0.51100000000E-03 0. -1.
        -12    1    3    3    0    0  0.13031571237E+02  0.75694818485E+01  0.31381357200E+00  0.15073731565E+02  0.00000000000E+00 0.  1.
</event>
<event>
 7    1  0.3449603E-013  0.5930196E+02  0.7816164E-02  0.1266605E+00
        -11   -1    0    0    0    0  0.00000000000E+00  0.00000000000E+00  0.45593999997E+02  0.45594000000E+02  0.51100000000E-03 0.  1.
         11   -1    0    0    0    0 -0.00000000000E+00 -0.00000000000E+00 -0.45593999997E+02  0.45594000000E+02  0.51100000000E-03 0. -1.
    9900012    2    1    2    0    0 -0.27318758234E+02 -0.15536123577E+01  0.16370434485E+02  0.59301962491E+02  0.50000033673E+02 0.  0.
         12    1    1    2    0    0  0.27318758234E+02  0.15536123577E+01 -0.16370434485E+02  0.31886037509E+02  0.00000000000E+00 0. -1.
         11    1    3    3    0    0 -0.12860138184E+02  0.15231689449E+02 -0.13280806749E+01  0.19978771637E+02  0.51100000000E-03 0. -1.
        -11    1    3    3    0    0 -0.14192156810E+02 -0.84592872553E+01 -0.31969213447E+01  0.16828462857E+02  0.51100000000E-03 0.  1.
        -12    1    3    3    0    0 -0.26646324032E+00 -0.83260145517E+01  0.20895436505E+02  0.22494727998E+02  0.00000000000E+00 0.  1.
</event>
<event>
 7    1  0.3449603E-013  0.5930195E+02  0.7816164E-02  0.1266605E+00
        -11   -1    0    0    0    0  0.00000000000E+00  0.00000000000E+00  0.45593999997E+02  0.45594000000E+02  0.51100000000E-03 0.  1.
         11   -1    0    0    0    0 -0.00000000000E+00 -0.00000000000E+00 -0.45593999997E+02  0.45594000000E+02  0.51100000000E-03 0. -1.
    9900012    2    1    2    0    0 -0.52722876797E+01  0.40313619979E+00  0.31444559668E+02  0.59301954950E+02  0.50000019921E+02 0.  0.
         12    1    1    2    0    0  0.52722876797E+01 -0.40313619979E+00 -0.31444559668E+02  0.31886045050E+02  0.00000000000E+00 0. -1.
         11    1    3    3    0    0 -0.70346581637E+01 -0.60361731005E+01 -0.79341654156E+01  0.12201343462E+02  0.51100000000E-03 0. -1.
        -11    1    3    3    0    0 -0.38311406720E+01  0.47484255295E+01 -0.11022845871E+01  0.62000173734E+01  0.51100000000E-03 0.  1.
         12    1    3    3    0    0  0.55935111560E+01  0.16908837708E+01  0.40481009671E+02  0.40900594115E+02  0.00000000000E+00 0. -1.
</event>
<event>
 7    1  0.3449603E-013  0.5930193E+02  0.7816164E-02  0.1266605E+00
        -11   -1    0    0    0    0  0.00000000000E+00  0.00000000000E+00  0.45593999997E+02  0.45594000000E+02  0.51100000000E-03 0. -1.
         11   -1    0    0    0    0 -0.00000000000E+00 -0.00000000000E+00 -0.45593999997E+02  0.45594000000E+02  0.51100000000E-03 0.  1.
    9900012    2    1    2    0    0  0.72497689162E+01 -0.25569895741E+02 -0.17616551339E+02  0.59301927827E+02  0.49999970454E+02 0.  0.
         12    1    1    2    0    0 -0.72497689162E+01  0.25569895741E+02  0.17616551339E+02  0.31886072173E+02  0.00000000000E+00 0. -1.
         11    1    3    3    0    0  0.98149621350E+01 -0.17103741981E+02  0.85574445893E+01  0.21496542271E+02  0.51100000000E-03 0. -1.
        -11    1    3    3    0    0 -0.30231374306E+00 -0.15897395527E+02 -0.75004923419E+01  0.17580556412E+02  0.51100000000E-03 0.  1.
        -12    1    3    3    0    0 -0.22628794757E+01  0.74312417664E+01 -0.18673503586E+02  0.20224829144E+02  0.00000000000E+00 0.  1.
</event>
<event>
 7    1  0.3449603E-013  0.5930197E+02  0.7816164E-02  0.1266605E+00
        -11   -1    0    0    0    0  0.00000000000E+00  0.00000000000E+00  0.45593999997E+02  0.45594000000E+02  0.51100000000E-03 0. -1.
         11   -1    0    0    0    0 -0.00000000000E+00 -0.00000000000E+00 -0.45593999997E+02  0.45594000000E+02  0.51100000000E-03 0.  1.
    9900012    2    1    2    0    0  0.26023838570E+02 -0.17930105911E+02 -0.42414456742E+01  0.59301972758E+02  0.50000052396E+02 0.  0.
         12    1    1    2    0    0 -0.26023838570E+02  0.17930105911E+02  0.42414456742E+01  0.31886027242E+02  0.00000000000E+00 0. -1.
         11    1    3    3    0    0  0.10112143391E+02  0.90327265404E+01 -0.76167886787E+01  0.15551882933E+02  0.51100000000E-03 0. -1.
        -11    1    3    3    0    0  0.81433376395E+01 -0.11891302098E+02 -0.13557697630E+02  0.19787071001E+02  0.51100000000E-03 0.  1.
        -12    1    3    3    0    0  0.77683575390E+01 -0.15071530353E+02  0.16933040634E+02  0.23963018824E+02  0.00000000000E+00 0.  1.
</event>
<event>
 7    1  0.3449603E-013  0.5930194E+02  0.7816164E-02  0.1266605E+00
        -11   -1    0    0    0    0  0.00000000000E+00  0.00000000000E+00  0.45593999997E+02  0.45594000000E+02  0.51100000000E-03 0.  1.
         11   -1    0    0    0    0 -0.00000000000E+00 -0.00000000000E+00 -0.45593999997E+02  0.45594000000E+02  0.51100000000E-03 0. -1.
    9900012    2    1    2    0    0 -0.22762838411E+02  0.15708055635E+01  0.22273457181E+02  0.59301935059E+02  0.49999983643E+02 0.  0.
         12    1    1    2    0    0  0.22762838411E+02 -0.15708055635E+01 -0.22273457181E+02  0.31886064941E+02  0.00000000000E+00 0. -1.
         11    1    3    3    0    0  0.17993373041E+01  0.81621933841E+00 -0.51852142350E+01  0.55488985994E+01  0.51100000000E-03 0. -1.
        -11    1    3    3    0    0 -0.11829293145E+02  0.14217479321E+02 -0.23605927531E+01  0.18645141269E+02  0.51100000000E-03 0.  1.
        -12    1    3    3    0    0 -0.12732882570E+02 -0.13462893096E+02  0.29819264170E+02  0.35107895190E+02  0.00000000000E+00 0.  1.
</event>
<event>
 7    1  0.3449603E-013  0.5930195E+02  0.7816164E-02  0.1266605E+00
        -11   -1    0    0    0    0  0.00000000000E+00  0.00000000000E+00  0.45593999997E+02  0.45594000000E+02  0.51100000000E-03 0.  1.
         11   -1    0    0    0    0 -0.00000000000E+00 -0.00000000000E+00 -0.45593999997E+02  0.45594000000E+02  0.51100000000E-03 0. -1.
    9900012    2    1    2    0    0 -0.17431631753E+02  0.28008273131E+01  0.26552096756E+02  0.59301948797E+02  0.50000008698E+02 0.  0.
         12    1    1    2    0    0  0.17431631753E+02 -0.28008273131E+01 -0.26552096756E+02  0.31886051203E+02  0.00000000000E+00 0. -1.
         11    1    3    3    0    0 -0.12928630068E+02  0.63547591956E+01  0.24417979640E+02  0.28350840725E+02  0.51100000000E-03 0. -1.
        -11    1    3    3    0    0 -0.18315495865E+01  0.20454559323E+01  0.15750471547E+02  0.15987989807E+02  0.51100000000E-03 0.  1.
         12    1    3    3    0    0 -0.26714520984E+01 -0.55993878147E+01 -0.13616354431E+02  0.14963118265E+02  0.00000000000E+00 0. -1.
</event>
<event>
 7    1  0.3449603E-013  0.5930194E+02  0.7816164E-02  0.1266605E+00
        -11   -1    0    0    0    0  0.00000000000E+00  0.00000000000E+00  0.45593999997E+02  0.45594000000E+02  0.51100000000E-03 0.  1.
         11   -1    0    0    0    0 -0.00000000000E+00 -0.00000000000E+00 -0.45593999997E+02  0.45594000000E+02  0.51100000000E-03 0. -1.
    9900012    2    1    2    0    0  0.21907379178E+01  0.29505876971E+02  0.11888005185E+02  0.59301940731E+02  0.49999993987E+02 0.  0.
         12    1    1    2    0    0 -0.21907379178E+01 -0.29505876971E+02 -0.11888005185E+02  0.31886059269E+02  0.00000000000E+00 0. -1.
         11    1    3    3    0    0 -0.53407205968E+01 -0.31299381940E+01  0.10075345077E+01  0.62717569817E+01  0.51100000000E-03 0. -1.
        -11    1    3    3    0    0  0.14476116241E+01 -0.89820492278E+01  0.54898110235E+01  0.10625949985E+02  0.51100000000E-03 0.  1.
         12    1    3    3    0    0  0.60838468906E+01  0.41617864393E+02  0.53906596541E+01  0.42404233764E+02  0.00000000000E+00 0. -1.
</event>
<event>
 7    1  0.3449603E-013  0.5930194E+02  0.7816164E-02  0.1266605E+00
        -11   -1    0    0    0    0  0.00000000000E+00  0.00000000000E+00  0.45593999997E+02  0.45594000000E+02  0.51100000000E-03 0.  1.
         11   -1    0    0    0    0 -0.00000000000E+00 -0.00000000000E+00 -0.45593999997E+02  0.45594000000E+02  0.51100000000E-03 0. -1.
    9900012    2    1    2    0    0  0.21829809829E+02  0.11864992371E+02  0.19985047687E+02  0.59301940786E+02  0.49999994089E+02 0.  0.
         12    1    1    2    0    0 -0.21829809829E+02 -0.11864992371E+02 -0.19985047687E+02  0.31886059214E+02  0.00000000000E+00 0. -1.
         11    1    3    3    0    0 -0.10755177982E+01 -0.12101674871E+02  0.54652869389E+00  0.12161659718E+02  0.51100000000E-03 0. -1.
        -11    1    3    3    0    0  0.11565711900E+01 -0.35751607687E+01 -0.35647391071E+01  0.51794591033E+01  0.51100000000E-03 0.  1.
        -12    1    3    3    0    0  0.21748756437E+02  0.27541828011E+02  0.23003258100E+02  0.41960821965E+02  0.00000000000E+00 0.  1.
</event>
<event>
 7    1  0.3727686E-013  0.5930192E+02  0.7816164E-02  0.1266605E+00
        -11   -1    0    0    0    0  0.00000000000E+00  0.00000000000E+00  0.45593999997E+02  0.45594000000E+02  0.51100000000E-03 0. -1.
         11   -1    0    0    0    0 -0.00000000000E+00 -0.00000000000E+00 -0.45593999997E+02  0.45594000000E+02  0.51100000000E-03 0.  1.
    9900012    2    1    2    0    0 -0.92281106270E+01 -0.22611317448E+02 -0.20501029773E+02  0.59301922721E+02  0.49999961142E+02 0.  0.
         12    1    1    2    0    0  0.92281106270E+01  0.22611317448E+02  0.20501029773E+02  0.31886077279E+02  0.00000000000E+00 0. -1.
         11    1    3    3    0    0 -0.61441125990E+00  0.61793073053E+01 -0.22493088228E+00  0.62138501859E+01  0.51100000000E-03 0. -1.
        -11    1    3    3    0    0  0.31271599283E+01 -0.22048333865E+01 -0.23534111003E+02  0.23843128998E+02  0.51100000000E-03 0.  1.
         12    1    3    3    0    0 -0.11740859295E+02 -0.26585791367E+02  0.32580121118E+01  0.29244943537E+02  0.00000000000E+00 0. -1.
</event>
<event>
 7    1  0.3449603E-013  0.5930196E+02  0.7816164E-02  0.1266605E+00
        -11   -1    0    0    0    0  0.00000000000E+00  0.00000000000E+00  0.45593999997E+02  0.45594000000E+02  0.51100000000E-03 0. -1.
         11   -1    0    0    0    0 -0.00000000000E+00 -0.00000000000E+00 -0.45593999997E+02  0.45594000000E+02  0.51100000000E-03 0.  1.
    9900012    2    1    2    0    0 -0.97464408780E+01  0.20289456606E+02 -0.22584604352E+02  0.59301960533E+02  0.50000030101E+02 0.  0.
         12    1    1    2    0    0  0.97464408780E+01 -0.20289456606E+02  0.22584604352E+02  0.31886039467E+02  0.00000000000E+00 0. -1.
         11    1    3    3    0    0 -0.14903457270E+02 -0.81118483336E+01 -0.22365994922E+01  0.17114832735E+02  0.51100000000E-03 0. -1.
        -11    1    3    3    0    0 -0.20568350830E+01  0.12865138630E+02  0.28635021854E+01  0.13339490528E+02  0.51100000000E-03 0.  1.
         12    1    3    3    0    0  0.72138514753E+01  0.15536166310E+02 -0.23211507045E+02  0.28847637269E+02  0.00000000000E+00 0. -1.
</event>
<event>
 7    1  0.3449603E-013  0.5930193E+02  0.7816164E-02  0.1266605E+00
        -11   -1    0    0    0    0  0.00000000000E+00  0.00000000000E+00  0.45593999997E+02  0.45594000000E+02  0.51100000000E-03 0. -1.
         11   -1    0    0    0    0 -0.00000000000E+00 -0.00000000000E+00 -0.45593999997E+02  0.45594000000E+02  0.51100000000E-03 0.  1.
    9900012    2    1    2    0    0  0.29634407543E+02  0.97638384369E+01 -0.65719655904E+01  0.59301931206E+02  0.49999976616E+02 0.  0.
         12    1    1    2    0    0 -0.29634407543E+02 -0.97638384369E+01  0.65719655904E+01  0.31886068794E+02  0.00000000000E+00 0. -1.
         11    1    3    3    0    0 -0.14062102716E+01  0.76988173544E+01 -0.72076011374E+01  0.10639489198E+02  0.51100000000E-03 0. -1.
        -11    1    3    3    0    0  0.32297870242E+02  0.11462864523E+02 -0.86974045021E+01  0.35358090030E+02  0.51100000000E-03 0.  1.
         12    1    3    3    0    0 -0.12572524275E+01 -0.93978434401E+01  0.93330400491E+01  0.13304351978E+02  0.00000000000E+00 0. -1.
</event>
<event>
 7    1  0.3449603E-013  0.5930194E+02  0.7816164E-02  0.1266605E+00
        -11   -1    0    0    0    0  0.00000000000E+00  0.00000000000E+00  0.45593999997E+02  0.45594000000E+02  0.51100000000E-03 0.  1.
         11   -1    0    0    0    0 -0.00000000000E+00 -0.00000000000E+00 -0.45593999997E+02  0.45594000000E+02  0.51100000000E-03 0. -1.
    9900012    2    1    2    0    0  0.12808279280E+02 -0.21668336327E+02  0.19574262221E+02  0.59301944132E+02  0.50000000191E+02 0.  0.
         12    1    1    2    0    0 -0.12808279280E+02  0.21668336327E+02 -0.19574262221E+02  0.31886055868E+02  0.00000000000E+00 0. -1.
         11    1    3    3    0    0  0.78071440970E+00  0.54226800061E+01 -0.28783053450E+00  0.54861480217E+01  0.51100000000E-03 0. -1.
        -11    1    3    3    0    0  0.20182077252E+01  0.86797240353E+01  0.13431045842E+02  0.16118429341E+02  0.51100000000E-03 0.  1.
         12    1    3    3    0    0  0.10009357145E+02 -0.35770740368E+02  0.64310469138E+01  0.37697366770E+02  0.00000000000E+00 0. -1.
</event>
<event>
 7    1  0.3449603E-013  0.5930195E+02  0.7816164E-02  0.1266605E+00
        -11   -1    0    0    0    0  0.00000000000E+00  0.00000000000E+00  0.45593999997E+02  0.45594000000E+02  0.51100000000E-03 0. -1.
         11   -1    0    0    0    0 -0.00000000000E+00 -0.00000000000E+00 -0.45593999997E+02  0.45594000000E+02  0.51100000000E-03 0.  1.
    9900012    2    1    2    0    0 -0.14344150786E+02  0.15083768512E+02 -0.24154616402E+02  0.59301949322E+02  0.50000009656E+02 0.  0.
         12    1    1    2    0    0  0.14344150786E+02 -0.15083768512E+02  0.24154616402E+02  0.31886050678E+02  0.00000000000E+00 0. -1.
         11    1    3    3    0    0 -0.25984128561E+02  0.66685258264E+01 -0.57975801587E+01  0.27445511650E+02  0.51100000000E-03 0. -1.
        -11    1    3    3    0    0 -0.52083160098E+01  0.16016557973E-01 -0.99666905385E+01  0.11245520563E+02  0.51100000000E-03 0.  1.
        -12    1    3    3    0    0  0.16848293785E+02  0.83992261276E+01 -0.83903457049E+01  0.20610917109E+02  0.00000000000E+00 0.  1.
</event>
<event>
 7    1  0.3449603E-013  0.5930195E+02  0.7816164E-02  0.1266605E+00
        -11   -1    0    0    0    0  0.00000000000E+00  0.00000000000E+00  0.45593999997E+02  0.45594000000E+02  0.51100000000E-03 0.  1.
         11   -1    0    0    0    0 -0.00000000000E+00 -0.00000000000E+00 -0.45593999997E+02  0.45594000000E+02  0.51100000000E-03 0. -1.
    9900012    2    1    2    0    0  0.19524705226E+02 -0.25199910098E+02 -0.68615323881E+00  0.59301946789E+02  0.50000005036E+02 0.  0.
         12    1    1    2    0    0 -0.19524705226E+02  0.25199910098E+02  0.68615323881E+00  0.31886053211E+02  0.00000000000E+00 0. -1.
         11    1    3    3    0    0  0.18728612927E+02 -0.80974688044E+01  0.21076590884E+01  0.20512731908E+02  0.51100000000E-03 0. -1.
        -11    1    3    3    0    0  0.17622155593E+02 -0.64439926882E+01 -0.17307925548E+01  0.18843063781E+02  0.51100000000E-03 0.  1.
        -12    1    3    3    0    0 -0.16826063295E+02 -0.10658448606E+02 -0.10630197723E+01  0.19946151100E+02  0.00000000000E+00 0.  1.
</event>
<event>
 7    1  0.3449603E-013  0.5930193E+02  0.7816164E-02  0.1266605E+00
        -11   -1    0    0    0    0  0.00000000000E+00  0.00000000000E+00  0.45593999997E+02  0.45594000000E+02  0.51100000000E-03 0. -1.
         11   -1    0    0    0    0 -0.00000000000E+00 -0.00000000000E+00 -0.45593999997E+02  0.45594000000E+02  0.51100000000E-03 0.  1.
    9900012    2    1    2    0    0  0.17577828303E+02  0.58102919225E+00 -0.26597061290E+02  0.59301932321E+02  0.49999978649E+02 0.  0.
         12    1    1    2    0    0 -0.17577828303E+02 -0.58102919225E+00  0.26597061290E+02  0.31886067679E+02  0.00000000000E+00 0. -1.
         11    1    3    3    0    0  0.32288808732E+01  0.69077189350E+01 -0.10695332284E+02  0.13135158374E+02  0.51100000000E-03 0. -1.
        -11    1    3    3    0    0  0.12366188201E+02  0.16197269776E+02 -0.10478303319E+02  0.22914384118E+02  0.51100000000E-03 0.  1.
         12    1    3    3    0    0  0.19827592287E+01 -0.22523959519E+02 -0.54234256873E+01  0.23252389829E+02  0.00000000000E+00 0. -1.
</event>
<event>
 7    1  0.3449603E-013  0.5930193E+02  0.7816164E-02  0.1266605E+00
        -11   -1    0    0    0    0  0.00000000000E+00  0.00000000000E+00  0.45593999997E+02  0.45594000000E+02  0.51100000000E-03 0. -1.
         11   -1    0    0    0    0 -0.00000000000E+00 -0.00000000000E+00 -0.45593999997E+02  0.45594000000E+02  0.51100000000E-03 0.  1.
    9900012    2    1    2    0    0  0.25755821816E+02  0.18351456185E+02 -0.40722660833E+01  0.59301926981E+02  0.49999968911E+02 0.  0.
         12    1    1    2    0    0 -0.25755821816E+02 -0.18351456185E+02  0.40722660833E+01  0.31886073019E+02  0.00000000000E+00 0. -1.
         11    1    3    3    0    0 -0.34701221241E+01  0.10218863499E+01  0.58288012601E+01  0.68600964760E+01  0.51100000000E-03 0. -1.
        -11    1    3    3    0    0 -0.69247299385E+00  0.14203753390E+02  0.90804243048E+01  0.16872469737E+02  0.51100000000E-03 0.  1.
         12    1    3    3    0    0  0.29918416934E+02  0.31258164447E+01 -0.18981491648E+02  0.35569360768E+02  0.00000000000E+00 0. -1.
</event>
<event>
 7    1  0.3449603E-013  0.5930196E+02  0.7816164E-02  0.1266605E+00
        -11   -1    0    0    0    0  0.00000000000E+00  0.00000000000E+00  0.45593999997E+02  0.45594000000E+02  0.51100000000E-03 0. -1.
         11   -1    0    0    0    0 -0.00000000000E+00 -0.00000000000E+00 -0.45593999997E+02  0.45594000000E+02  0.51100000000E-03 0.  1.
    9900012    2    1    2    0    0 -0.13625064266E+02  0.14940919419E+02 -0.24654536576E+02  0.59301958804E+02  0.50000026948E+02 0.  0.
         12    1    1    2    0    0  0.13625064266E+02 -0.14940919419E+02  0.24654536576E+02  0.31886041196E+02  0.00000000000E+00 0. -1.
         11    1    3    3    0    0 -0.10301561239E+02  0.15589605281E+02 -0.25397045451E+01  0.18857572914E+02  0.51100000000E-03 0. -1.
        -11    1    3    3    0    0 -0.46204700085E+01  0.10432088687E+02  0.39647274655E+01  0.12078753313E+02  0.51100000000E-03 0.  1.
         12    1    3    3    0    0  0.12969669808E+01 -0.11080774548E+02 -0.26079559497E+02  0.28365632577E+02  0.00000000000E+00 0. -1.
</event>
<event>
 7    1  0.3449603E-013  0.5930195E+02  0.7816164E-02  0.1266605E+00
        -11   -1    0    0    0    0  0.00000000000E+00  0.00000000000E+00  0.45593999997E+02  0.45594000000E+02  0.51100000000E-03 0. -1.
         11   -1    0    0    0    0 -0.00000000000E+00 -0.00000000000E+00 -0.45593999997E+02  0.45594000000E+02  0.51100000000E-03 0.  1.
    9900012    2    1    2    0    0  0.41268380200E+01 -0.17966529144E+02 -0.26017171745E+02  0.59301949960E+02  0.50000010820E+02 0.  0.
         12    1    1    2    0    0 -0.41268380200E+01  0.17966529144E+02  0.26017171745E+02  0.31886050040E+02  0.00000000000E+00 0. -1.
         11    1    3    3    0    0  0.13658989707E+02 -0.18703116385E+02  0.79848002149E+00  0.23173522238E+02  0.51100000000E-03 0. -1.
        -11    1    3    3    0    0  0.15627547669E+00  0.81027539532E+01 -0.17890776076E+01  0.82993880858E+01  0.51100000000E-03 0.  1.
        -12    1    3    3    0    0 -0.96884271640E+01 -0.73661667127E+01 -0.25026574159E+02  0.27829039636E+02  0.00000000000E+00 0.  1.
</event>
<event>
 7    1  0.3449603E-013  0.5930195E+02  0.7816164E-02  0.1266605E+00
        -11   -1    0    0    0    0  0.00000000000E+00  0.00000000000E+00  0.45593999997E+02  0.45594000000E+02  0.51100000000E-03 0.  1.
         11   -1    0    0    0    0 -0.00000000000E+00 -0.00000000000E+00 -0.45593999997E+02  0.45594000000E+02  0.51100000000E-03 0. -1.
    9900012    2    1    2    0    0  0.13529066171E+02 -0.20182480437E+02  0.20648299643E+02  0.59301946212E+02  0.50000003984E+02 0.  0.
         12    1    1    2    0    0 -0.13529066171E+02  0.20182480437E+02 -0.20648299643E+02  0.31886053788E+02  0.00000000000E+00 0. -1.
         11    1    3    3    0    0  0.53337029146E+01 -0.14627848382E+02  0.83454043221E+01  0.17665449574E+02  0.51100000000E-03 0. -1.
        -11    1    3    3    0    0 -0.72452225822E+01  0.40902872696E+01  0.20158932162E+02  0.21808398528E+02  0.51100000000E-03 0.  1.
         12    1    3    3    0    0  0.15440585839E+02 -0.96449193242E+01 -0.78560368412E+01  0.19828098110E+02  0.00000000000E+00 0. -1.
</event>
<event>
 7    1  0.3449603E-013  0.5930223E+02  0.7816164E-02  0.1266604E+00
        -11   -1    0    0    0    0  0.00000000000E+00  0.00000000000E+00  0.45593999997E+02  0.45594000000E+02  0.51100000000E-03 0.  1.
         11   -1    0    0    0    0 -0.00000000000E+00 -0.00000000000E+00 -0.45593999997E+02  0.45594000000E+02  0.51100000000E-03 0. -1.
    9900012    2    1    2    0    0 -0.31355238604E+02 -0.57829582237E+01  0.33009495865E+00  0.59302226426E+02  0.50000515023E+02 0.  0.
         12    1    1    2    0    0  0.31355238604E+02  0.57829582237E+01 -0.33009495865E+00  0.31885773574E+02  0.00000000000E+00 0. -1.
         11    1    3    3    0    0 -0.25201723128E+02  0.65379634087E+01 -0.18443611961E+02  0.31906717734E+02  0.51100000000E-03 0. -1.
        -11    1    3    3    0    0 -0.46938231682E+01 -0.20064325472E+00 -0.34598695234E+00  0.47108322919E+01  0.51100000000E-03 0.  1.
        -12    1    3    3    0    0 -0.14596923082E+01 -0.12120278378E+02  0.19119693872E+02  0.22684676399E+02  0.00000000000E+00 0.  1.
</event>
<event>
 7    1  0.3449603E-013  0.5930196E+02  0.7816164E-02  0.1266605E+00
        -11   -1    0    0    0    0  0.00000000000E+00  0.00000000000E+00  0.45593999997E+02  0.45594000000E+02  0.51100000000E-03 0.  1.
         11   -1    0    0    0    0 -0.00000000000E+00 -0.00000000000E+00 -0.45593999997E+02  0.45594000000E+02  0.51100000000E-03 0. -1.
    9900012    2    1    2    0    0 -0.13394865955E+02 -0.22668975178E+02  0.17983734476E+02  0.59301959555E+02  0.50000028318E+02 0.  0.
         12    1    1    2    0    0  0.13394865955E+02  0.22668975178E+02 -0.17983734476E+02  0.31886040445E+02  0.00000000000E+00 0. -1.
         11    1    3    3    0    0 -0.11344091062E+02 -0.22868642687E+02 -0.32531015938E+01  0.25734138622E+02  0.51100000000E-03 0. -1.
        -11    1    3    3    0    0 -0.81066036503E+01 -0.10258967945E+02  0.15227404441E+02  0.20070806967E+02  0.51100000000E-03 0.  1.
        -12    1    3    3    0    0  0.60558287575E+01  0.10458635454E+02  0.60094316291E+01  0.13497013966E+02  0.00000000000E+00 0.  1.
</event>
<event>
 7    1  0.3449603E-013  0.5930191E+02  0.7816164E-02  0.1266605E+00
        -11   -1    0    0    0    0  0.00000000000E+00  0.00000000000E+00  0.45593999997E+02  0.45594000000E+02  0.51100000000E-03 0.  1.
         11   -1    0    0    0    0 -0.00000000000E+00 -0.00000000000E+00 -0.45593999997E+02  0.45594000000E+02  0.51100000000E-03 0. -1.
    9900012    2    1    2    0    0  0.29767792761E+02 -0.10051968741E+02  0.54368291052E+01  0.59301910993E+02  0.49999939753E+02 0.  0.
         12    1    1    2    0    0 -0.29767792761E+02  0.10051968741E+02 -0.54368291052E+01  0.31886089007E+02  0.00000000000E+00 0. -1.
         11    1    3    3    0    0  0.15922688191E+02  0.63273443723E+01  0.12895488443E+02  0.21444367756E+02  0.51100000000E-03 0. -1.
        -11    1    3    3    0    0 -0.84104203160E+01 -0.36636827105E+01  0.37132013154E+01  0.98967472012E+01  0.51100000000E-03 0.  1.
        -12    1    3    3    0    0  0.22255524886E+02 -0.12715630403E+02 -0.11171860653E+02  0.27960796036E+02  0.00000000000E+00 0.  1.
</event>
<event>
 7    1  0.3449603E-013  0.5930191E+02  0.7816164E-02  0.1266605E+00
        -11   -1    0    0    0    0  0.00000000000E+00  0.00000000000E+00  0.45593999997E+02  0.45594000000E+02  0.51100000000E-03 0. -1.
         11   -1    0    0    0    0 -0.00000000000E+00 -0.00000000000E+00 -0.45593999997E+02  0.45594000000E+02  0.51100000000E-03 0.  1.
    9900012    2    1    2    0    0  0.27367852841E+01  0.17146512945E+02 -0.26743783159E+02  0.59301908400E+02  0.49999935023E+02 0.  0.
         12    1    1    2    0    0 -0.27367852841E+01 -0.17146512945E+02  0.26743783159E+02  0.31886091600E+02  0.00000000000E+00 0. -1.
         11    1    3    3    0    0 -0.43764429007E+01  0.57516949355E+01  0.68428330774E+01  0.99528695299E+01  0.51100000000E-03 0. -1.
        -11    1    3    3    0    0  0.16312652878E+02 -0.49828986750E-01 -0.47516862704E+01  0.16990693026E+02  0.51100000000E-03 0.  1.
        -12    1    3    3    0    0 -0.91994246930E+01  0.11444646997E+02 -0.28834929966E+02  0.32358345843E+02  0.00000000000E+00 0.  1.
</event>
<event>
 7    1  0.3449603E-013  0.5930193E+02  0.7816164E-02  0.1266605E+00
        -11   -1    0    0    0    0  0.00000000000E+00  0.00000000000E+00  0.45593999997E+02  0.45594000000E+02  0.51100000000E-03 0.  1.
         11   -1    0    0    0    0 -0.00000000000E+00 -0.00000000000E+00 -0.45593999997E+02  0.45594000000E+02  0.51100000000E-03 0. -1.
    9900012    2    1    2    0    0 -0.29575552180E+02 -0.22631039563E+01 -0.11699841745E+02  0.59301933716E+02  0.49999981193E+02 0.  0.
         12    1    1    2    0    0  0.29575552180E+02  0.22631039563E+01  0.11699841745E+02  0.31886066284E+02  0.00000000000E+00 0. -1.
         11    1    3    3    0    0 -0.15920083988E+01 -0.42163686994E+01 -0.60531029741E+00  0.45473790878E+01  0.51100000000E-03 0.  1.
        -11    1    3    3    0    0  0.92171924662E+00 -0.16559908919E+02 -0.11910618579E+02  0.20419181790E+02  0.51100000000E-03 0. -1.
        -12    1    3    3    0    0 -0.28905263027E+02  0.18513173662E+02  0.81608713164E+00  0.34335372838E+02  0.00000000000E+00 0.  1.
</event>
<event>
 7    1  0.3449603E-013  0.5930194E+02  0.7816164E-02  0.1266605E+00
        -11   -1    0    0    0    0  0.00000000000E+00  0.00000000000E+00  0.45593999997E+02  0.45594000000E+02  0.51100000000E-03 0.  1.
         11   -1    0    0    0    0 -0.00000000000E+00 -0.00000000000E+00 -0.45593999997E+02  0.45594000000E+02  0.51100000000E-03 0. -1.
    9900012    2    1    2    0    0  0.24747334621E+02  0.17423276351E+02  0.10035907215E+02  0.59301944062E+02  0.50000000062E+02 0.  0.
         12    1    1    2    0    0 -0.24747334621E+02 -0.17423276351E+02 -0.10035907215E+02  0.31886055938E+02  0.00000000000E+00 0. -1.
         11    1    3    3    0    0  0.26215421826E+01  0.14943413570E+02  0.56704873815E+01  0.16196682374E+02  0.51100000000E-03 0. -1.
        -11    1    3    3    0    0 -0.54915571270E+00  0.16155569966E+02  0.38660601399E+01  0.16620783200E+02  0.51100000000E-03 0.  1.
        -12    1    3    3    0    0  0.22674948151E+02 -0.13675707184E+02  0.49935969354E+00  0.26484478487E+02  0.00000000000E+00 0.  1.
</event>
<event>
 7    1  0.3449603E-013  0.5930196E+02  0.7816164E-02  0.1266605E+00
        -11   -1    0    0    0    0  0.00000000000E+00  0.00000000000E+00  0.45593999997E+02  0.45594000000E+02  0.51100000000E-03 0. -1.
         11   -1    0    0    0    0 -0.00000000000E+00 -0.00000000000E+00 -0.45593999997E+02  0.45594000000E+02  0.51100000000E-03 0.  1.
    9900012    2    1    2    0    0  0.28160902408E+02  0.12104710592E+02  0.87840377090E+01  0.59301956636E+02  0.50000022994E+02 0.  0.
         12    1    1    2    0    0 -0.28160902408E+02 -0.12104710592E+02 -0.87840377090E+01  0.31886043364E+02  0.00000000000E+00 0. -1.
         11    1    3    3    0    0  0.13262563038E+02  0.23514532370E+02  0.13671620830E+02  0.30261229772E+02  0.51100000000E-03 0. -1.
        -11    1    3    3    0    0  0.44867623345E+01  0.61305877045E+01 -0.40885551105E+01  0.86273648932E+01  0.51100000000E-03 0.  1.
         12    1    3    3    0    0  0.10411577035E+02 -0.17540409483E+02 -0.79902801050E+00  0.20413361970E+02  0.00000000000E+00 0. -1.
</event>
<event>
 7    1  0.3449603E-013  0.5930192E+02  0.7816164E-02  0.1266605E+00
        -11   -1    0    0    0    0  0.00000000000E+00  0.00000000000E+00  0.45593999997E+02  0.45594000000E+02  0.51100000000E-03 0. -1.
         11   -1    0    0    0    0 -0.00000000000E+00 -0.00000000000E+00 -0.45593999997E+02  0.45594000000E+02  0.51100000000E-03 0.  1.
    9900012    2    1    2    0    0 -0.14556420780E+02  0.10148387949E+02  0.26492317000E+02  0.59301921158E+02  0.49999958291E+02 0.  0.
         12    1    1    2    0    0  0.14556420780E+02 -0.10148387949E+02 -0.26492317000E+02  0.31886078842E+02  0.00000000000E+00 0. -1.
         11    1    3    3    0    0  0.11852892409E+02  0.23207076035E+01  0.83476602570E+01  0.14681967656E+02  0.51100000000E-03 0. -1.
        -11    1    3    3    0    0  0.55045443969E+01 -0.27020451702E+01 -0.56287331710E+00  0.61577498935E+01  0.51100000000E-03 0.  1.
        -12    1    3    3    0    0 -0.31913857585E+02  0.10529725515E+02  0.18707530061E+02  0.38462203608E+02  0.00000000000E+00 0.  1.
</event>
<event>
 7    1  0.3449603E-013  0.5930193E+02  0.7816164E-02  0.1266605E+00
        -11   -1    0    0    0    0  0.00000000000E+00  0.00000000000E+00  0.45593999997E+02  0.45594000000E+02  0.51100000000E-03 0. -1.
         11   -1    0    0    0    0 -0.00000000000E+00 -0.00000000000E+00 -0.45593999997E+02  0.45594000000E+02  0.51100000000E-03 0.  1.
    9900012    2    1    2    0    0  0.88160010354E+01  0.18996403875E+02 -0.24044469825E+02  0.59301925240E+02  0.49999965737E+02 0.  0.
         12    1    1    2    0    0 -0.88160010354E+01 -0.18996403875E+02  0.24044469825E+02  0.31886074760E+02  0.00000000000E+00 0. -1.
         11    1    3    3    0    0  0.32597521940E+00  0.13481504582E+01  0.64245914673E+01  0.65726056693E+01  0.51100000000E-03 0. -1.
        -11    1    3    3    0    0  0.22468299942E+02  0.57636100860E+01 -0.23728631687E+02  0.33182701299E+02  0.51100000000E-03 0.  1.
        -12    1    3    3    0    0 -0.13978274126E+02  0.11884643330E+02 -0.67404296052E+01  0.19546618272E+02  0.00000000000E+00 0.  1.
</event>
<event>
 7    1  0.3449603E-013  0.5930197E+02  0.7816164E-02  0.1266605E+00
        -11   -1    0    0    0    0  0.00000000000E+00  0.00000000000E+00  0.45593999997E+02  0.45594000000E+02  0.51100000000E-03 0.  1.
         11   -1    0    0    0    0 -0.00000000000E+00 -0.00000000000E+00 -0.45593999997E+02  0.45594000000E+02  0.51100000000E-03 0. -1.
    9900012    2    1    2    0    0  0.25802627493E+02 -0.72139609744E+00  0.18719581552E+02  0.59301972788E+02  0.50000052452E+02 0.  0.
         12    1    1    2    0    0 -0.25802627493E+02  0.72139609744E+00 -0.18719581552E+02  0.31886027212E+02  0.00000000000E+00 0. -1.
         11    1    3    3    0    0 -0.58084129075E+01 -0.12675258354E+02  0.37570664709E+01  0.14440061758E+02  0.51100000000E-03 0. -1.
        -11    1    3    3    0    0 -0.22533098203E+01 -0.22822707752E+01 -0.26149185483E+01  0.41381112012E+01  0.51100000000E-03 0.  1.
        -12    1    3    3    0    0  0.33864350221E+02  0.14236133031E+02  0.17577433630E+02  0.40723799829E+02  0.00000000000E+00 0.  1.
</event>
<event>
 7    1  0.3449603E-013  0.5930195E+02  0.7816164E-02  0.1266605E+00
        -11   -1    0    0    0    0  0.00000000000E+00  0.00000000000E+00  0.45593999997E+02  0.45594000000E+02  0.51100000000E-03 0.  1.
         11   -1    0    0    0    0 -0.00000000000E+00 -0.00000000000E+00 -0.45593999997E+02  0.45594000000E+02  0.51100000000E-03 0. -1.
    9900012    2    1    2    0    0  0.34681355318E+01  0.10599734183E+02  0.29872019776E+02  0.59301954552E+02  0.50000019194E+02 0.  0.
         12    1    1    2    0    0 -0.34681355318E+01 -0.10599734183E+02 -0.29872019776E+02  0.31886045448E+02  0.00000000000E+00 0. -1.
         11    1    3    3    0    0 -0.12025643648E+02 -0.18999692716E+01  0.98111154920E+00  0.12214277241E+02  0.51100000000E-03 0. -1.
        -11    1    3    3    0    0  0.34607111240E+00 -0.80927589193E+01  0.17129495049E+02  0.18948142733E+02  0.51100000000E-03 0.  1.
         12    1    3    3    0    0  0.15147708068E+02  0.20592462374E+02  0.11761413178E+02  0.28139534578E+02  0.00000000000E+00 0. -1.
</event>
<event>
 7    1  0.3449603E-013  0.5930193E+02  0.7816164E-02  0.1266605E+00
        -11   -1    0    0    0    0  0.00000000000E+00  0.00000000000E+00  0.45593999997E+02  0.45594000000E+02  0.51100000000E-03 0. -1.
         11   -1    0    0    0    0 -0.00000000000E+00 -0.00000000000E+00 -0.45593999997E+02  0.45594000000E+02  0.51100000000E-03 0.  1.
    9900012    2    1    2    0    0 -0.11142003939E+02  0.23139276391E+01 -0.29786288114E+02  0.59301929804E+02  0.49999974060E+02 0.  0.
         12    1    1    2    0    0  0.11142003939E+02 -0.23139276391E+01  0.29786288114E+02  0.31886070196E+02  0.00000000000E+00 0. -1.
         11    1    3    3    0    0  0.54103876173E+01 -0.39566768858E+01  0.38456097740E+01  0.77276322987E+01  0.51100000000E-03 0. -1.
        -11    1    3    3    0    0  0.92203423529E+01  0.92880378717E+01 -0.99045768676E+01  0.16412891391E+02  0.51100000000E-03 0.  1.
        -12    1    3    3    0    0 -0.25772733909E+02 -0.30174333468E+01 -0.23727321021E+02  0.35161406115E+02  0.00000000000E+00 0.  1.
</event>
<event>
 7    1  0.3449603E-013  0.5930196E+02  0.7816164E-02  0.1266605E+00
        -11   -1    0    0    0    0  0.00000000000E+00  0.00000000000E+00  0.45593999997E+02  0.45594000000E+02  0.51100000000E-03 0.  1.
         11   -1    0    0    0    0 -0.00000000000E+00 -0.00000000000E+00 -0.45593999997E+02  0.45594000000E+02  0.51100000000E-03 0. -1.
    9900012    2    1    2    0    0 -0.58346037472E+01  0.27755770390E+02 -0.14570323611E+02  0.59301957271E+02  0.50000024152E+02 0.  0.
         12    1    1    2    0    0  0.58346037472E+01 -0.27755770390E+02  0.14570323611E+02  0.31886042729E+02  0.00000000000E+00 0. -1.
         11    1    3    3    0    0  0.91633976680E+01 -0.95536709834E+01  0.10361064110E+01  0.13278328315E+02  0.51100000000E-03 0. -1.
        -11    1    3    3    0    0  0.11218657287E+01 -0.10965887534E+01 -0.75927024018E-01  0.15706224185E+01  0.51100000000E-03 0.  1.
        -12    1    3    3    0    0 -0.16119867144E+02  0.38406030126E+02 -0.15530502998E+02  0.44453006537E+02  0.00000000000E+00 0.  1.
</event>
<event>
 7    1  0.3449603E-013  0.5930184E+02  0.7816164E-02  0.1266605E+00
        -11   -1    0    0    0    0  0.00000000000E+00  0.00000000000E+00  0.45593999997E+02  0.45594000000E+02  0.51100000000E-03 0.  1.
         11   -1    0    0    0    0 -0.00000000000E+00 -0.00000000000E+00 -0.45593999997E+02  0.45594000000E+02  0.51100000000E-03 0. -1.
    9900012    2    1    2    0    0 -0.26555811704E+02  0.11657101413E+02  0.13252483092E+02  0.59301835968E+02  0.49999802925E+02 0.  0.
         12    1    1    2    0    0  0.26555811704E+02 -0.11657101413E+02 -0.13252483092E+02  0.31886164032E+02  0.00000000000E+00 0. -1.
         11    1    3    3    0    0 -0.70737997821E+01 -0.27338523149E+01 -0.23398491127E-02  0.75837060579E+01  0.51100000000E-03 0.  1.
        -11    1    3    3    0    0 -0.29550027788E+02  0.18162785072E+02  0.18978369710E+02  0.39538202045E+02  0.51100000000E-03 0. -1.
         12    1    3    3    0    0  0.10068015867E+02 -0.37718313442E+01 -0.57235467687E+01  0.12179927865E+02  0.00000000000E+00 0. -1.
</event>
<event>
 7    1  0.3449603E-013  0.5930196E+02  0.7816164E-02  0.1266605E+00
        -11   -1    0    0    0    0  0.00000000000E+00  0.00000000000E+00  0.45593999997E+02  0.45594000000E+02  0.51100000000E-03 0. -1.
         11   -1    0    0    0    0 -0.00000000000E+00 -0.00000000000E+00 -0.45593999997E+02  0.45594000000E+02  0.51100000000E-03 0.  1.
    9900012    2    1    2    0    0  0.21523189344E+02 -0.43131695900E+01 -0.23127219633E+02  0.59301962313E+02  0.50000033347E+02 0.  0.
         12    1    1    2    0    0 -0.21523189344E+02  0.43131695900E+01  0.23127219633E+02  0.31886037687E+02  0.00000000000E+00 0. -1.
         11    1    3    3    0    0  0.83033758956E+01  0.52925270236E+01 -0.25809248095E+02  0.27623797368E+02  0.51100000000E-03 0. -1.
        -11    1    3    3    0    0  0.12437241589E+02  0.50364845695E+01  0.85210454722E+01  0.15895262544E+02  0.51100000000E-03 0.  1.
         12    1    3    3    0    0  0.78257185939E+00 -0.14642181183E+02 -0.58390170106E+01  0.15782902400E+02  0.00000000000E+00 0. -1.
</event>
<event>
 7    1  0.3449603E-013  0.5930195E+02  0.7816164E-02  0.1266605E+00
        -11   -1    0    0    0    0  0.00000000000E+00  0.00000000000E+00  0.45593999997E+02  0.45594000000E+02  0.51100000000E-03 0.  1.
         11   -1    0    0    0    0 -0.00000000000E+00 -0.00000000000E+00 -0.45593999997E+02  0.45594000000E+02  0.51100000000E-03 0. -1.
    9900012    2    1    2    0    0  0.11726331427E+02 -0.27776251740E+02 -0.10377537646E+02  0.59301948237E+02  0.50000007676E+02 0.  0.
         12    1    1    2    0    0 -0.11726331427E+02  0.27776251740E+02  0.10377537646E+02  0.31886051763E+02  0.00000000000E+00 0. -1.
         11    1    3    3    0    0  0.13107447072E+02 -0.43586165712E+01 -0.13851710689E+02  0.19562019232E+02  0.51100000000E-03 0. -1.
        -11    1    3    3    0    0  0.12914357998E+02 -0.70777410248E+01  0.91010231985E+01  0.17311952057E+02  0.51100000000E-03 0.  1.
        -12    1    3    3    0    0 -0.14295473642E+02 -0.16339894144E+02 -0.56268501552E+01  0.22427976948E+02  0.00000000000E+00 0.  1.
</event>
<event>
 7    1  0.3449603E-013  0.5930200E+02  0.7816164E-02  0.1266605E+00
        -11   -1    0    0    0    0  0.00000000000E+00  0.00000000000E+00  0.45593999997E+02  0.45594000000E+02  0.51100000000E-03 0. -1.
         11   -1    0    0    0    0 -0.00000000000E+00 -0.00000000000E+00 -0.45593999997E+02  0.45594000000E+02  0.51100000000E-03 0.  1.
    9900012    2    1    2    0    0 -0.21195441238E+02 -0.94687228752E+01 -0.21858950660E+02  0.59301997333E+02  0.50000097215E+02 0.  0.
         12    1    1    2    0    0  0.21195441238E+02  0.94687228752E+01  0.21858950660E+02  0.31886002667E+02  0.00000000000E+00 0. -1.
         11    1    3    3    0    0  0.74166007345E+01  0.87722365595E+00 -0.78484353066E+01  0.10833901643E+02  0.51100000000E-03 0. -1.
        -11    1    3    3    0    0 -0.60798795095E+01  0.11651864212E+02 -0.10424187603E+02  0.16774819281E+02  0.51100000000E-03 0.  1.
        -12    1    3    3    0    0 -0.22532162463E+02 -0.21997810743E+02 -0.35863277504E+01  0.31693276408E+02  0.00000000000E+00 0.  1.
</event>
<event>
 7    1  0.3449603E-013  0.5930196E+02  0.7816164E-02  0.1266605E+00
        -11   -1    0    0    0    0  0.00000000000E+00  0.00000000000E+00  0.45593999997E+02  0.45594000000E+02  0.51100000000E-03 0.  1.
         11   -1    0    0    0    0 -0.00000000000E+00 -0.00000000000E+00 -0.45593999997E+02  0.45594000000E+02  0.51100000000E-03 0. -1.
    9900012    2    1    2    0    0 -0.17968134399E+02 -0.14867619181E+02  0.21744416551E+02  0.59301959088E+02  0.50000027467E+02 0.  0.
         12    1    1    2    0    0  0.17968134399E+02  0.14867619181E+02 -0.21744416551E+02  0.31886040912E+02  0.00000000000E+00 0. -1.
         11    1    3    3    0    0 -0.56706989156E+01 -0.16642469704E+02 -0.26274517187E+01  0.17777292449E+02  0.51100000000E-03 0. -1.
        -11    1    3    3    0    0  0.59288579873E+00 -0.13174792106E+02  0.13971680484E+02  0.19212873715E+02  0.51100000000E-03 0.  1.
         12    1    3    3    0    0 -0.12890321282E+02  0.14949642629E+02  0.10400187786E+02  0.22311792924E+02  0.00000000000E+00 0. -1.
</event>
<event>
 7    1  0.3449603E-013  0.5930192E+02  0.7816164E-02  0.1266605E+00
        -11   -1    0    0    0    0  0.00000000000E+00  0.00000000000E+00  0.45593999997E+02  0.45594000000E+02  0.51100000000E-03 0.  1.
         11   -1    0    0    0    0 -0.00000000000E+00 -0.00000000000E+00 -0.45593999997E+02  0.45594000000E+02  0.51100000000E-03 0. -1.
    9900012    2    1    2    0    0 -0.31655947974E+02 -0.33142952164E+01  0.19075218731E+01  0.59301917855E+02  0.49999952267E+02 0.  0.
         12    1    1    2    0    0  0.31655947974E+02  0.33142952164E+01 -0.19075218731E+01  0.31886082145E+02  0.00000000000E+00 0. -1.
         11    1    3    3    0    0  0.91688318382E+01 -0.44775541238E+01  0.98573857233E+01  0.14187460018E+02  0.51100000000E-03 0. -1.
        -11    1    3    3    0    0 -0.10834261446E+02 -0.54355438469E+01  0.30443434898E+01  0.12497775223E+02  0.51100000000E-03 0.  1.
        -12    1    3    3    0    0 -0.29990518366E+02  0.65988027543E+01 -0.10994207340E+02  0.32616682613E+02  0.00000000000E+00 0.  1.
</event>
<event>
 7    1  0.3449603E-013  0.5930193E+02  0.7816164E-02  0.1266605E+00
        -11   -1    0    0    0    0  0.00000000000E+00  0.00000000000E+00  0.45593999997E+02  0.45594000000E+02  0.51100000000E-03 0.  1.
         11   -1    0    0    0    0 -0.00000000000E+00 -0.00000000000E+00 -0.45593999997E+02  0.45594000000E+02  0.51100000000E-03 0. -1.
    9900012    2    1    2    0    0  0.15549114310E+02  0.24420912306E+02 -0.13362850623E+02  0.59301926387E+02  0.49999967827E+02 0.  0.
         12    1    1    2    0    0 -0.15549114310E+02 -0.24420912306E+02  0.13362850623E+02  0.31886073613E+02  0.00000000000E+00 0. -1.
         11    1    3    3    0    0  0.45430560595E+01  0.17230874431E+02 -0.25445404653E+02  0.31064626349E+02  0.51100000000E-03 0. -1.
        -11    1    3    3    0    0  0.21876372852E+01 -0.63771028729E+01 -0.17323878095E+01  0.69609170176E+01  0.51100000000E-03 0.  1.
         12    1    3    3    0    0  0.88184209654E+01  0.13567140748E+02  0.13814941839E+02  0.21276383020E+02  0.00000000000E+00 0. -1.
</event>
<event>
 7    1  0.3449603E-013  0.5930185E+02  0.7816164E-02  0.1266605E+00
        -11   -1    0    0    0    0  0.00000000000E+00  0.00000000000E+00  0.45593999997E+02  0.45594000000E+02  0.51100000000E-03 0.  1.
         11   -1    0    0    0    0 -0.00000000000E+00 -0.00000000000E+00 -0.45593999997E+02  0.45594000000E+02  0.51100000000E-03 0. -1.
    9900012    2    1    2    0    0 -0.20795584385E+01  0.29423791728E+02  0.12109594559E+02  0.59301853113E+02  0.49999834193E+02 0.  0.
         12    1    1    2    0    0  0.20795584385E+01 -0.29423791728E+02 -0.12109594559E+02  0.31886146887E+02  0.00000000000E+00 0. -1.
         11    1    3    3    0    0  0.91973061897E+01  0.19081618788E+02 -0.65322248138E+00  0.21192576922E+02  0.51100000000E-03 0. -1.
        -11    1    3    3    0    0  0.74935145890E+01  0.11556147232E+02  0.13499060384E+02  0.19285277578E+02  0.51100000000E-03 0.  1.
         12    1    3    3    0    0 -0.18770379217E+02 -0.12139742919E+01 -0.73624334434E+00  0.18823998613E+02  0.00000000000E+00 0. -1.
</event>
<event>
 7    1  0.4799061E-013  0.5930193E+02  0.7816164E-02  0.1266605E+00
        -11   -1    0    0    0    0  0.00000000000E+00  0.00000000000E+00  0.45593999997E+02  0.45594000000E+02  0.51100000000E-03 0. -1.
         11   -1    0    0    0    0 -0.00000000000E+00 -0.00000000000E+00 -0.45593999997E+02  0.45594000000E+02  0.51100000000E-03 0.  1.
    9900012    2    1    2    0    0 -0.25188034557E+02 -0.13318421111E+02 -0.14314478461E+02  0.59301925934E+02  0.49999967002E+02 0.  0.
         12    1    1    2    0    0  0.25188034557E+02  0.13318421111E+02  0.14314478461E+02  0.31886074066E+02  0.00000000000E+00 0. -1.
         11    1    3    3    0    0 -0.94365903345E+01  0.47139120821E+01 -0.70126475959E+01  0.12666784550E+02  0.51100000000E-03 0. -1.
        -11    1    3    3    0    0 -0.17035706872E+02 -0.22930497187E+02 -0.18713851530E+02  0.34150128100E+02  0.51100000000E-03 0.  1.
         12    1    3    3    0    0  0.12842626500E+01  0.48981639937E+01  0.11412020665E+02  0.12485013285E+02  0.00000000000E+00 0. -1.
</event>
<event>
 7    1  0.3449603E-013  0.5930194E+02  0.7816164E-02  0.1266605E+00
        -11   -1    0    0    0    0  0.00000000000E+00  0.00000000000E+00  0.45593999997E+02  0.45594000000E+02  0.51100000000E-03 0.  1.
         11   -1    0    0    0    0 -0.00000000000E+00 -0.00000000000E+00 -0.45593999997E+02  0.45594000000E+02  0.51100000000E-03 0. -1.
    9900012    2    1    2    0    0 -0.26679911074E+02  0.17424206336E+02  0.11402074679E+01  0.59301942006E+02  0.49999996313E+02 0.  0.
         12    1    1    2    0    0  0.26679911074E+02 -0.17424206336E+02 -0.11402074679E+01  0.31886057994E+02  0.00000000000E+00 0. -1.
         11    1    3    3    0    0 -0.51041639634E+01 -0.10502208980E+02 -0.14549753496E+02  0.18655943028E+02  0.51100000000E-03 0. -1.
        -11    1    3    3    0    0 -0.84152078589E+00 -0.26457009801E-01 -0.15823345371E+01  0.17923839027E+01  0.51100000000E-03 0.  1.
        -12    1    3    3    0    0 -0.20734226325E+02  0.27952872326E+02  0.17272295500E+02  0.38853615075E+02  0.00000000000E+00 0.  1.
</event>
<event>
 7    1  0.3449603E-013  0.5930189E+02  0.7816164E-02  0.1266605E+00
        -11   -1    0    0    0    0  0.00000000000E+00  0.00000000000E+00  0.45593999997E+02  0.45594000000E+02  0.51100000000E-03 0.  1.
         11   -1    0    0    0    0 -0.00000000000E+00 -0.00000000000E+00 -0.45593999997E+02  0.45594000000E+02  0.51100000000E-03 0. -1.
    9900012    2    1    2    0    0  0.12437665195E+02  0.92903280277E+01  0.27851715874E+02  0.59301893504E+02  0.49999907857E+02 0.  0.
         12    1    1    2    0    0 -0.12437665195E+02 -0.92903280277E+01 -0.27851715874E+02  0.31886106496E+02  0.00000000000E+00 0. -1.
         11    1    3    3    0    0 -0.48165179524E+01 -0.42455648861E+01  0.11849894966E+00  0.64216593378E+01  0.51100000000E-03 0. -1.
        -11    1    3    3    0    0 -0.81273954204E+01 -0.82305777006E+01  0.64339956426E+01  0.13236059300E+02  0.51100000000E-03 0.  1.
        -12    1    3    3    0    0  0.25381578568E+02  0.21766470614E+02  0.21299221281E+02  0.39644174866E+02  0.00000000000E+00 0.  1.
</event>
<event>
 7    1  0.3449603E-013  0.5930193E+02  0.7816164E-02  0.1266605E+00
        -11   -1    0    0    0    0  0.00000000000E+00  0.00000000000E+00  0.45593999997E+02  0.45594000000E+02  0.51100000000E-03 0.  1.
         11   -1    0    0    0    0 -0.00000000000E+00 -0.00000000000E+00 -0.45593999997E+02  0.45594000000E+02  0.51100000000E-03 0. -1.
    9900012    2    1    2    0    0 -0.20799465337E+02 -0.36021845236E+00  0.24165552210E+02  0.59301930483E+02  0.49999975297E+02 0.  0.
         12    1    1    2    0    0  0.20799465337E+02  0.36021845236E+00 -0.24165552210E+02  0.31886069517E+02  0.00000000000E+00 0. -1.
         11    1    3    3    0    0 -0.50063710665E+01  0.42519583597E+01 -0.63958404500E+01  0.91678610630E+01  0.51100000000E-03 0. -1.
        -11    1    3    3    0    0 -0.14620309837E+02  0.47011335976E+01 -0.26827439338E+01  0.15590100452E+02  0.51100000000E-03 0.  1.
        -12    1    3    3    0    0 -0.11727844332E+01 -0.93133104096E+01  0.33244136594E+02  0.34543968967E+02  0.00000000000E+00 0.  1.
</event>
<event>
 7    1  0.3449603E-013  0.5930195E+02  0.7816164E-02  0.1266605E+00
        -11   -1    0    0    0    0  0.00000000000E+00  0.00000000000E+00  0.45593999997E+02  0.45594000000E+02  0.51100000000E-03 0.  1.
         11   -1    0    0    0    0 -0.00000000000E+00 -0.00000000000E+00 -0.45593999997E+02  0.45594000000E+02  0.51100000000E-03 0. -1.
    9900012    2    1    2    0    0  0.27334857932E+02 -0.15753426005E+02  0.46211826375E+01  0.59301949476E+02  0.50000009937E+02 0.  0.
         12    1    1    2    0    0 -0.27334857932E+02  0.15753426005E+02 -0.46211826375E+01  0.31886050524E+02  0.00000000000E+00 0. -1.
         11    1    3    3    0    0  0.11517497205E+02 -0.12098762340E+02 -0.93935318692E+01  0.19164321884E+02  0.51100000000E-03 0. -1.
        -11    1    3    3    0    0  0.19764399490E+02 -0.15170205133E+02  0.62103753273E+01  0.25677526613E+02  0.51100000000E-03 0.  1.
        -12    1    3    3    0    0 -0.39470387638E+01  0.11515541468E+02  0.78043391794E+01  0.14460100979E+02  0.00000000000E+00 0.  1.
</event>
<event>
 7    1  0.3449603E-013  0.5930191E+02  0.7816164E-02  0.1266605E+00
        -11   -1    0    0    0    0  0.00000000000E+00  0.00000000000E+00  0.45593999997E+02  0.45594000000E+02  0.51100000000E-03 0. -1.
         11   -1    0    0    0    0 -0.00000000000E+00 -0.00000000000E+00 -0.45593999997E+02  0.45594000000E+02  0.51100000000E-03 0.  1.
    9900012    2    1    2    0    0  0.12114620929E+02  0.18532144880E+02 -0.22945989453E+02  0.59301907952E+02  0.49999934207E+02 0.  0.
         12    1    1    2    0    0 -0.12114620929E+02 -0.18532144880E+02  0.22945989453E+02  0.31886092048E+02  0.00000000000E+00 0. -1.
         11    1    3    3    0    0  0.21828124566E+02 -0.56856968870E+01 -0.19716682101E+02  0.29959000726E+02  0.51100000000E-03 0. -1.
        -11    1    3    3    0    0 -0.81999302519E+00 -0.56106560392E+00 -0.28450200727E+01  0.30135232948E+01  0.51100000000E-03 0.  1.
         12    1    3    3    0    0 -0.88935106116E+01  0.24778907371E+02 -0.38428727915E+00  0.26329383932E+02  0.00000000000E+00 0. -1.
</event>
<event>
 7    1  0.3449603E-013  0.5930193E+02  0.7816164E-02  0.1266605E+00
        -11   -1    0    0    0    0  0.00000000000E+00  0.00000000000E+00  0.45593999997E+02  0.45594000000E+02  0.51100000000E-03 0.  1.
         11   -1    0    0    0    0 -0.00000000000E+00 -0.00000000000E+00 -0.45593999997E+02  0.45594000000E+02  0.51100000000E-03 0. -1.
    9900012    2    1    2    0    0 -0.27773307709E+02 -0.57158755617E+01  0.14584010205E+02  0.59301933949E+02  0.49999981619E+02 0.  0.
         12    1    1    2    0    0  0.27773307709E+02  0.57158755617E+01 -0.14584010205E+02  0.31886066051E+02  0.00000000000E+00 0. -1.
         11    1    3    3    0    0 -0.59204924322E+01 -0.26760235064E+01  0.53071562635E+01  0.83892335950E+01  0.51100000000E-03 0. -1.
        -11    1    3    3    0    0 -0.23955840687E+02  0.36642681152E+01  0.24305330058E+02  0.34322852931E+02  0.51100000000E-03 0.  1.
         12    1    3    3    0    0  0.21030254095E+01 -0.67041201705E+01 -0.15028476116E+02  0.16589847423E+02  0.00000000000E+00 0. -1.
</event>
<event>
 7    1  0.3449603E-013  0.5930196E+02  0.7816164E-02  0.1266605E+00
        -11   -1    0    0    0    0  0.00000000000E+00  0.00000000000E+00  0.45593999997E+02  0.45594000000E+02  0.51100000000E-03 0.  1.
         11   -1    0    0    0    0 -0.00000000000E+00 -0.00000000000E+00 -0.45593999997E+02  0.45594000000E+02  0.51100000000E-03 0. -1.
    9900012    2    1    2    0    0  0.91440856768E+01 -0.29154931157E+02 -0.91156509034E+01  0.59301962224E+02  0.50000033186E+02 0.  0.
         12    1    1    2    0    0 -0.91440856768E+01  0.29154931157E+02  0.91156509034E+01  0.31886037776E+02  0.00000000000E+00 0. -1.
         11    1    3    3    0    0 -0.38491373358E+01 -0.27414366973E+02 -0.10537913751E+02  0.29621124240E+02  0.51100000000E-03 0. -1.
        -11    1    3    3    0    0  0.58453221360E+01 -0.58128139113E+01  0.13050962842E+02  0.15436457748E+02  0.51100000000E-03 0.  1.
         12    1    3    3    0    0  0.71479008766E+01  0.40722497267E+01 -0.11628699994E+02  0.14244380237E+02  0.00000000000E+00 0. -1.
</event>
<event>
 7    1  0.3449603E-013  0.5930195E+02  0.7816164E-02  0.1266605E+00
        -11   -1    0    0    0    0  0.00000000000E+00  0.00000000000E+00  0.45593999997E+02  0.45594000000E+02  0.51100000000E-03 0.  1.
         11   -1    0    0    0    0 -0.00000000000E+00 -0.00000000000E+00 -0.45593999997E+02  0.45594000000E+02  0.51100000000E-03 0. -1.
    9900012    2    1    2    0    0  0.71773103426E+01  0.22854887203E+02  0.21044244455E+02  0.59301954816E+02  0.50000019675E+02 0.  0.
         12    1    1    2    0    0 -0.71773103426E+01 -0.22854887203E+02 -0.21044244455E+02  0.31886045184E+02  0.00000000000E+00 0. -1.
         11    1    3    3    0    0 -0.51502786265E+01  0.23253237883E+02  0.23503201866E+02  0.33461006264E+02  0.51100000000E-03 0. -1.
        -11    1    3    3    0    0 -0.15595847398E+01 -0.91200021642E+01  0.42287907917E-01  0.92524879122E+01  0.51100000000E-03 0.  1.
        -12    1    3    3    0    0  0.13887173709E+02  0.87216514848E+01 -0.25012453195E+01  0.16588460640E+02  0.00000000000E+00 0.  1.
</event>
<event>
 7    1  0.3449603E-013  0.5930195E+02  0.7816164E-02  0.1266605E+00
        -11   -1    0    0    0    0  0.00000000000E+00  0.00000000000E+00  0.45593999997E+02  0.45594000000E+02  0.51100000000E-03 0. -1.
         11   -1    0    0    0    0 -0.00000000000E+00 -0.00000000000E+00 -0.45593999997E+02  0.45594000000E+02  0.51100000000E-03 0.  1.
    9900012    2    1    2    0    0 -0.24485000602E+02 -0.12285702085E+02 -0.16317672649E+02  0.59301950215E+02  0.50000011285E+02 0.  0.
         12    1    1    2    0    0  0.24485000602E+02  0.12285702085E+02  0.16317672649E+02  0.31886049785E+02  0.00000000000E+00 0. -1.
         11    1    3    3    0    0 -0.14320258919E+02 -0.36135417703E+01  0.64994335346E+01  0.16135988850E+02  0.51100000000E-03 0. -1.
        -11    1    3    3    0    0 -0.17117058476E+02 -0.17005313248E+02 -0.93649838208E+01  0.25881987786E+02  0.51100000000E-03 0.  1.
        -12    1    3    3    0    0  0.69523167939E+01  0.83331529329E+01 -0.13452122363E+02  0.17283973579E+02  0.00000000000E+00 0.  1.
</event>
<event>
 7    1  0.3449603E-013  0.5930193E+02  0.7816164E-02  0.1266605E+00
        -11   -1    0    0    0    0  0.00000000000E+00  0.00000000000E+00  0.45593999997E+02  0.45594000000E+02  0.51100000000E-03 0.  1.
         11   -1    0    0    0    0 -0.00000000000E+00 -0.00000000000E+00 -0.45593999997E+02  0.45594000000E+02  0.51100000000E-03 0. -1.
    9900012    2    1    2    0    0 -0.16375196460E+02 -0.22981121905E+02  0.14847301139E+02  0.59301931346E+02  0.49999976872E+02 0.  0.
         12    1    1    2    0    0  0.16375196460E+02  0.22981121905E+02 -0.14847301139E+02  0.31886068654E+02  0.00000000000E+00 0. -1.
         11    1    3    3    0    0 -0.99925913255E+01  0.92258595056E+00  0.20038596505E+02  0.22410899054E+02  0.51100000000E-03 0. -1.
        -11    1    3    3    0    0 -0.17910419330E+01  0.28088513619E+00  0.85218391478E+01  0.87125467223E+01  0.51100000000E-03 0.  1.
         12    1    3    3    0    0 -0.45915632012E+01 -0.24184592992E+02 -0.13713134515E+02  0.28178485570E+02  0.00000000000E+00 0. -1.
</event>
<event>
 7    1  0.3449603E-013  0.5930190E+02  0.7816164E-02  0.1266605E+00
        -11   -1    0    0    0    0  0.00000000000E+00  0.00000000000E+00  0.45593999997E+02  0.45594000000E+02  0.51100000000E-03 0. -1.
         11   -1    0    0    0    0 -0.00000000000E+00 -0.00000000000E+00 -0.45593999997E+02  0.45594000000E+02  0.51100000000E-03 0.  1.
    9900012    2    1    2    0    0 -0.18539611776E+02  0.25922709991E+02 -0.10094737652E+01  0.59301903729E+02  0.49999926506E+02 0.  0.
         12    1    1    2    0    0  0.18539611776E+02 -0.25922709991E+02  0.10094737652E+01  0.31886096271E+02  0.00000000000E+00 0. -1.
         11    1    3    3    0    0 -0.11416199119E+02  0.22358594376E+02 -0.35476735686E+00  0.25107015055E+02  0.51100000000E-03 0. -1.
        -11    1    3    3    0    0 -0.19213172714E+02  0.98800164598E+00 -0.67813086586E+01  0.20398732813E+02  0.51100000000E-03 0.  1.
        -12    1    3    3    0    0  0.12089760057E+02  0.25761139688E+01  0.61266022503E+01  0.13796155862E+02  0.00000000000E+00 0.  1.
</event>
<event>
 7    1  0.3449603E-013  0.5930194E+02  0.7816164E-02  0.1266605E+00
        -11   -1    0    0    0    0  0.00000000000E+00  0.00000000000E+00  0.45593999997E+02  0.45594000000E+02  0.51100000000E-03 0. -1.
         11   -1    0    0    0    0 -0.00000000000E+00 -0.00000000000E+00 -0.45593999997E+02  0.45594000000E+02  0.51100000000E-03 0.  1.
    9900012    2    1    2    0    0  0.26690018830E+02 -0.10244682227E+02  0.14121273215E+02  0.59301937586E+02  0.49999988252E+02 0.  0.
         12    1    1    2    0    0 -0.26690018830E+02  0.10244682227E+02 -0.14121273215E+02  0.31886062414E+02  0.00000000000E+00 0. -1.
         11    1    3    3    0    0  0.88493095559E+01 -0.24744986691E+01  0.15752871588E+02  0.18236951138E+02  0.51100000000E-03 0. -1.
        -11    1    3    3    0    0  0.26361377767E+02 -0.79390921326E+01  0.75403070828E+01  0.28544835835E+02  0.51100000000E-03 0.  1.
        -12    1    3    3    0    0 -0.85206684933E+01  0.16890857431E+00 -0.91719054560E+01  0.12520150613E+02  0.00000000000E+00 0.  1.
</event>
<event>
 7    1  0.3449603E-013  0.5930191E+02  0.7816164E-02  0.1266605E+00
        -11   -1    0    0    0    0  0.00000000000E+00  0.00000000000E+00  0.45593999997E+02  0.45594000000E+02  0.51100000000E-03 0.  1.
         11   -1    0    0    0    0 -0.00000000000E+00 -0.00000000000E+00 -0.45593999997E+02  0.45594000000E+02  0.51100000000E-03 0. -1.
    9900012    2    1    2    0    0 -0.29388216201E+02  0.96945563033E+01 -0.76857713367E+01  0.59301909703E+02  0.49999937400E+02 0.  0.
         12    1    1    2    0    0  0.29388216201E+02 -0.96945563033E+01  0.76857713367E+01  0.31886090297E+02  0.00000000000E+00 0. -1.
         11    1    3    3    0    0  0.50381368582E+00  0.79163389627E+01  0.14284270729E+01  0.80599413748E+01  0.51100000000E-03 0. -1.
        -11    1    3    3    0    0 -0.38006478601E+02 -0.20181838969E+01 -0.14569162548E+02  0.40753232749E+02  0.51100000000E-03 0.  1.
         12    1    3    3    0    0  0.81144487145E+01  0.37964012375E+01  0.54549641387E+01  0.10488735579E+02  0.00000000000E+00 0. -1.
</event>
<event>
 7    1  0.3449603E-013  0.5930198E+02  0.7816164E-02  0.1266605E+00
        -11   -1    0    0    0    0  0.00000000000E+00  0.00000000000E+00  0.45593999997E+02  0.45594000000E+02  0.51100000000E-03 0.  1.
         11   -1    0    0    0    0 -0.00000000000E+00 -0.00000000000E+00 -0.45593999997E+02  0.45594000000E+02  0.51100000000E-03 0. -1.
    9900012    2    1    2    0    0  0.25172164140E+02  0.19478619342E+02 -0.19141675145E+01  0.59301976475E+02  0.50000059176E+02 0.  0.
         12    1    1    2    0    0 -0.25172164140E+02 -0.19478619342E+02  0.19141675145E+01  0.31886023525E+02  0.00000000000E+00 0. -1.
         11    1    3    3    0    0 -0.87096246105E+00  0.25129314692E+02 -0.43998439632E+01  0.25526450197E+02  0.51100000000E-03 0. -1.
        -11    1    3    3    0    0  0.73716294685E+01  0.35833597040E+01 -0.71016082659E+01  0.10845009360E+02  0.51100000000E-03 0.  1.
        -12    1    3    3    0    0  0.18671497133E+02 -0.92340550544E+01  0.95872847146E+01  0.22930516918E+02  0.00000000000E+00 0.  1.
</event>
<event>
 7    1  0.3449603E-013  0.5930192E+02  0.7816164E-02  0.1266605E+00
        -11   -1    0    0    0    0  0.00000000000E+00  0.00000000000E+00  0.45593999997E+02  0.45594000000E+02  0.51100000000E-03 0.  1.
         11   -1    0    0    0    0 -0.00000000000E+00 -0.00000000000E+00 -0.45593999997E+02  0.45594000000E+02  0.51100000000E-03 0. -1.
    9900012    2    1    2    0    0  0.13696626014E+01  0.13556574882E+02  0.28828201258E+02  0.59301923321E+02  0.49999962237E+02 0.  0.
         12    1    1    2    0    0 -0.13696626014E+01 -0.13556574882E+02 -0.28828201258E+02  0.31886076679E+02  0.00000000000E+00 0. -1.
         11    1    3    3    0    0 -0.89714453803E+00  0.36479380384E+01 -0.66625852320E+01  0.76486837096E+01  0.51100000000E-03 0. -1.
        -11    1    3    3    0    0  0.14952112416E+02  0.12901142643E+02  0.81488208782E+01  0.21363717588E+02  0.51100000000E-03 0.  1.
         12    1    3    3    0    0 -0.12685305277E+02 -0.29925057996E+01  0.27341965612E+02  0.30289522024E+02  0.00000000000E+00 0. -1.
</event>
<event>
 7    1  0.3449603E-013  0.5930194E+02  0.7816164E-02  0.1266605E+00
        -11   -1    0    0    0    0  0.00000000000E+00  0.00000000000E+00  0.45593999997E+02  0.45594000000E+02  0.51100000000E-03 0. -1.
         11   -1    0    0    0    0 -0.00000000000E+00 -0.00000000000E+00 -0.45593999997E+02  0.45594000000E+02  0.51100000000E-03 0.  1.
    9900012    2    1    2    0    0 -0.17400386769E+01  0.31821811298E+02 -0.10320620084E+01  0.59301944100E+02  0.50000000132E+02 0.  0.
         12    1    1    2    0    0  0.17400386769E+01 -0.31821811298E+02  0.10320620084E+01  0.31886055900E+02  0.00000000000E+00 0. -1.
         11    1    3    3    0    0  0.14563105419E+02  0.12634436947E+01 -0.20297013691E+01  0.14758049239E+02  0.51100000000E-03 0. -1.
        -11    1    3    3    0    0 -0.13082091953E+02  0.14697070781E+02  0.13694766250E+02  0.23972727052E+02  0.51100000000E-03 0.  1.
        -12    1    3    3    0    0 -0.32210521431E+01  0.15861296822E+02 -0.12697126890E+02  0.20571167810E+02  0.00000000000E+00 0.  1.
</event>
<event>
 7    1  0.3449603E-013  0.5930195E+02  0.7816164E-02  0.1266605E+00
        -11   -1    0    0    0    0  0.00000000000E+00  0.00000000000E+00  0.45593999997E+02  0.45594000000E+02  0.51100000000E-03 0. -1.
         11   -1    0    0    0    0 -0.00000000000E+00 -0.00000000000E+00 -0.45593999997E+02  0.45594000000E+02  0.51100000000E-03 0.  1.
    9900012    2    1    2    0    0  0.29360687676E+02  0.71318092489E+01 -0.10188598685E+02  0.59301949333E+02  0.50000009676E+02 0.  0.
         12    1    1    2    0    0 -0.29360687676E+02 -0.71318092489E+01  0.10188598685E+02  0.31886050667E+02  0.00000000000E+00 0. -1.
         11    1    3    3    0    0 -0.42330340773E+01 -0.68476640930E+01  0.24121739327E+01  0.84040266761E+01  0.51100000000E-03 0. -1.
        -11    1    3    3    0    0  0.69899279746E+00  0.15204912897E+02  0.10610581690E+01  0.15257909812E+02  0.51100000000E-03 0.  1.
        -12    1    3    3    0    0  0.32894728955E+02 -0.12254395553E+01 -0.13661830787E+02  0.35640012845E+02  0.00000000000E+00 0.  1.
</event>
<event>
 7    1  0.3449603E-013  0.5930195E+02  0.7816164E-02  0.1266605E+00
        -11   -1    0    0    0    0  0.00000000000E+00  0.00000000000E+00  0.45593999997E+02  0.45594000000E+02  0.51100000000E-03 0. -1.
         11   -1    0    0    0    0 -0.00000000000E+00 -0.00000000000E+00 -0.45593999997E+02  0.45594000000E+02  0.51100000000E-03 0.  1.
    9900012    2    1    2    0    0  0.16206534600E+02 -0.76606283281E+01 -0.26370119649E+02  0.59301949752E+02  0.50000010440E+02 0.  0.
         12    1    1    2    0    0 -0.16206534600E+02  0.76606283281E+01  0.26370119649E+02  0.31886050248E+02  0.00000000000E+00 0. -1.
         11    1    3    3    0    0 -0.28172075865E+01 -0.27719352703E+01 -0.34436927912E+01  0.52420705861E+01  0.51100000000E-03 0. -1.
        -11    1    3    3    0    0  0.13550581919E+01 -0.18816069288E+02 -0.25165034862E+02  0.31450908191E+02  0.51100000000E-03 0.  1.
         12    1    3    3    0    0  0.17668683995E+02  0.13927376230E+02  0.22386080046E+01  0.22608970975E+02  0.00000000000E+00 0. -1.
</event>
<event>
 7    1  0.3449603E-013  0.5930194E+02  0.7816164E-02  0.1266605E+00
        -11   -1    0    0    0    0  0.00000000000E+00  0.00000000000E+00  0.45593999997E+02  0.45594000000E+02  0.51100000000E-03 0.  1.
         11   -1    0    0    0    0 -0.00000000000E+00 -0.00000000000E+00 -0.45593999997E+02  0.45594000000E+02  0.51100000000E-03 0. -1.
    9900012    2    1    2    0    0 -0.14879953611E+02  0.27125038698E+02 -0.77162239267E+01  0.59301939480E+02  0.49999991706E+02 0.  0.
         12    1    1    2    0    0  0.14879953611E+02 -0.27125038698E+02  0.77162239267E+01  0.31886060520E+02  0.00000000000E+00 0. -1.
         11    1    3    3    0    0  0.14738472321E+02  0.92035100303E+01 -0.19537715306E+01  0.17485547938E+02  0.51100000000E-03 0. -1.
        -11    1    3    3    0    0 -0.12814730358E+02  0.19914678480E+02  0.72850819202E+00  0.23692666747E+02  0.51100000000E-03 0.  1.
        -12    1    3    3    0    0 -0.16803695573E+02 -0.19931498128E+01 -0.64909605881E+01  0.18123724795E+02  0.00000000000E+00 0.  1.
</event>
<event>
 7    1  0.3449603E-013  0.5930205E+02  0.7816164E-02  0.1266604E+00
        -11   -1    0    0    0    0  0.00000000000E+00  0.00000000000E+00  0.45593999997E+02  0.45594000000E+02  0.51100000000E-03 0.  1.
         11   -1    0    0    0    0 -0.00000000000E+00 -0.00000000000E+00 -0.45593999997E+02  0.45594000000E+02  0.51100000000E-03 0. -1.
    9900012    2    1    2    0    0  0.45027059492E+01  0.31530858161E+02  0.14981699607E+01  0.59302048697E+02  0.50000190892E+02 0.  0.
         12    1    1    2    0    0 -0.45027059492E+01 -0.31530858161E+02 -0.14981699607E+01  0.31885951303E+02  0.00000000000E+00 0. -1.
         11    1    3    3    0    0 -0.75410893351E+00  0.54018343889E+01  0.19033459790E+02  0.19799522390E+02  0.51100000000E-03 0. -1.
        -11    1    3    3    0    0 -0.61860752485E+01  0.28923621398E+01  0.19367246627E+01  0.70981820496E+01  0.51100000000E-03 0.  1.
         12    1    3    3    0    0  0.11442890131E+02  0.23236661633E+02 -0.19472014492E+02  0.32404344257E+02  0.00000000000E+00 0. -1.
</event>
<event>
 7    1  0.3449603E-013  0.5930195E+02  0.7816164E-02  0.1266605E+00
        -11   -1    0    0    0    0  0.00000000000E+00  0.00000000000E+00  0.45593999997E+02  0.45594000000E+02  0.51100000000E-03 0.  1.
         11   -1    0    0    0    0 -0.00000000000E+00 -0.00000000000E+00 -0.45593999997E+02  0.45594000000E+02  0.51100000000E-03 0. -1.
    9900012    2    1    2    0    0 -0.28334270995E+02 -0.57126433399E+01  0.13463085314E+02  0.59301954888E+02  0.50000019806E+02 0.  0.
         12    1    1    2    0    0  0.28334270995E+02  0.57126433399E+01 -0.13463085314E+02  0.31886045112E+02  0.00000000000E+00 0. -1.
         11    1    3    3    0    0 -0.12688226312E+01  0.10575803745E+02 -0.31329425381E+01  0.11102831392E+02  0.51100000000E-03 0. -1.
        -11    1    3    3    0    0 -0.10883356450E+02  0.81936658413E+01  0.12645876929E+02  0.18587679013E+02  0.51100000000E-03 0.  1.
        -12    1    3    3    0    0 -0.16182091914E+02 -0.24482112926E+02  0.39501509230E+01  0.29611444482E+02  0.00000000000E+00 0.  1.
</event>
<event>
 7    1  0.3449603E-013  0.5930193E+02  0.7816164E-02  0.1266605E+00
        -11   -1    0    0    0    0  0.00000000000E+00  0.00000000000E+00  0.45593999997E+02  0.45594000000E+02  0.51100000000E-03 0.  1.
         11   -1    0    0    0    0 -0.00000000000E+00 -0.00000000000E+00 -0.45593999997E+02  0.45594000000E+02  0.51100000000E-03 0. -1.
    9900012    2    1    2    0    0  0.10036002913E+02  0.19271896058E+02  0.23336536999E+02  0.59301932647E+02  0.49999979244E+02 0.  0.
         12    1    1    2    0    0 -0.10036002913E+02 -0.19271896058E+02 -0.23336536999E+02  0.31886067353E+02  0.00000000000E+00 0. -1.
         11    1    3    3    0    0 -0.13451644899E+02 -0.14115426144E-01 -0.17484487434E+01  0.13564808255E+02  0.51100000000E-03 0. -1.
        -11    1    3    3    0    0 -0.28990857118E+00 -0.44825427914E+01  0.42539494156E+01  0.61865436835E+01  0.51100000000E-03 0.  1.
         12    1    3    3    0    0  0.23777556383E+02  0.23768554276E+02  0.20831036326E+02  0.39550580708E+02  0.00000000000E+00 0. -1.
</event>
<event>
 7    1  0.3449603E-013  0.5930194E+02  0.7816164E-02  0.1266605E+00
        -11   -1    0    0    0    0  0.00000000000E+00  0.00000000000E+00  0.45593999997E+02  0.45594000000E+02  0.51100000000E-03 0. -1.
         11   -1    0    0    0    0 -0.00000000000E+00 -0.00000000000E+00 -0.45593999997E+02  0.45594000000E+02  0.51100000000E-03 0.  1.
    9900012    2    1    2    0    0 -0.20892219794E+02  0.45945967934E+01 -0.23645835555E+02  0.59301941813E+02  0.49999995961E+02 0.  0.
         12    1    1    2    0    0  0.20892219794E+02 -0.45945967934E+01  0.23645835555E+02  0.31886058187E+02  0.00000000000E+00 0. -1.
         11    1    3    3    0    0 -0.51037019680E+01  0.92065917140E+01 -0.19471465400E+02  0.22134748019E+02  0.51100000000E-03 0. -1.
        -11    1    3    3    0    0 -0.48512851652E+01  0.91444861497E+01 -0.13704756538E+02  0.17174892917E+02  0.51100000000E-03 0.  1.
        -12    1    3    3    0    0 -0.10937232661E+02 -0.13756481070E+02  0.95303863837E+01  0.19992300877E+02  0.00000000000E+00 0.  1.
</event>
<event>
 7    1  0.3449603E-013  0.5930196E+02  0.7816164E-02  0.1266605E+00
        -11   -1    0    0    0    0  0.00000000000E+00  0.00000000000E+00  0.45593999997E+02  0.45594000000E+02  0.51100000000E-03 0. -1.
         11   -1    0    0    0    0 -0.00000000000E+00 -0.00000000000E+00 -0.45593999997E+02  0.45594000000E+02  0.51100000000E-03 0.  1.
    9900012    2    1    2    0    0  0.11340190887E+02  0.27273229585E+02 -0.12012109775E+02  0.59301956617E+02  0.50000022960E+02 0.  0.
         12    1    1    2    0    0 -0.11340190887E+02 -0.27273229585E+02  0.12012109775E+02  0.31886043383E+02  0.00000000000E+00 0. -1.
         11    1    3    3    0    0 -0.13091679591E+02  0.60735961980E+01 -0.53980783934E+01  0.15408435867E+02  0.51100000000E-03 0. -1.
        -11    1    3    3    0    0 -0.40932168537E+01  0.92055957068E+01 -0.80803429301E+01  0.12914695454E+02  0.51100000000E-03 0.  1.
         12    1    3    3    0    0  0.28525087332E+02  0.11994037681E+02  0.14663115485E+01  0.30978825296E+02  0.00000000000E+00 0. -1.
</event>
<event>
 7    1  0.3449603E-013  0.5930194E+02  0.7816164E-02  0.1266605E+00
        -11   -1    0    0    0    0  0.00000000000E+00  0.00000000000E+00  0.45593999997E+02  0.45594000000E+02  0.51100000000E-03 0.  1.
         11   -1    0    0    0    0 -0.00000000000E+00 -0.00000000000E+00 -0.45593999997E+02  0.45594000000E+02  0.51100000000E-03 0. -1.
    9900012    2    1    2    0    0  0.15842644027E+02 -0.77889299411E+01  0.26553042210E+02  0.59301939566E+02  0.49999991862E+02 0.  0.
         12    1    1    2    0    0 -0.15842644027E+02  0.77889299411E+01 -0.26553042210E+02  0.31886060434E+02  0.00000000000E+00 0. -1.
         11    1    3    3    0    0  0.28767132058E+01 -0.64840160679E+01 -0.66109611188E+01  0.96965329068E+01  0.51100000000E-03 0. -1.
        -11    1    3    3    0    0 -0.39487478230E+01  0.70636046075E+01 -0.31473291811E+01  0.86829027782E+01  0.51100000000E-03 0.  1.
        -12    1    3    3    0    0  0.16914678645E+02 -0.83685184808E+01  0.36311332510E+02  0.40922503881E+02  0.00000000000E+00 0.  1.
</event>
<event>
 7    1  0.3449603E-013  0.5930191E+02  0.7816164E-02  0.1266605E+00
        -11   -1    0    0    0    0  0.00000000000E+00  0.00000000000E+00  0.45593999997E+02  0.45594000000E+02  0.51100000000E-03 0. -1.
         11   -1    0    0    0    0 -0.00000000000E+00 -0.00000000000E+00 -0.45593999997E+02  0.45594000000E+02  0.51100000000E-03 0.  1.
    9900012    2    1    2    0    0  0.90808687881E+00 -0.21476955812E+02 -0.23550759952E+02  0.59301912955E+02  0.49999943331E+02 0.  0.
         12    1    1    2    0    0 -0.90808687881E+00  0.21476955812E+02  0.23550759952E+02  0.31886087045E+02  0.00000000000E+00 0. -1.
         11    1    3    3    0    0 -0.17544330754E+02 -0.12466211542E+02 -0.62246560375E+01  0.22404381600E+02  0.51100000000E-03 0. -1.
        -11    1    3    3    0    0  0.29799307465E+01 -0.15501812343E+02 -0.78976193488E+01  0.17651021636E+02  0.51100000000E-03 0.  1.
        -12    1    3    3    0    0  0.15472486886E+02  0.64910680728E+01 -0.94284845657E+01  0.19246509719E+02  0.00000000000E+00 0.  1.
</event>
<event>
 7    1  0.3449603E-013  0.5930200E+02  0.7816164E-02  0.1266605E+00
        -11   -1    0    0    0    0  0.00000000000E+00  0.00000000000E+00  0.45593999997E+02  0.45594000000E+02  0.51100000000E-03 0.  1.
         11   -1    0    0    0    0 -0.00000000000E+00 -0.00000000000E+00 -0.45593999997E+02  0.45594000000E+02  0.51100000000E-03 0. -1.
    9900012    2    1    2    0    0 -0.18059902838E+02  0.86201134611E+01  0.24824395762E+02  0.59301998815E+02  0.50000099919E+02 0.  0.
         12    1    1    2    0    0  0.18059902838E+02 -0.86201134611E+01 -0.24824395762E+02  0.31886001185E+02  0.00000000000E+00 0. -1.
         11    1    3    3    0    0  0.22433247218E+01 -0.29491325465E+01  0.23245914614E+02  0.23539380516E+02  0.51100000000E-03 0. -1.
        -11    1    3    3    0    0 -0.21179992018E+02  0.23906486553E+01  0.97534359812E+01  0.23440067760E+02  0.51100000000E-03 0.  1.
        -12    1    3    3    0    0  0.87676445842E+00  0.91785973523E+01 -0.81749548330E+01  0.12322550539E+02  0.00000000000E+00 0.  1.
</event>
<event>
 7    1  0.3449603E-013  0.5930193E+02  0.7816164E-02  0.1266605E+00
        -11   -1    0    0    0    0  0.00000000000E+00  0.00000000000E+00  0.45593999997E+02  0.45594000000E+02  0.51100000000E-03 0. -1.
         11   -1    0    0    0    0 -0.00000000000E+00 -0.00000000000E+00 -0.45593999997E+02  0.45594000000E+02  0.51100000000E-03 0.  1.
    9900012    2    1    2    0    0 -0.20846215194E+02 -0.91210128646E+01  0.22337494237E+02  0.59301933883E+02  0.49999981499E+02 0.  0.
         12    1    1    2    0    0  0.20846215194E+02  0.91210128646E+01 -0.22337494237E+02  0.31886066117E+02  0.00000000000E+00 0. -1.
         11    1    3    3    0    0 -0.10616019775E+02  0.21960615814E+01 -0.52348019379E+01  0.12038509622E+02  0.51100000000E-03 0. -1.
        -11    1    3    3    0    0 -0.17375705049E+02 -0.17122533371E+02  0.80658507048E+01  0.25693466540E+02  0.51100000000E-03 0.  1.
         12    1    3    3    0    0  0.71455096301E+01  0.58054589249E+01  0.19506445470E+02  0.21569957721E+02  0.00000000000E+00 0. -1.
</event>
<event>
 7    1  0.3449603E-013  0.5930190E+02  0.7816164E-02  0.1266605E+00
        -11   -1    0    0    0    0  0.00000000000E+00  0.00000000000E+00  0.45593999997E+02  0.45594000000E+02  0.51100000000E-03 0.  1.
         11   -1    0    0    0    0 -0.00000000000E+00 -0.00000000000E+00 -0.45593999997E+02  0.45594000000E+02  0.51100000000E-03 0. -1.
    9900012    2    1    2    0    0 -0.23215975300E+02  0.13495022699E+02  0.17193776041E+02  0.59301904577E+02  0.49999928051E+02 0.  0.
         12    1    1    2    0    0  0.23215975300E+02 -0.13495022699E+02 -0.17193776041E+02  0.31886095423E+02  0.00000000000E+00 0. -1.
         11    1    3    3    0    0  0.18455128618E+01  0.98378509739E+01 -0.13586791769E+02  0.16875726365E+02  0.51100000000E-03 0. -1.
        -11    1    3    3    0    0 -0.13782369655E+02 -0.46086190506E+01  0.11115122847E+02  0.18295874919E+02  0.51100000000E-03 0.  1.
        -12    1    3    3    0    0 -0.11279118506E+02  0.82657907762E+01  0.19665444963E+02  0.24130303293E+02  0.00000000000E+00 0.  1.
</event>
<event>
 7    1  0.3449603E-013  0.5930195E+02  0.7816164E-02  0.1266605E+00
        -11   -1    0    0    0    0  0.00000000000E+00  0.00000000000E+00  0.45593999997E+02  0.45594000000E+02  0.51100000000E-03 0. -1.
         11   -1    0    0    0    0 -0.00000000000E+00 -0.00000000000E+00 -0.45593999997E+02  0.45594000000E+02  0.51100000000E-03 0.  1.
    9900012    2    1    2    0    0 -0.24138841343E+02 -0.15508231979E+02  0.13911553900E+02  0.59301948937E+02  0.50000008953E+02 0.  0.
         12    1    1    2    0    0  0.24138841343E+02  0.15508231979E+02 -0.13911553900E+02  0.31886051063E+02  0.00000000000E+00 0. -1.
         11    1    3    3    0    0  0.41862311906E+01  0.12626823302E+01 -0.47794593776E+01  0.64778183404E+01  0.51100000000E-03 0.  1.
        -11    1    3    3    0    0 -0.11426068158E+02  0.11026035267E+02  0.12875470100E+01  0.15930670570E+02  0.51100000000E-03 0. -1.
         12    1    3    3    0    0 -0.16899004376E+02 -0.27796949576E+02  0.17403466267E+02  0.36893460027E+02  0.00000000000E+00 0. -1.
</event>
<event>
 7    1  0.3449603E-013  0.5930195E+02  0.7816164E-02  0.1266605E+00
        -11   -1    0    0    0    0  0.00000000000E+00  0.00000000000E+00  0.45593999997E+02  0.45594000000E+02  0.51100000000E-03 0.  1.
         11   -1    0    0    0    0 -0.00000000000E+00 -0.00000000000E+00 -0.45593999997E+02  0.45594000000E+02  0.51100000000E-03 0. -1.
    9900012    2    1    2    0    0  0.22745792320E+02  0.11816450288E+02  0.18966308560E+02  0.59301946214E+02  0.50000003986E+02 0.  0.
         12    1    1    2    0    0 -0.22745792320E+02 -0.11816450288E+02 -0.18966308560E+02  0.31886053786E+02  0.00000000000E+00 0. -1.
         11    1    3    3    0    0 -0.90658725181E+01 -0.40477160641E+01  0.55355235966E+01  0.11367324734E+02  0.51100000000E-03 0. -1.
        -11    1    3    3    0    0  0.90479668485E+01 -0.47128847661E+01  0.13904265723E+02  0.17245451356E+02  0.51100000000E-03 0.  1.
        -12    1    3    3    0    0  0.22763697989E+02  0.20577051118E+02 -0.47348075922E+00  0.30689170124E+02  0.00000000000E+00 0.  1.
</event>
<event>
 7    1  0.3449603E-013  0.5930205E+02  0.7816164E-02  0.1266604E+00
        -11   -1    0    0    0    0  0.00000000000E+00  0.00000000000E+00  0.45593999997E+02  0.45594000000E+02  0.51100000000E-03 0.  1.
         11   -1    0    0    0    0 -0.00000000000E+00 -0.00000000000E+00 -0.45593999997E+02  0.45594000000E+02  0.51100000000E-03 0. -1.
    9900012    2    1    2    0    0 -0.18553874323E+02  0.15584581841E+02 -0.20726515873E+02  0.59302048489E+02  0.50000190512E+02 0.  0.
         12    1    1    2    0    0  0.18553874323E+02 -0.15584581841E+02  0.20726515873E+02  0.31885951511E+02  0.00000000000E+00 0. -1.
         11    1    3    3    0    0 -0.21421917366E+02 -0.38042674237E+01 -0.12303850980E+02  0.24995114392E+02  0.51100000000E-03 0. -1.
        -11    1    3    3    0    0  0.43363036312E+01 -0.76143958841E+00  0.74231061797E+01  0.86305170786E+01  0.51100000000E-03 0.  1.
         12    1    3    3    0    0 -0.14682605879E+01  0.20150288853E+02 -0.15845771073E+02  0.25676417018E+02  0.00000000000E+00 0. -1.
</event>
<event>
 7    1  0.3449603E-013  0.5930191E+02  0.7816164E-02  0.1266605E+00
        -11   -1    0    0    0    0  0.00000000000E+00  0.00000000000E+00  0.45593999997E+02  0.45594000000E+02  0.51100000000E-03 0. -1.
         11   -1    0    0    0    0 -0.00000000000E+00 -0.00000000000E+00 -0.45593999997E+02  0.45594000000E+02  0.51100000000E-03 0.  1.
    9900012    2    1    2    0    0  0.23409190635E+02  0.16588419264E+02 -0.13912469512E+02  0.59301911062E+02  0.49999939878E+02 0.  0.
         12    1    1    2    0    0 -0.23409190635E+02 -0.16588419264E+02  0.13912469512E+02  0.31886088938E+02  0.00000000000E+00 0. -1.
         11    1    3    3    0    0  0.85459730380E+01  0.39824169678E+01  0.29343899197E+01  0.98744085663E+01  0.51100000000E-03 0. -1.
        -11    1    3    3    0    0  0.18389308286E+02 -0.11504958960E+02 -0.46775221989E+01  0.22190312168E+02  0.51100000000E-03 0.  1.
         12    1    3    3    0    0 -0.35260906889E+01  0.24110961256E+02 -0.12169337232E+02  0.27237190327E+02  0.00000000000E+00 0. -1.
</event>
<event>
 7    1  0.3449603E-013  0.5930195E+02  0.7816164E-02  0.1266605E+00
        -11   -1    0    0    0    0  0.00000000000E+00  0.00000000000E+00  0.45593999997E+02  0.45594000000E+02  0.51100000000E-03 0.  1.
         11   -1    0    0    0    0 -0.00000000000E+00 -0.00000000000E+00 -0.45593999997E+02  0.45594000000E+02  0.51100000000E-03 0. -1.
    9900012    2    1    2    0    0  0.71161368399E+01 -0.30957951262E+02  0.27724180280E+01  0.59301945813E+02  0.50000003257E+02 0.  0.
         12    1    1    2    0    0 -0.71161368399E+01  0.30957951262E+02 -0.27724180280E+01  0.31886054187E+02  0.00000000000E+00 0. -1.
         11    1    3    3    0    0 -0.14418106596E+01 -0.18209844528E+02 -0.16135355517E+01  0.18337959345E+02  0.51100000000E-03 0. -1.
        -11    1    3    3    0    0 -0.14183368492E+02 -0.10239637400E+02 -0.77251452005E+00  0.17510422463E+02  0.51100000000E-03 0.  1.
        -12    1    3    3    0    0  0.22741315992E+02 -0.25084693347E+01  0.51584680997E+01  0.23453564006E+02  0.00000000000E+00 0.  1.
</event>
<event>
 7    1  0.3449603E-013  0.5930193E+02  0.7816164E-02  0.1266605E+00
        -11   -1    0    0    0    0  0.00000000000E+00  0.00000000000E+00  0.45593999997E+02  0.45594000000E+02  0.51100000000E-03 0. -1.
         11   -1    0    0    0    0 -0.00000000000E+00 -0.00000000000E+00 -0.45593999997E+02  0.45594000000E+02  0.51100000000E-03 0.  1.
    9900012    2    1    2    0    0 -0.29398633357E+02 -0.11445996040E+02 -0.46293431078E+01  0.59301932726E+02  0.49999979388E+02 0.  0.
         12    1    1    2    0    0  0.29398633357E+02  0.11445996040E+02  0.46293431078E+01  0.31886067274E+02  0.00000000000E+00 0. -1.
         11    1    3    3    0    0 -0.32075338706E+02 -0.23183540916E+02 -0.10499146830E+01  0.39590481730E+02  0.51100000000E-03 0. -1.
        -11    1    3    3    0    0 -0.51717877859E+01  0.25374962293E+01 -0.48785045217E+01  0.75489126797E+01  0.51100000000E-03 0.  1.
         12    1    3    3    0    0  0.78484931348E+01  0.92000486467E+01  0.12990760969E+01  0.12162538316E+02  0.00000000000E+00 0. -1.
</event>
<event>
 7    1  0.3449603E-013  0.5930194E+02  0.7816164E-02  0.1266605E+00
        -11   -1    0    0    0    0  0.00000000000E+00  0.00000000000E+00  0.45593999997E+02  0.45594000000E+02  0.51100000000E-03 0.  1.
         11   -1    0    0    0    0 -0.00000000000E+00 -0.00000000000E+00 -0.45593999997E+02  0.45594000000E+02  0.51100000000E-03 0. -1.
    9900012    2    1    2    0    0  0.31711046014E+02  0.31243582167E+01  0.11698630307E+01  0.59301942967E+02  0.49999998066E+02 0.  0.
         12    1    1    2    0    0 -0.31711046014E+02 -0.31243582167E+01 -0.11698630307E+01  0.31886057033E+02  0.00000000000E+00 0. -1.
         11    1    3    3    0    0  0.69960450791E+01  0.29398465490E+01  0.37924431349E+01  0.84835116357E+01  0.51100000000E-03 0. -1.
        -11    1    3    3    0    0  0.17753913601E+02 -0.40414774674E+01  0.19837890499E+02  0.26927251772E+02  0.51100000000E-03 0.  1.
         12    1    3    3    0    0  0.69610873342E+01  0.42259891351E+01 -0.22460470603E+02  0.23891179560E+02  0.00000000000E+00 0. -1.
</event>
<event>
 7    1  0.3449603E-013  0.5930197E+02  0.7816164E-02  0.1266605E+00
        -11   -1    0    0    0    0  0.00000000000E+00  0.00000000000E+00  0.45593999997E+02  0.45594000000E+02  0.51100000000E-03 0. -1.
         11   -1    0    0    0    0 -0.00000000000E+00 -0.00000000000E+00 -0.45593999997E+02  0.45594000000E+02  0.51100000000E-03 0.  1.
    9900012    2    1    2    0    0 -0.25736424580E+02  0.10411592914E+02 -0.15682926903E+02  0.59301968365E+02  0.50000044386E+02 0.  0.
         12    1    1    2    0    0  0.25736424580E+02 -0.10411592914E+02  0.15682926903E+02  0.31886031635E+02  0.00000000000E+00 0. -1.
         11    1    3    3    0    0 -0.53968428340E+01 -0.39636985115E+01  0.67684538664E+01  0.95209656268E+01  0.51100000000E-03 0. -1.
        -11    1    3    3    0    0  0.88806427371E+01  0.11931975545E+02 -0.51799601965E+01  0.15750233133E+02  0.51100000000E-03 0.  1.
        -12    1    3    3    0    0 -0.29220224483E+02  0.24433158800E+01 -0.17271420573E+02  0.34030769605E+02  0.00000000000E+00 0.  1.
</event>
<event>
 7    1  0.3449603E-013  0.5930196E+02  0.7816164E-02  0.1266605E+00
        -11   -1    0    0    0    0  0.00000000000E+00  0.00000000000E+00  0.45593999997E+02  0.45594000000E+02  0.51100000000E-03 0. -1.
         11   -1    0    0    0    0 -0.00000000000E+00 -0.00000000000E+00 -0.45593999997E+02  0.45594000000E+02  0.51100000000E-03 0.  1.
    9900012    2    1    2    0    0 -0.21876933764E+02  0.15206092883E+02 -0.17518395331E+02  0.59301958122E+02  0.50000025704E+02 0.  0.
         12    1    1    2    0    0  0.21876933764E+02 -0.15206092883E+02  0.17518395331E+02  0.31886041878E+02  0.00000000000E+00 0. -1.
         11    1    3    3    0    0 -0.90788565066E+01  0.91922946265E+01  0.29777905586E+01  0.13258625602E+02  0.51100000000E-03 0. -1.
        -11    1    3    3    0    0 -0.25066409301E+02 -0.34517410019E+01 -0.15886592407E+02  0.29876800528E+02  0.51100000000E-03 0.  1.
        -12    1    3    3    0    0  0.12268332044E+02  0.94655392588E+01 -0.46095934825E+01  0.16166531993E+02  0.00000000000E+00 0.  1.
</event>
<event>
 7    1  0.3449603E-013  0.5930195E+02  0.7816164E-02  0.1266605E+00
        -11   -1    0    0    0    0  0.00000000000E+00  0.00000000000E+00  0.45593999997E+02  0.45594000000E+02  0.51100000000E-03 0.  1.
         11   -1    0    0    0    0 -0.00000000000E+00 -0.00000000000E+00 -0.45593999997E+02  0.45594000000E+02  0.51100000000E-03 0. -1.
    9900012    2    1    2    0    0  0.37343564101E+01  0.24398927670E+01  0.31572483259E+02  0.59301949858E+02  0.50000010632E+02 0.  0.
         12    1    1    2    0    0 -0.37343564101E+01 -0.24398927670E+01 -0.31572483259E+02  0.31886050142E+02  0.00000000000E+00 0. -1.
         11    1    3    3    0    0  0.50424140836E+01  0.79620734392E+01  0.15989520325E+02  0.18560315561E+02  0.51100000000E-03 0. -1.
        -11    1    3    3    0    0  0.27255542027E+01 -0.79377602689E+01  0.27063883449E+02  0.28335321975E+02  0.51100000000E-03 0.  1.
         12    1    3    3    0    0 -0.40336118763E+01  0.24155795967E+01 -0.11480920515E+02  0.12406312322E+02  0.00000000000E+00 0. -1.
</event>
<event>
 7    1  0.3449603E-013  0.5930191E+02  0.7816164E-02  0.1266605E+00
        -11   -1    0    0    0    0  0.00000000000E+00  0.00000000000E+00  0.45593999997E+02  0.45594000000E+02  0.51100000000E-03 0.  1.
         11   -1    0    0    0    0 -0.00000000000E+00 -0.00000000000E+00 -0.45593999997E+02  0.45594000000E+02  0.51100000000E-03 0. -1.
    9900012    2    1    2    0    0 -0.11315491195E+02 -0.21622747800E+02  0.20521669921E+02  0.59301913696E+02  0.49999944683E+02 0.  0.
         12    1    1    2    0    0  0.11315491195E+02  0.21622747800E+02 -0.20521669921E+02  0.31886086304E+02  0.00000000000E+00 0. -1.
         11    1    3    3    0    0  0.34395721183E+01 -0.15953090714E+01  0.19351829608E+02  0.19719761075E+02  0.51100000000E-03 0. -1.
        -11    1    3    3    0    0 -0.38149275780E+01  0.57720412337E+01 -0.75431373678E+01  0.10235675554E+02  0.51100000000E-03 0.  1.
        -12    1    3    3    0    0 -0.10940135735E+02 -0.25799479963E+02  0.87129776804E+01  0.29346477068E+02  0.00000000000E+00 0.  1.
</event>
<event>
 7    1  0.3449603E-013  0.5930194E+02  0.7816164E-02  0.1266605E+00
        -11   -1    0    0    0    0  0.00000000000E+00  0.00000000000E+00  0.45593999997E+02  0.45594000000E+02  0.51100000000E-03 0.  1.
         11   -1    0    0    0    0 -0.00000000000E+00 -0.00000000000E+00 -0.45593999997E+02  0.45594000000E+02  0.51100000000E-03 0. -1.
    9900012    2    1    2    0    0 -0.21892276392E+02  0.13213937189E+02  0.19048386804E+02  0.59301938131E+02  0.49999989247E+02 0.  0.
         12    1    1    2    0    0  0.21892276392E+02 -0.13213937189E+02 -0.19048386804E+02  0.31886061869E+02  0.00000000000E+00 0. -1.
         11    1    3    3    0    0 -0.17717510054E+02  0.59977516251E+01  0.28451364473E+01  0.18920306254E+02  0.51100000000E-03 0. -1.
        -11    1    3    3    0    0 -0.10557296645E+02  0.76171724937E+01 -0.80454418099E+01  0.15303821857E+02  0.51100000000E-03 0.  1.
         12    1    3    3    0    0  0.63825303076E+01 -0.40098692968E+00  0.24248692167E+02  0.25077810021E+02  0.00000000000E+00 0. -1.
</event>
<event>
 7    1  0.3449603E-013  0.5930189E+02  0.7816164E-02  0.1266605E+00
        -11   -1    0    0    0    0  0.00000000000E+00  0.00000000000E+00  0.45593999997E+02  0.45594000000E+02  0.51100000000E-03 0.  1.
         11   -1    0    0    0    0 -0.00000000000E+00 -0.00000000000E+00 -0.45593999997E+02  0.45594000000E+02  0.51100000000E-03 0. -1.
    9900012    2    1    2    0    0  0.17944028258E+02 -0.25138149712E+02 -0.79252507643E+01  0.59301885142E+02  0.49999892607E+02 0.  0.
         12    1    1    2    0    0 -0.17944028258E+02  0.25138149712E+02  0.79252507643E+01  0.31886114858E+02  0.00000000000E+00 0. -1.
         11    1    3    3    0    0  0.13684121223E+02 -0.40684089587E+01 -0.51443980788E+01  0.15174714394E+02  0.51100000000E-03 0. -1.
        -11    1    3    3    0    0  0.15173065328E+02 -0.13639723261E+02  0.12504443119E+02  0.23929585455E+02  0.51100000000E-03 0.  1.
         12    1    3    3    0    0 -0.10913158292E+02 -0.74300174915E+01 -0.15285295804E+02  0.20197585293E+02  0.00000000000E+00 0. -1.
</event>
<event>
 7    1  0.3449603E-013  0.5930194E+02  0.7816164E-02  0.1266605E+00
        -11   -1    0    0    0    0  0.00000000000E+00  0.00000000000E+00  0.45593999997E+02  0.45594000000E+02  0.51100000000E-03 0.  1.
         11   -1    0    0    0    0 -0.00000000000E+00 -0.00000000000E+00 -0.45593999997E+02  0.45594000000E+02  0.51100000000E-03 0. -1.
    9900012    2    1    2    0    0  0.10145868409E+00 -0.30902937947E+02  0.78561428726E+01  0.59301939591E+02  0.49999991908E+02 0.  0.
         12    1    1    2    0    0 -0.10145868409E+00  0.30902937947E+02 -0.78561428726E+01  0.31886060409E+02  0.00000000000E+00 0. -1.
         11    1    3    3    0    0  0.19724755693E+01  0.80356053794E+01  0.80141162969E+01  0.11519013585E+02  0.51100000000E-03 0. -1.
        -11    1    3    3    0    0  0.56917632166E+01  0.24689643610E+00  0.49520812999E+01  0.75485254074E+01  0.51100000000E-03 0.  1.
        -12    1    3    3    0    0 -0.75627801018E+01 -0.39185439762E+02 -0.51100547243E+01  0.40234400598E+02  0.00000000000E+00 0.  1.
</event>
<event>
 7    1  0.3449603E-013  0.5930197E+02  0.7816164E-02  0.1266605E+00
        -11   -1    0    0    0    0  0.00000000000E+00  0.00000000000E+00  0.45593999997E+02  0.45594000000E+02  0.51100000000E-03 0. -1.
         11   -1    0    0    0    0 -0.00000000000E+00 -0.00000000000E+00 -0.45593999997E+02  0.45594000000E+02  0.51100000000E-03 0.  1.
    9900012    2    1    2    0    0 -0.26831651736E+02 -0.43252010472E+01 -0.16675548265E+02  0.59301971572E+02  0.50000050234E+02 0.  0.
         12    1    1    2    0    0  0.26831651736E+02  0.43252010472E+01  0.16675548265E+02  0.31886028428E+02  0.00000000000E+00 0. -1.
         11    1    3    3    0    0 -0.12131327524E+02  0.12914726394E+02  0.82463947977E+01  0.19543855626E+02  0.51100000000E-03 0. -1.
        -11    1    3    3    0    0 -0.46636366068E+01  0.15000413321E+01  0.21391007339E+01  0.53455946918E+01  0.51100000000E-03 0.  1.
        -12    1    3    3    0    0 -0.10036687605E+02 -0.18739968773E+02 -0.27061043796E+02  0.34412521254E+02  0.00000000000E+00 0.  1.
</event>
<event>
 7    1  0.3449603E-013  0.5930196E+02  0.7816164E-02  0.1266605E+00
        -11   -1    0    0    0    0  0.00000000000E+00  0.00000000000E+00  0.45593999997E+02  0.45594000000E+02  0.51100000000E-03 0. -1.
         11   -1    0    0    0    0 -0.00000000000E+00 -0.00000000000E+00 -0.45593999997E+02  0.45594000000E+02  0.51100000000E-03 0.  1.
    9900012    2    1    2    0    0  0.26894686131E+02 -0.68033639848E+01 -0.15719724415E+02  0.59301958551E+02  0.50000026488E+02 0.  0.
         12    1    1    2    0    0 -0.26894686131E+02  0.68033639848E+01  0.15719724415E+02  0.31886041449E+02  0.00000000000E+00 0. -1.
         11    1    3    3    0    0 -0.48707528612E+01  0.42620280970E+01 -0.38060888847E+01  0.75083573300E+01  0.51100000000E-03 0. -1.
        -11    1    3    3    0    0 -0.40443195247E+01 -0.28591446335E+01  0.84461049549E+01  0.97912163505E+01  0.51100000000E-03 0.  1.
        -12    1    3    3    0    0  0.35809758517E+02 -0.82062474483E+01 -0.20359740485E+02  0.42002384871E+02  0.00000000000E+00 0.  1.
</event>
<event>
 7    1  0.3449603E-013  0.5930191E+02  0.7816164E-02  0.1266605E+00
        -11   -1    0    0    0    0  0.00000000000E+00  0.00000000000E+00  0.45593999997E+02  0.45594000000E+02  0.51100000000E-03 0. -1.
         11   -1    0    0    0    0 -0.00000000000E+00 -0.00000000000E+00 -0.45593999997E+02  0.45594000000E+02  0.51100000000E-03 0.  1.
    9900012    2    1    2    0    0  0.93767701538E+01 -0.26968582559E+02  0.14194871566E+02  0.59301911458E+02  0.49999940600E+02 0.  0.
         12    1    1    2    0    0 -0.93767701538E+01  0.26968582559E+02 -0.14194871566E+02  0.31886088542E+02  0.00000000000E+00 0. -1.
         11    1    3    3    0    0  0.80639349099E+01 -0.11247872437E+02 -0.31775619518E+01  0.14199950028E+02  0.51100000000E-03 0. -1.
        -11    1    3    3    0    0  0.69905131356E+01 -0.20287733008E+02 -0.46060550173E+01  0.21947098386E+02  0.51100000000E-03 0.  1.
         12    1    3    3    0    0 -0.56776778917E+01  0.45670228860E+01  0.21978488535E+02  0.23154863043E+02  0.00000000000E+00 0. -1.
</event>
<event>
 7    1  0.3449603E-013  0.5930195E+02  0.7816164E-02  0.1266605E+00
        -11   -1    0    0    0    0  0.00000000000E+00  0.00000000000E+00  0.45593999997E+02  0.45594000000E+02  0.51100000000E-03 0. -1.
         11   -1    0    0    0    0 -0.00000000000E+00 -0.00000000000E+00 -0.45593999997E+02  0.45594000000E+02  0.51100000000E-03 0.  1.
    9900012    2    1    2    0    0 -0.76042497157E+01  0.22199067019E+02  0.21589282584E+02  0.59301947990E+02  0.50000007227E+02 0.  0.
         12    1    1    2    0    0  0.76042497157E+01 -0.22199067019E+02 -0.21589282584E+02  0.31886052010E+02  0.00000000000E+00 0. -1.
         11    1    3    3    0    0 -0.20703659842E+01  0.20546883881E+01 -0.21241285457E+01  0.36083350759E+01  0.51100000000E-03 0. -1.
        -11    1    3    3    0    0 -0.29264467224E+00  0.24910566449E+02 -0.56019874568E+01  0.25534373410E+02  0.51100000000E-03 0.  1.
         12    1    3    3    0    0 -0.52412390593E+01 -0.47661878178E+01  0.29315398587E+02  0.30159239504E+02  0.00000000000E+00 0. -1.
</event>
<event>
 7    1  0.3449603E-013  0.5930193E+02  0.7816164E-02  0.1266605E+00
        -11   -1    0    0    0    0  0.00000000000E+00  0.00000000000E+00  0.45593999997E+02  0.45594000000E+02  0.51100000000E-03 0.  1.
         11   -1    0    0    0    0 -0.00000000000E+00 -0.00000000000E+00 -0.45593999997E+02  0.45594000000E+02  0.51100000000E-03 0. -1.
    9900012    2    1    2    0    0 -0.26765398410E+02  0.15150732096E+02  0.84136752084E+01  0.59301934617E+02  0.49999982837E+02 0.  0.
         12    1    1    2    0    0  0.26765398410E+02 -0.15150732096E+02 -0.84136752084E+01  0.31886065383E+02  0.00000000000E+00 0. -1.
         11    1    3    3    0    0  0.68531347048E+01  0.27230123620E+01  0.25423788084E+01  0.78002526800E+01  0.51100000000E-03 0. -1.
        -11    1    3    3    0    0 -0.16428335028E+02 -0.29826752080E+01  0.18716970618E+02  0.25082095857E+02  0.51100000000E-03 0.  1.
         12    1    3    3    0    0 -0.17190198087E+02  0.15410394942E+02 -0.12845674218E+02  0.26419586080E+02  0.00000000000E+00 0. -1.
</event>
<event>
 7    1  0.3449603E-013  0.5930195E+02  0.7816164E-02  0.1266605E+00
        -11   -1    0    0    0    0  0.00000000000E+00  0.00000000000E+00  0.45593999997E+02  0.45594000000E+02  0.51100000000E-03 0.  1.
         11   -1    0    0    0    0 -0.00000000000E+00 -0.00000000000E+00 -0.45593999997E+02  0.45594000000E+02  0.51100000000E-03 0. -1.
    9900012    2    1    2    0    0 -0.13953771285E+02 -0.87034818054E+01  0.27317792665E+02  0.59301950939E+02  0.50000012605E+02 0.  0.
         12    1    1    2    0    0  0.13953771285E+02  0.87034818054E+01 -0.27317792665E+02  0.31886049061E+02  0.00000000000E+00 0. -1.
         11    1    3    3    0    0 -0.24102253793E+02  0.12310494580E+02  0.18730311287E+02  0.32913393564E+02  0.51100000000E-03 0.  1.
        -11    1    3    3    0    0  0.25492109787E+01 -0.10616746758E+02  0.15970731475E-01  0.10918518383E+02  0.51100000000E-03 0. -1.
        -12    1    3    3    0    0  0.75992715288E+01 -0.10397229627E+02  0.85715106460E+01  0.15470038993E+02  0.00000000000E+00 0.  1.
</event>
<event>
 7    1  0.3597974E-013  0.5930194E+02  0.7816164E-02  0.1266605E+00
        -11   -1    0    0    0    0  0.00000000000E+00  0.00000000000E+00  0.45593999997E+02  0.45594000000E+02  0.51100000000E-03 0. -1.
         11   -1    0    0    0    0 -0.00000000000E+00 -0.00000000000E+00 -0.45593999997E+02  0.45594000000E+02  0.51100000000E-03 0.  1.
    9900012    2    1    2    0    0 -0.27271172770E+02 -0.39097998990E+01 -0.16053571892E+02  0.59301943957E+02  0.49999999871E+02 0.  0.
         12    1    1    2    0    0  0.27271172770E+02  0.39097998990E+01  0.16053571892E+02  0.31886056043E+02  0.00000000000E+00 0. -1.
         11    1    3    3    0    0  0.30393896769E+00  0.99303976165E+00 -0.13618577602E+02  0.13658117111E+02  0.51100000000E-03 0. -1.
        -11    1    3    3    0    0 -0.24489877492E+02 -0.72143867259E+00 -0.17236826160E+02  0.29956347402E+02  0.51100000000E-03 0.  1.
         12    1    3    3    0    0 -0.30852342458E+01 -0.41814009881E+01  0.14801831870E+02  0.15687479444E+02  0.00000000000E+00 0. -1.
</event>
<event>
 7    1  0.3449603E-013  0.5930196E+02  0.7816164E-02  0.1266605E+00
        -11   -1    0    0    0    0  0.00000000000E+00  0.00000000000E+00  0.45593999997E+02  0.45594000000E+02  0.51100000000E-03 0.  1.
         11   -1    0    0    0    0 -0.00000000000E+00 -0.00000000000E+00 -0.45593999997E+02  0.45594000000E+02  0.51100000000E-03 0. -1.
    9900012    2    1    2    0    0  0.25700224507E+02  0.18261218691E+02  0.47692951668E+01  0.59301955651E+02  0.50000021199E+02 0.  0.
         12    1    1    2    0    0 -0.25700224507E+02 -0.18261218691E+02 -0.47692951668E+01  0.31886044349E+02  0.00000000000E+00 0. -1.
         11    1    3    3    0    0  0.28140310588E+02  0.18000303336E+02 -0.80470215035E+01  0.34360479559E+02  0.51100000000E-03 0. -1.
        -11    1    3    3    0    0  0.78192675370E+01 -0.32032049773E+01  0.11142968611E+02  0.13984534911E+02  0.51100000000E-03 0.  1.
        -12    1    3    3    0    0 -0.10259353618E+02  0.34641203331E+01  0.16733480592E+01  0.10956941182E+02  0.00000000000E+00 0.  1.
</event>
<event>
 7    1  0.3449603E-013  0.5930184E+02  0.7816164E-02  0.1266605E+00
        -11   -1    0    0    0    0  0.00000000000E+00  0.00000000000E+00  0.45593999997E+02  0.45594000000E+02  0.51100000000E-03 0.  1.
         11   -1    0    0    0    0 -0.00000000000E+00 -0.00000000000E+00 -0.45593999997E+02  0.45594000000E+02  0.51100000000E-03 0. -1.
    9900012    2    1    2    0    0 -0.15256345731E+02 -0.23178800265E+02  0.15707148427E+02  0.59301837194E+02  0.49999805161E+02 0.  0.
         12    1    1    2    0    0  0.15256345731E+02  0.23178800265E+02 -0.15707148427E+02  0.31886162806E+02  0.00000000000E+00 0. -1.
         11    1    3    3    0    0  0.33849849983E+01 -0.22061056200E+01 -0.91471635852E+00  0.41426720511E+01  0.51100000000E-03 0. -1.
        -11    1    3    3    0    0 -0.43570747990E+01 -0.27798378253E+02  0.24650607024E+02  0.37408372876E+02  0.51100000000E-03 0.  1.
         12    1    3    3    0    0 -0.14284255930E+02  0.68256836083E+01 -0.80287422386E+01  0.17750792268E+02  0.00000000000E+00 0. -1.
</event>
<event>
 7    1  0.3449603E-013  0.5930190E+02  0.7816164E-02  0.1266605E+00
        -11   -1    0    0    0    0  0.00000000000E+00  0.00000000000E+00  0.45593999997E+02  0.45594000000E+02  0.51100000000E-03 0.  1.
         11   -1    0    0    0    0 -0.00000000000E+00 -0.00000000000E+00 -0.45593999997E+02  0.45594000000E+02  0.51100000000E-03 0. -1.
    9900012    2    1    2    0    0  0.84500231530E+01 -0.30740117181E+02  0.60473227143E+00  0.59301899631E+02  0.49999919031E+02 0.  0.
         12    1    1    2    0    0 -0.84500231530E+01  0.30740117181E+02 -0.60473227143E+00  0.31886100369E+02  0.00000000000E+00 0. -1.
         11    1    3    3    0    0  0.96246159719E+01 -0.11424750171E+02  0.16456325553E+01  0.15028847455E+02  0.51100000000E-03 0. -1.
        -11    1    3    3    0    0 -0.92338361222E+00 -0.18706392739E+02  0.17552193073E+02  0.25668292669E+02  0.51100000000E-03 0.  1.
         12    1    3    3    0    0 -0.25120920674E+00 -0.60897427176E+00 -0.18593093357E+02  0.18604759507E+02  0.00000000000E+00 0. -1.
</event>
<event>
 7    1  0.3449603E-013  0.5930195E+02  0.7816164E-02  0.1266605E+00
        -11   -1    0    0    0    0  0.00000000000E+00  0.00000000000E+00  0.45593999997E+02  0.45594000000E+02  0.51100000000E-03 0.  1.
         11   -1    0    0    0    0 -0.00000000000E+00 -0.00000000000E+00 -0.45593999997E+02  0.45594000000E+02  0.51100000000E-03 0. -1.
    9900012    2    1    2    0    0 -0.96784093603E+01  0.18960310389E+02  0.23739311469E+02  0.59301954669E+02  0.50000019408E+02 0.  0.
         12    1    1    2    0    0  0.96784093603E+01 -0.18960310389E+02 -0.23739311469E+02  0.31886045331E+02  0.00000000000E+00 0. -1.
         11    1    3    3    0    0  0.43575994479E+01 -0.55063084371E+01 -0.63163871466E+01  0.94448320472E+01  0.51100000000E-03 0. -1.
        -11    1    3    3    0    0  0.85876806716E+01  0.84338393759E+01  0.97094734171E+01  0.15464532978E+02  0.51100000000E-03 0.  1.
        -12    1    3    3    0    0 -0.22623689480E+02  0.16032779451E+02  0.20346225199E+02  0.34392589644E+02  0.00000000000E+00 0.  1.
</event>
<event>
 7    1  0.3449603E-013  0.5930195E+02  0.7816164E-02  0.1266605E+00
        -11   -1    0    0    0    0  0.00000000000E+00  0.00000000000E+00  0.45593999997E+02  0.45594000000E+02  0.51100000000E-03 0.  1.
         11   -1    0    0    0    0 -0.00000000000E+00 -0.00000000000E+00 -0.45593999997E+02  0.45594000000E+02  0.51100000000E-03 0. -1.
    9900012    2    1    2    0    0  0.24655883216E+02 -0.19825154628E+02  0.39712338442E+01  0.59301952401E+02  0.50000015272E+02 0.  0.
         12    1    1    2    0    0 -0.24655883216E+02  0.19825154628E+02 -0.39712338442E+01  0.31886047599E+02  0.00000000000E+00 0. -1.
         11    1    3    3    0    0  0.24993211185E+02  0.81663718992E+00  0.14544417664E+02  0.28928663763E+02  0.51100000000E-03 0. -1.
        -11    1    3    3    0    0  0.60729622600E+01 -0.12467301247E+02  0.20573829811E+01  0.14019532659E+02  0.51100000000E-03 0.  1.
         12    1    3    3    0    0 -0.64102902290E+01 -0.81744905713E+01 -0.12630566801E+02  0.16353755979E+02  0.00000000000E+00 0. -1.
</event>
<event>
 7    1  0.3449603E-013  0.5930194E+02  0.7816164E-02  0.1266605E+00
        -11   -1    0    0    0    0  0.00000000000E+00  0.00000000000E+00  0.45593999997E+02  0.45594000000E+02  0.51100000000E-03 0.  1.
         11   -1    0    0    0    0 -0.00000000000E+00 -0.00000000000E+00 -0.45593999997E+02  0.45594000000E+02  0.51100000000E-03 0. -1.
    9900012    2    1    2    0    0 -0.18909053848E+02 -0.37382959118E+00  0.25671560206E+02  0.59301936126E+02  0.49999985589E+02 0.  0.
         12    1    1    2    0    0  0.18909053848E+02  0.37382959118E+00 -0.25671560206E+02  0.31886063874E+02  0.00000000000E+00 0. -1.
         11    1    3    3    0    0 -0.20205568414E+02  0.53725569905E-01 -0.23034576571E+01  0.20336513929E+02  0.51100000000E-03 0. -1.
        -11    1    3    3    0    0 -0.44196162929E+01  0.90123109998E+01  0.13298934783E+01  0.10125382692E+02  0.51100000000E-03 0.  1.
        -12    1    3    3    0    0  0.57161308589E+01 -0.94398661609E+01  0.26645124385E+02  0.28840039505E+02  0.00000000000E+00 0.  1.
</event>
<event>
 7    1  0.3449603E-013  0.5930199E+02  0.7816164E-02  0.1266605E+00
        -11   -1    0    0    0    0  0.00000000000E+00  0.00000000000E+00  0.45593999997E+02  0.45594000000E+02  0.51100000000E-03 0.  1.
         11   -1    0    0    0    0 -0.00000000000E+00 -0.00000000000E+00 -0.45593999997E+02  0.45594000000E+02  0.51100000000E-03 0. -1.
    9900012    2    1    2    0    0 -0.19299023086E+02 -0.24429059881E+02  0.68910391525E+01  0.59301989284E+02  0.50000082537E+02 0.  0.
         12    1    1    2    0    0  0.19299023086E+02  0.24429059881E+02 -0.68910391525E+01  0.31886010716E+02  0.00000000000E+00 0. -1.
         11    1    3    3    0    0  0.33638524040E+01 -0.16039611717E+01 -0.58174188914E+01  0.69087305097E+01  0.51100000000E-03 0. -1.
        -11    1    3    3    0    0  0.71489698759E+01  0.67616021711E+00 -0.66446063965E+01  0.97834430213E+01  0.51100000000E-03 0.  1.
        -12    1    3    3    0    0 -0.29811845366E+02 -0.23501258926E+02  0.19353064440E+02  0.42609815753E+02  0.00000000000E+00 0.  1.
</event>
<event>
 7    1  0.3449603E-013  0.5930200E+02  0.7816164E-02  0.1266605E+00
        -11   -1    0    0    0    0  0.00000000000E+00  0.00000000000E+00  0.45593999997E+02  0.45594000000E+02  0.51100000000E-03 0.  1.
         11   -1    0    0    0    0 -0.00000000000E+00 -0.00000000000E+00 -0.45593999997E+02  0.45594000000E+02  0.51100000000E-03 0. -1.
    9900012    2    1    2    0    0  0.19458664454E+02 -0.73700938645E+01  0.24161109205E+02  0.59301998307E+02  0.50000098993E+02 0.  0.
         12    1    1    2    0    0 -0.19458664454E+02  0.73700938645E+01 -0.24161109205E+02  0.31886001693E+02  0.00000000000E+00 0. -1.
         11    1    3    3    0    0 -0.12498166118E+01 -0.56512944785E+01  0.16161561037E+02  0.17166689438E+02  0.51100000000E-03 0. -1.
        -11    1    3    3    0    0  0.25605634094E+02 -0.58942188148E+01  0.16834007684E+02  0.31205354152E+02  0.51100000000E-03 0.  1.
         12    1    3    3    0    0 -0.48971530279E+01  0.41754194288E+01 -0.88344595158E+01  0.10929954717E+02  0.00000000000E+00 0. -1.
</event>
